QMMM reactant CHA#2 frame 8170
 55680
  50.8189163  49.5983200  45.7554855  49.9620399  49.6228905  45.2213821
  50.6105690  50.0722580  46.6227074  51.6069183  50.0732307  45.3388138
  51.2728119  48.1888084  46.0274696  51.6520996  47.8218307  45.0737572
  52.4428978  48.2652321  47.0379295  53.0789719  49.0559349  46.6400528
  52.2603760  48.4119606  48.1024742  53.2448883  47.0027084  47.0221519
  52.5912285  46.2140045  47.3946800  53.6729126  46.6910057  46.0694008
  54.5072441  46.8443108  48.3850784  55.8756561  47.7136536  47.7038498
  56.4948997  47.8760109  48.5860558  56.3540802  47.1872520  46.8779526
  55.5860825  48.7328377  47.4478912  50.1200142  47.3623199  46.6247826
  49.8489571  47.5696869  47.8004723  49.3719254  46.5595436  45.8139076
  49.5556946  46.3447342  44.8442764  48.1247711  45.9372025  46.2689095
  47.5381355  46.6646919  46.8299065  47.2414322  45.4266205  45.0717545
  47.7857704  44.6178894  44.5841599  46.2581291  45.1040688  45.4140816
  46.9352150  46.4471588  43.9884987  47.8593826  46.7248306  43.4816284
  46.6275597  47.4017563  44.4153404  45.8057785  45.9624596  42.6632347
  46.5123634  46.8616257  41.2810745  46.5012054  47.9379997  41.4525223
  45.9180603  46.6732826  40.3869667  47.5585556  46.5660019  41.2023926
  48.3435783  44.6936417  47.2015190  49.4179916  44.0792274  47.2953529
  47.2276573  44.3282852  47.7676506  46.3937225  44.8826752  47.6361084
  47.1718864  42.9338493  48.4015160  48.0940094  42.6943932  48.9310951
  46.0830917  42.8190765  49.5021057  45.1278419  42.7829018  48.9783859
  46.1783600  41.4713440  50.2305450  47.1657600  41.4339828  50.6907082
  45.3084030  41.3499451  50.8759422  46.0858040  40.6675987  49.5001106
  45.8701248  43.9539070  50.5418510  45.8447800  44.8676033  49.9480362
  44.9794960  43.7587891  51.1391869  47.0567627  43.8616524  51.4684906
  46.8550835  43.1327438  52.2534256  47.9571419  43.6278496  50.9003754
  47.3674240  44.7526741  52.0140839  46.8405647  41.9348259  47.3057480
  45.9120560  42.1399574  46.4873314  47.4621353  40.7544022  47.3721046
  48.3235626  40.7081909  47.8973770  47.1940842  39.5369148  46.5762138
  46.2280197  39.6648331  46.0878983  48.4023285  39.4739265  45.5977936
  49.2815666  39.4015198  46.2379494  48.3700294  38.5907135  44.9598351
  48.7800713  40.6210327  44.5432968  49.0692520  41.4948349  45.1272049
  49.7334785  40.3121872  44.1146622  47.6836357  40.8859825  43.4277420
  48.1520462  41.4418488  42.6155167  47.3784981  39.9523735  42.9551277
  46.5181160  41.4359322  44.0076942  46.4952011  41.3094368  45.0094795
  45.3837433  41.8521461  43.4362221  45.2073364  41.9896126  42.1579361
  44.2528915  42.1171303  41.8531914  46.0398941  41.9080467  41.5919876
  44.3644257  42.1407738  44.1374168  44.3185806  42.2072983  45.1441803
  43.5688667  42.4345703  43.5888977  47.2096100  38.1863022  47.3739433
  47.9424973  38.1417122  48.3575516  46.5237617  37.1290932  46.9362564
  46.1026039  37.2452316  46.0256310  46.4980621  35.7640076  47.5202484
  46.8089638  35.7682381  48.5649605  45.4595680  35.4438438  47.4358444
  47.5209427  34.7995911  46.8061562  47.6222916  34.8772850  45.5650406
  47.9533730  33.7560768  47.4788704  47.6351357  33.7302399  48.4370766
  49.1167412  32.8039780  47.1486473  49.2711296  32.8346367  46.0700722
  50.5087471  33.3136940  47.6362686  50.4912529  33.2517281  48.7243652
  51.5317459  32.3562126  46.9988937  52.4923210  32.6970634  47.3851929
  51.3239479  31.3451939  47.3492661  51.5049896  32.2602196  45.9134598
  50.8063774  34.8001213  47.2396393  50.5331192  35.0687637  46.2192192
  50.1451874  35.3596230  47.9013710  52.2050285  35.4206581  47.3216057
  52.5538902  35.5249062  48.3489952  52.9847984  34.8241348  46.8480873
  52.2784653  36.4342613  46.9275017  48.7494087  31.3357716  47.5576134
  48.6251106  31.0539532  48.7545662  48.7300606  30.3986435  46.5689468
  48.8113708  30.7171803  45.6139488  48.2529182  29.0229836  46.7983551
  47.8693047  28.8605824  47.8056107  47.2052345  28.6074352  45.6959915
  47.6398506  28.7908516  44.7133560  47.0792694  27.5264587  45.6349792
  45.7824173  29.2121639  46.0341492  45.8206635  30.3014317  46.0223923
  45.1443443  28.9050083  45.2055244  45.1991653  28.6585312  47.3866234
  45.6165085  29.3074455  48.1565819  44.1261444  28.8502007  47.3857002
  45.6515350  27.2699318  47.7598572  46.3309135  27.1228447  48.4925995
  45.3441162  26.1857109  47.0397148  44.3515091  26.1829262  46.1468391
  43.6804924  26.9365883  46.1040573  44.1469841  25.2617607  45.7866669
  45.9694366  25.0465946  47.1134186  45.6507111  24.3779526  46.4268074
  46.7575111  24.9413815  47.7362862  49.3814316  28.0283623  46.6527939
  50.3947868  28.2931194  45.9328308  49.2475204  26.9279327  47.3960609
  48.5913925  26.8875828  48.1628532  50.0292206  25.6987038  47.1375198
  49.9289436  25.5088863  46.0688667  51.0674400  25.8725147  47.4203415
  49.3594437  24.4509583  47.6733208  48.4334831  24.5928040  48.5076675
  49.8557587  23.2198887  47.3890305  50.6640549  23.2623405  46.7849121
  49.5121651  21.9106102  47.8798790  49.2028961  21.9856720  48.9223862
  48.3803139  21.2838154  47.0522499  48.6647034  21.4288464  46.0100441
  48.4012642  20.2159996  47.2700424  47.3982315  21.7458706  47.1528244
  50.6884270  20.8927307  47.6944313  51.5150185  21.0549374  46.7765503
  50.6609497  19.9050579  48.5380745  49.8426018  19.8263626  49.1247711
  51.6987152  18.8059368  48.5946198  51.9013748  18.4911060  47.5709457
  52.9645996  19.2311344  49.2539291  53.3422737  20.0749245  48.6764565
  52.6425781  19.4203568  50.8029060  53.4370766  19.9534950  51.3250580
  51.7886543  20.0683174  51.0005569  52.6306839  18.4118767  51.2163391
  53.9863358  18.2092915  49.1542206  54.7887650  18.7362137  49.1619759
  51.0841408  17.4915447  49.2462769  50.0348663  17.5618782  49.8204079
  51.8078766  16.3853245  49.2495003  52.7804451  16.3969078  48.9773254
  51.3981514  15.1202717  49.7868271  50.7218971  15.2547026  50.6310463
  50.7750168  14.1795120  48.7189445  50.6129150  13.2490120  49.2629967
  49.5380936  14.7856398  48.0878563  49.9199905  15.6708584  47.5792923
  49.1184883  14.1072292  47.3450279  48.7487259  14.9770823  48.8147316
  51.7039757  13.9410334  47.7326889  52.3306808  13.2930231  48.0627251
  52.5933342  14.3605671  50.4688721  53.7929764  14.5904694  50.2315407
  52.1745262  13.4210920  51.2875710  51.1764450  13.3241682  51.4081650
  53.0689583  12.5936213  52.1212654  54.0890274  12.6662741  51.7440605
  53.1269302  13.0887012  53.5411224  53.9677010  12.6209030  54.0533447
  53.5761986  14.5270500  53.7146797  54.5355682  14.5855637  53.2005806
  52.8801384  15.1940441  53.2060318  53.9052811  14.8512745  54.7019386
  51.8389664  12.9316301  54.3819046  51.9692192  13.3547859  55.3779335
  51.0714340  13.5078573  53.8652306  51.5609131  11.9016981  54.6055870
  52.7120361  11.1267395  52.0513725  51.5525742  10.8245506  51.8946686
  53.6633530  10.2327328  52.0801697  54.6107903  10.5813599  52.1105766
  53.4632721   8.7967825  52.2241325  52.5537872   8.4935703  51.7054672
  54.7317352   8.1084337  51.6614761  55.5302124   8.4122639  52.3383980
  54.5903358   7.0517731  51.8885765  55.0407448   8.5616875  50.1995125
  55.2195129   9.6365070  50.1694374  55.9651337   8.1071577  49.8431320
  53.8935776   8.2182493  49.2861519  53.1814117   9.1448374  48.7705193
  53.7746925   7.0252066  48.9553604  53.2083626   8.3086195  53.6776237
  52.7369385   7.2013402  53.8371124  53.5583000   9.1731634  54.6272926
  54.0846443   9.9640856  54.2845078  53.6157303   8.7178020  56.0264282
  52.9886589   7.8280826  56.0837250  55.0690613   8.3180666  56.3422623
  55.6802788   9.1678982  56.6460609  54.9402237   7.7706943  57.2760086
  55.8250122   7.4315186  55.3622284  55.1921501   6.6969891  54.8641815
  56.3740234   8.0239716  54.6303215  56.8230782   6.6348453  56.2081528
  56.4115067   6.0082135  56.9993820  57.3543892   5.9799976  55.5175133
  57.7212677   7.6360030  56.8340225  57.8852425   8.4877424  56.3165703
  58.2150345   7.7305355  58.0488510  58.0546608   6.7756381  58.9058456
  58.3423843   6.9551287  59.8572159  57.8496857   5.8445716  58.5723801
  58.9547386   8.7033901  58.4407692  59.5054016   8.7592793  59.2856064
  58.9140053   9.5377226  57.8730278  53.1503487   9.7704535  57.0762939
  53.6703873  10.8657455  57.1659203  52.0986137   9.4303761  57.7906685
  51.8182983   8.4761686  57.6145706  51.4687347  10.1594582  58.8328972
  51.2508545  11.1645927  58.4718819  50.1263351   9.5317545  59.1939049
  49.5810547   9.4088039  58.2581444  50.3389282   8.5104427  59.5098572
  49.3149376  10.3135719  60.2272720  49.4595261  11.5345316  60.5037003
  48.5926857   9.5226479  60.8611946  52.2911453  10.2428169  60.1278801
  52.0481033   9.6422739  61.2034683  53.3287659  11.0709991  60.0931473
  53.5018349  11.5910940  59.2448273  54.2816544  11.2933702  61.2092285
  53.6977806  11.5761452  62.0851440  55.1230164   9.9932451  61.3920441
  54.4687157   9.1292639  61.5083694  56.0016289   9.5488729  60.2862930
  56.7444801  10.3452320  60.2406693  56.5602379   8.6794481  60.6329346
  55.3868599   9.3647833  59.4052315  55.9089127  10.1754379  62.5693321
  55.9642944   9.3847780  63.1109848  55.0605392  12.5790052  60.8962708
  55.2390022  13.1015730  59.8033066  55.3374977  13.3109980  61.9787483
  55.0879631  12.9487066  62.8879089  55.7464714  14.7520714  61.9397354
  54.9842949  15.3120661  61.3978920  55.8850594  15.2886534  63.3806305
  56.7192764  14.8671532  63.9414482  56.0882034  16.3502922  63.2400742
  54.6366234  15.2311497  64.2418900  54.5518570  16.1965580  64.7407913
  53.7109146  15.1212740  63.6770134  54.5703278  14.0791140  65.2480621
  54.0710449  14.2412386  66.4077301  54.7778778  12.9526653  64.8638916
  57.0696487  15.0430422  61.2110481  57.2936211  16.0289059  60.4986801
  57.9897079  14.0679207  61.3423233  57.6156464  13.2026796  61.7050018
  59.2759895  14.0577440  60.7338676  59.6589775  15.0404148  61.0091476
  60.1418152  12.9014482  61.3564835  61.1505966  12.9385071  60.9452858
  60.3312531  13.0606785  62.4180260  59.5517540  11.4603357  61.1255836
  58.6523361  11.3006821  61.7202759  59.1198578  11.3980379  60.1267395
  60.5683670  10.3413391  61.5270920  61.1283951  10.4132366  62.6116867
  60.7522545   9.3479233  60.7563972  59.1949120  14.0056753  59.1661072
  60.0993042  14.4178076  58.4170914  58.0763588  13.4673853  58.6334000
  57.2845039  13.4357662  59.2595520  57.6974449  13.5909433  57.1861382
  58.5550613  13.5062380  56.5187378  56.7807312  12.3712940  56.8159103
  57.0680351  11.4962902  57.3989410  55.7875710  12.6834965  57.1388016
  56.7398720  12.0403728  55.3690643  55.7788353  11.5709562  55.1589317
  56.5588608  12.9214602  54.7534180  57.8396873  11.0761976  54.9889412
  58.2003059  11.1348190  53.8227158  58.3802490  10.3078833  55.8246422
  56.9529495  14.9239779  56.9059105  57.1765175  15.7345629  55.9316139
  56.0138931  15.2061520  57.8177376  55.8829231  14.5158825  58.5433197
  54.9028244  16.1816444  57.6339607  54.6218796  16.0706959  56.5866508
  53.6284943  15.8962374  58.4861603  54.0132103  15.5083475  59.4293671
  52.7346954  17.1400204  58.4574051  52.6366844  17.5749397  57.4627495
  51.7365494  16.9279785  58.8406067  53.1558380  17.8485909  59.1706085
  52.9290123  14.7033577  57.9758682  52.3498116  15.0500450  57.1200409
  53.7386932  14.0020504  57.7741508  51.8492432  14.1214962  58.8992653
  51.1192169  14.7947454  59.3485870  51.3182602  13.3320093  58.3674088
  52.2137833  13.6163740  59.7937241  55.4204521  17.7132607  57.7453651
  55.1552734  18.5390129  56.9022446  56.2097130  17.9397259  58.8361969
  56.5867729  17.1963787  59.4066010  56.8539810  19.2311745  59.0278511
  56.0955963  20.0106068  58.9540977  57.5150757  19.2892590  60.4683800
  58.2739830  18.5166111  60.5915756  57.9000320  20.2983456  60.6155319
  56.4424591  19.0234356  61.5891342  55.9493370  18.0684853  61.4074631
  56.9629669  19.0755501  63.0387039  57.5530243  19.9908543  63.0850220
  56.1544189  18.8718605  63.7407455  57.6738243  18.2700329  63.2229080
  55.3733749  20.1115475  61.5208397  54.7957535  20.1494770  62.4444313
  55.8580933  21.0683804  61.3268776  54.7292557  20.0021439  60.6483498
  57.8455315  19.5136719  57.8811989  57.8734741  20.6689644  57.5306931
  58.5328865  18.5187931  57.1976089  58.5716171  17.5712738  57.5451813
  59.4387512  18.7502861  56.0266228  60.1205559  19.5852947  56.1878738
  60.2666626  17.4547844  55.7917404  61.1010780  17.3579655  56.4863510
  59.6988831  16.5250950  55.8292198  61.1222801  17.4263096  54.4705276
  61.8270645  16.5956631  54.5079689  60.4515953  17.1655159  53.6518288
  61.7955246  18.7624969  54.1930618  62.2055550  19.4847298  55.0682602
  61.9700356  19.1572819  52.8936653  61.6950722  18.4515533  52.2254982
  62.4195061  20.0176201  52.6145668  58.6619530  19.0656700  54.7127609
  58.9733467  20.0978737  54.0850792  57.6176949  18.2621326  54.3226585
  57.3604660  17.5002689  54.9337997  56.8802185  18.5580482  53.0656700
  57.4861603  18.7429104  52.1786728  56.0609779  17.3712940  52.5621033
  55.6117859  16.8723602  53.4208221  55.2845459  17.7766228  51.9132843
  57.0146179  16.4026756  51.7230644  56.4074211  15.8437061  51.0110512
  57.6225929  17.0267086  51.0680428  57.8229446  15.4048662  52.5391388
  58.6116219  15.9312220  53.0767593  57.2111816  14.9126549  53.2951660
  58.5404091  14.3436279  51.6487045  57.8608284  13.9154348  50.9118690
  59.2014542  14.9658947  51.0454636  59.1230583  13.3252602  52.5265465
  59.5387993  13.7627659  53.3363914  58.3764687  12.7195530  52.8361168
  59.8724022  12.7791939  52.1260529  56.1120796  19.8390102  53.1452904
  56.1672134  20.6010647  52.2441750  55.5957832  20.1921215  54.3530197
  55.5391731  19.5562420  55.1356773  54.9978523  21.5274544  54.4888420
  54.5216866  21.6887550  53.5217056  54.0150986  21.4503613  55.6891479
  54.7131844  21.5698318  56.5177002  53.0737991  22.6918736  55.7078209
  52.4732475  22.7470951  56.6157761  53.4907379  23.6938553  55.6063042
  52.3979836  22.6598015  54.8532219  53.1880417  20.2554703  55.7394447
  53.7487679  19.5876331  56.1409149  55.9941177  22.6757507  54.6086121
  55.7625275  23.6891441  53.9233780  57.1605263  22.5644989  55.3101845
  57.4104843  21.7833099  55.8995628  58.1931725  23.5754223  55.2958870
  57.6942329  24.5068073  55.5636215  59.2174225  23.2680779  56.3725510
  58.6872711  23.1702538  57.3199005  59.6180534  22.2965794  56.0830917
  60.3263893  24.3518066  56.5032997  60.7906494  24.5488167  55.5369911
  59.9199486  25.2935429  56.8721275  61.4758949  23.8751259  57.4981003
  61.1654167  24.0343494  58.5307426  61.5898209  22.8016930  57.3468933
  62.7898636  24.7093163  57.3154602  62.4508324  25.7370243  57.4457626
  63.5785904  24.4523506  58.0225487  63.3858070  24.5560589  55.9108582
  62.8817253  25.0678005  55.2008400  64.3856506  24.6968040  55.8862953
  63.2448311  23.5796719  55.6943054  58.8423920  23.7521229  53.8820457
  58.8668022  24.8566532  53.4613266  59.0717583  22.7168217  53.0886421
  58.9039192  21.8323040  53.5464211  59.4880753  22.8956032  51.6247330
  60.3756104  23.5212440  51.5300827  59.9002113  21.4748154  51.0369225
  60.8372650  21.1566067  51.4938431  59.1085548  20.7907200  51.3425293
  60.0228958  21.4541130  49.5547333  60.0928230  20.4057446  49.2646828
  59.1255341  21.8242512  49.0589066  61.2285728  22.2795181  49.0616608
  61.9225235  22.9499931  49.8147469  61.4644394  22.2314663  47.8029404
  62.1890831  22.8208675  47.4187469  60.7750511  21.8186741  47.1910210
  58.4719887  23.5656605  50.7403030  58.7948418  24.4442520  49.8784790
  57.2122269  23.0677528  50.8779678  57.0094643  22.3383369  51.5465012
  56.1503906  23.8054886  50.1830559  56.3120499  23.7484455  49.1066170
  54.7389259  23.1985130  50.4449158  54.8067665  22.1971798  50.0196762
  54.5671425  23.0292740  51.5079041  53.4707108  23.9211235  49.7354507
  53.4517555  24.9482460  50.0998230  53.6448936  23.8446770  48.1948090
  53.5792847  22.7987328  47.8951340  52.8112297  24.2665863  47.6334724
  54.5798721  24.3438492  47.9403648  52.2493973  23.1659107  50.2477989
  52.2812004  23.1860943  51.3371468  51.3510323  23.6516666  49.8669052
  52.2570992  22.1257744  49.9219704  56.1791115  25.2896042  50.5586090
  56.1862144  26.1482067  49.6360588  56.2249680  25.6735783  51.8331642
  56.3466301  24.9702797  52.5477753  56.3741798  27.0633469  52.2226372
  55.5163727  27.5633125  51.7728577  56.3021507  27.0099545  53.7715988
  56.7039871  26.0512390  54.0994606  56.8297310  27.8489685  54.2252693
  54.8215714  26.9146461  54.2962494  54.2963905  26.2354565  53.6246948
  54.8396988  26.5538979  55.7436638  55.1535530  25.5132217  55.8247910
  55.5075569  27.2289886  56.2787476  53.8286552  26.4137058  56.1260872
  54.0604248  28.2818203  54.0954552  53.0015259  28.1517200  54.3188667
  54.6359215  28.9504509  54.7356415  54.1472321  28.6791039  53.0841560
  57.5912552  27.7903214  51.6880875  57.5894890  28.9384651  51.1565132
  58.7403870  27.0973186  51.8118973  58.7267342  26.1981544  52.2717018
  60.0669403  27.6104641  51.4703026  60.2277641  28.4903355  52.0932503
  61.1372299  26.4986610  51.7616730  60.7126999  25.5262051  51.5122643
  62.0755005  26.4075680  51.2144547  61.4762955  26.3411102  53.1871071
  60.6410294  26.5430508  53.8576660  61.5717163  25.2710056  53.3711700
  62.6765099  27.1823502  53.5642700  63.4647369  26.7137356  54.4199829
  62.8544464  28.2510796  52.9195862  60.1903954  27.9839420  49.9391975
  60.8632240  28.9631386  49.5509262  59.4823418  27.1347656  49.1327858
  59.2506104  26.2494755  49.5601768  59.3975830  27.2667351  47.6724358
  60.4247169  27.4373035  47.3499451  59.0098457  25.8581371  47.0580177
  59.6828918  25.0452785  47.3307266  58.0150948  25.4989300  47.3217239
  59.1414566  25.8822937  45.4748230  58.8338776  24.9623528  44.9776230
  58.3494301  26.5449543  45.1260071  60.5475883  26.3158798  45.0004349
  60.7712975  27.3215046  45.3564873  61.3025322  25.5762386  45.2670670
  60.5063782  26.3327923  43.5089493  60.2229385  25.4228439  42.9800262
  59.8015327  27.1255646  43.2583199  61.8437538  26.8283157  43.1009903
  61.8267136  27.3089199  42.2128220  62.3796463  27.3566380  43.7746315
  62.3788338  26.0141068  42.8348045  58.5270462  28.4561329  47.2371559
  58.9509048  29.3490982  46.5260124  57.3576965  28.5567284  47.8510666
  57.1497726  27.7414989  48.4098778  56.4787941  29.7098484  47.6571693
  56.0737495  29.8099747  46.6501884  55.2267303  29.4630146  48.4985275
  55.4850006  29.2435532  49.5344963  54.3169937  30.7204113  48.6544838
  54.2015343  31.2803535  47.7264519  53.3465424  30.3714790  49.0074310
  54.7309341  31.3673248  49.4279556  54.3960342  28.2928467  47.9052887
  53.8393822  28.5887127  47.0160789  55.0362625  27.4941368  47.5307617
  53.3536873  27.7642269  48.7994614  53.0987129  26.7754288  48.4181900
  53.8625526  27.4960461  49.7253342  52.4800835  28.4129181  48.8636780
  57.1594696  31.0456448  48.0407104  57.0363045  32.0889206  47.3956451
  57.8840523  31.1466923  49.1833267  57.9520302  30.3589630  49.8117867
  58.7028427  32.2914162  49.5804482  58.0875359  33.1909027  49.5599899
  58.9609032  32.1100235  51.0985298  59.4800682  31.1596317  51.2223358
  59.8342209  33.1909866  51.7240562  59.3130684  34.1455269  51.7972755
  60.1758652  32.8792229  52.7110634  60.7456665  33.2760201  51.1323318
  57.6981430  31.9003143  51.9391823  57.1837845  32.8547058  52.0517464
  56.9604378  31.3107204  51.3948784  57.7915649  31.1753769  53.3268204
  56.8268547  30.7964153  53.6641884  58.3889236  30.2642422  53.2937088
  58.1480865  31.8581448  54.0980682  59.9166794  32.6250992  48.6461296
  60.1859245  33.8168755  48.3951340  60.6260719  31.6667042  48.1306992
  60.4241066  30.7145557  48.4003754  61.7931023  31.7458744  47.1836815
  62.5484772  32.4434242  47.5455284  62.3499603  30.2892742  47.1800156
  63.0828629  29.9912090  47.9297562  61.5276108  29.5842609  47.3016434
  63.0690804  29.9299126  45.9439697  62.4935951  29.8576050  45.0210991
  63.8302841  30.6730556  45.7064590  63.6901512  28.5164413  46.0753021
  64.4217072  28.1222420  46.9870110  63.5553093  27.7520523  45.0998535
  61.3006859  32.0876541  45.7601891  61.9985466  32.7506256  45.0241585
  60.0462456  31.7670918  45.3393669  59.5296059  31.2040539  45.9998093
  59.4841347  32.1793633  44.0618973  60.3176689  32.2238388  43.3609352
  58.6355743  31.0117302  43.4845428  57.9442291  30.7696686  44.2917290
  58.0865173  31.3263130  42.5970345  59.3846512  29.7195511  43.0839462
  60.0090332  29.4747238  43.9431953  58.6702614  28.9562531  42.7755280
  60.3978767  29.9015274  41.8919182  61.2015762  28.9892483  41.5540428
  60.4021416  30.9254742  41.2057419  58.6608963  33.4072952  44.0613937
  58.7552414  34.1821175  43.1645355  57.8535576  33.7026825  45.1337357
  57.9077263  33.1877441  46.0009193  57.2834358  35.0277977  45.2896957
  57.1020279  35.5186996  44.3335533  55.9505157  34.8156509  46.0069618
  56.1372452  34.3364372  46.9679947  55.4103050  35.7233353  46.2760010
  54.9827957  33.9823418  45.1627426  54.3748550  34.5484734  44.2612152
  54.9810371  32.6656647  45.2968979  54.3788605  32.1419029  44.6779022
  55.5197868  32.2386017  46.0368118  58.0032692  36.0711021  46.1792564
  57.4071808  37.0748329  46.6110077  59.2126427  35.7776070  46.6765366
  59.5381927  34.8219604  46.6473007  60.1137123  36.6833611  47.3723259
  61.0164223  36.1380844  47.6478119  60.6621780  37.7656364  46.3846703
  59.9588699  38.5888519  46.2590599  61.6059036  38.1589661  46.7625198
  60.9260750  37.2272835  45.0233269  60.4182510  37.7486992  43.8033028
  60.1513062  38.6909637  43.5563545  60.9143066  37.0092125  42.8030739
  60.6380806  37.0105553  41.7589951  61.6281967  36.0069389  43.3324585
  62.0985794  35.3837929  42.6917343  61.6527519  36.0975952  44.6961021
  62.0717125  35.3947449  45.4009972  59.5787392  37.1916237  48.6896629
  59.8261414  38.3479195  49.1135178  58.7871895  36.3777122  49.4265709
  58.7802544  35.4069633  49.1478157  57.9055405  36.9159203  50.5343781
  57.2771606  37.7258797  50.1639557  56.9145546  35.8312492  51.0396576
  57.4854279  34.9919128  51.4367867  55.8631401  36.2750740  51.9961548
  55.3825607  37.1563301  51.5712738  55.1343155  35.4769516  52.1372986
  56.3472862  36.4561996  52.9557877  56.2628708  35.2364044  49.9629097
  55.7011681  35.9507713  49.6534462  58.7196236  37.4849930  51.6630363
  59.8634987  37.0172462  51.8525352  58.2013969  38.4268761  52.5158844
  57.3138924  38.7758331  52.1832161  58.6457596  38.8032722  53.8475494
  59.3782692  38.0558128  54.1522408  59.3120575  40.2757721  53.8326454
  58.6569405  40.9367561  53.2651749  59.2975960  40.7079659  54.8331947
  60.7310982  40.3346138  53.2159157  61.3764763  39.6086235  53.7104149
  60.7342987  40.1077538  52.1497879  61.3737793  41.7409554  53.5004349
  61.6470871  41.6992302  54.5547905  62.2968063  41.7899284  52.9227486
  60.5402908  43.0077972  53.2276001  59.6651726  42.9500809  53.8748550
  61.1029816  43.8683357  53.5894775  60.2988739  43.1594620  51.7970314
  59.7297821  43.9781799  51.6359825  61.2108688  43.2708549  51.3775520
  59.8167114  42.3898697  51.3550491  57.4847794  38.7299652  54.8312759
  56.3812294  39.1359787  54.4129181  57.6453552  38.1785355  56.0203056
  58.8039818  37.4792290  56.5448303  59.7400780  38.0376396  56.5438080
  58.9016914  36.5110321  56.0537567  58.6191635  37.3497772  57.9863815
  58.7967873  38.3313560  58.4257660  59.1632080  36.5096779  58.4180641
  57.1289940  37.1226196  58.0141983  56.8622017  37.5602570  58.9761734
  56.8885841  36.0614433  57.9493065  56.5114937  37.8592796  56.8325005
  55.8418579  37.1674500  56.3215523  55.7080078  39.1175003  57.2753029
  54.4620667  39.0229034  57.4426842  56.2744980  40.3172913  57.2697105
  57.1932449  40.4080048  56.8601074  55.6935158  41.5842667  57.8058357
  55.5047531  41.4026909  58.8639030  56.8078575  42.6124382  57.8028755
  56.5561028  43.6033249  58.1808434  57.6141205  42.1201935  58.3466988
  57.2545052  43.0980110  56.4268990  57.3070869  42.2466202  55.7483177
  56.4350243  43.7037544  56.0400772  58.6025581  43.8177986  56.3854713
  58.5536842  45.0635262  56.4118729  59.6605225  43.1536179  56.3468857
  54.5049095  42.2132416  57.0882530  53.6749649  42.9045639  57.7138557
  54.4003487  41.8731499  55.8473587  55.1856232  41.3762817  55.4516754
  53.3008270  42.1796074  55.0068703  52.7442932  43.0399513  55.3785934
  53.8741417  42.6087112  53.6308136  54.4038277  41.7948189  53.1357307
  53.0449448  42.9807243  53.0290260  54.6419029  43.9191704  53.6260757
  54.6065063  44.6605148  54.6288567  55.3259811  44.1928482  52.6315079
  52.3160400  40.9996147  54.8016586  51.3627281  41.1948166  54.0617828
  52.5952187  39.8495903  55.4488983  53.2980843  39.8824463  56.1734657
  51.6256409  38.6690102  55.3047562  51.4607048  38.5960121  54.2297821
  52.0942650  37.3325806  55.9007416  52.4944839  37.5104980  56.8988762
  50.9346466  36.2587357  55.9832993  50.2968597  36.4753189  56.8402824
  50.3381920  36.1775436  55.0745926  51.3736458  35.2654305  56.0766716
  53.1987877  36.7612457  55.0499535  52.8594017  36.6453476  54.0206375
  54.0078239  37.4916000  55.0620728  53.5490952  35.8123741  55.4561882
  50.3923569  39.0752869  56.1445847  50.4532356  39.2574158  57.3670540
  49.2542915  39.0710144  55.4325752  49.3659286  38.8392525  54.4558830
  47.8954010  39.5171852  55.8739510  47.9259262  40.4627075  56.4153938
  47.0498886  39.8661308  54.6840630  47.0661888  39.0740471  53.9354401
  45.5284996  39.9787369  55.0358238  45.0457916  40.4903374  54.2031403
  44.9665947  39.0475273  55.1080284  45.5136948  40.6037483  55.9287071
  47.5990372  41.0429077  53.9444084  47.3527832  41.9709435  54.4603539
  48.6527290  40.9658470  53.6762772  47.0711708  41.1203613  52.9939041
  47.3814201  38.5042000  56.8169174  47.4179649  38.6252213  58.0059052
  47.0869598  37.3456573  56.2677422  47.1254196  37.2369041  55.2643509
  46.7334099  36.1656609  57.0327530  47.3596268  36.2298088  57.9226112
  45.2572632  36.3468781  57.4361801  44.9916306  35.8189125  58.3520355
  44.9217148  37.3694458  57.6090240  44.2440643  35.8696098  56.4401360
  44.3136406  36.4761200  55.5371399  44.3284645  34.8173676  56.1685295
  42.8134193  36.0280571  56.9120102  42.6262894  36.5417290  58.0148048
  41.8325195  35.5448837  56.3026009  40.9368362  35.6034622  56.7656555
  41.9870872  35.0349197  55.4446106  47.0741005  34.9218369  56.2427406
  47.1479187  34.8500443  55.0189705  47.3747826  33.8960152  57.0012093
  47.2504807  34.0111313  57.9968987  47.5735626  32.4976044  56.4727402
  47.5095444  32.5313454  55.3851433  48.9373665  32.0527763  56.8197899
  49.6617279  32.8112755  56.5230026  49.0361252  31.9125500  57.8962135
  49.2644615  30.7846146  56.0183220  48.5218010  30.0013638  56.1702271
  49.1699791  30.9968014  54.9533577  50.8330421  30.0153351  56.2845650
  51.9625130  30.8848858  55.1400986  51.7897339  30.6656570  54.0864449
  51.7936516  31.9557190  55.2537384  52.9635696  30.7299557  55.5425720
  46.5081711  31.4999218  56.8826370  46.0582924  31.4074326  58.0091858
  46.0477715  30.7042484  55.9037132  46.3762169  30.7754383  54.9512634
  45.0822601  29.6157436  56.0138474  44.7548332  29.4991741  57.0469475
  43.8411446  30.0085812  55.1233978  44.1908722  29.9643726  54.0919724
  43.0020027  29.3161983  55.1908569  43.1807632  31.3656006  55.5136261
  43.8878975  32.1770325  55.3414764  42.0954590  31.6342239  54.5198898
  42.4423065  31.6566772  53.4867897  41.2397423  30.9689255  54.6349068
  41.6524124  32.5758667  54.8441048  42.6107712  31.3152523  56.9364891
  43.3778801  31.2136269  57.7041626  42.1213379  32.2638512  57.1572113
  41.9281883  30.4660683  56.9691391  45.6775589  28.2989597  55.4128799
  46.5066223  28.2946815  54.4552841  45.3293533  27.1302528  55.9677658
  44.5858307  27.1330433  56.6513367  45.9086304  25.8888435  55.4858971
  46.0966415  26.0838909  54.4301033  47.1231308  25.4711151  56.3455772
  46.7168503  25.1328449  57.2987862  47.5446205  24.5810280  55.8784676
  48.3138885  26.4451351  56.6076889  48.3658295  27.0795898  55.7228889
  48.1693192  27.3711033  57.8556023  49.1445465  27.8532181  57.9233856
  47.3993454  28.1302185  57.7177658  47.7806206  26.7707024  58.6781197
  49.5745049  25.5954781  56.8090363  49.5228920  25.0425835  57.7469826
  49.7838058  24.8371334  56.0545807  50.4256134  26.2761002  56.7874947
  44.7568893  24.8281975  55.5663948  43.8352013  25.0536652  56.3381882
  44.8628654  23.6583481  54.8832970  45.5887527  23.4956093  54.2001419
  43.9153671  22.5573883  54.9040031  43.3118248  22.4845600  55.8087311
  42.8638954  22.6766815  53.8280830  42.4267159  23.6566601  54.0194321
  43.3850670  22.6682148  52.8707886  41.9123764  21.7037544  53.7634583
  41.9126511  21.3293343  52.8794861  44.6234779  21.2584820  54.6338730
  45.4284401  21.1361580  53.6572266  44.3104897  20.2355919  55.4196320
  43.6485863  20.3757210  56.1695328  44.8871498  18.9244633  55.3572769
  45.1727982  18.6713085  54.3362846  46.1818848  18.9537239  56.1893387
  46.0104561  19.5475101  57.0871925  46.5612373  17.9528561  56.3953896
  47.0037041  19.3863258  55.6187515  43.8787918  17.8324318  55.7833328
  42.8688889  18.0571384  56.4109268  44.1669273  16.6351986  55.2624931
  45.0036621  16.5471325  54.7037277  43.2457237  15.4645948  55.1292076
  42.2835770  15.8858767  54.8378448  43.6696396  14.5138369  53.9320221
  43.1795807  13.5575562  54.1149673  43.2901344  15.1213036  52.5614052
  43.8330498  16.0536060  52.4059448  43.5649414  14.4834652  51.7213173
  42.2053947  15.2282257  52.5604477  45.0794258  14.2205515  53.8849525
  45.0665512  13.3884802  54.3635864  43.0646095  14.5759850  56.3951988
  44.0749664  14.3857651  57.0972824  41.8532677  14.0221729  56.6529846
  40.6927681  14.1627235  55.7665024  41.0183372  13.8037548  54.7901573
  40.2830200  15.1713190  55.7122536  39.5439720  13.3063545  56.4079704
  39.4754333  12.3224907  55.9438438  38.5880165  13.7667418  56.1583862
  39.8931580  13.2100420  57.9041443  39.5345192  12.3336573  58.4439850
  39.3661690  14.0501957  58.3563919  41.4396782  13.3287706  57.9127159
  41.7447929  13.9850769  58.7277412  42.1461906  11.9801397  58.0617371
  42.0699425  11.3811178  59.1606331  42.8361969  11.4647503  57.0461998
  42.9622993  11.9778233  56.1854095  43.8244858  10.3275385  57.2470284
  43.3524551   9.6306610  57.9395943  44.1505356   9.6703939  55.8436165
  44.9592476   8.9754744  56.0698395  43.2166748   9.1516247  55.6270981
  44.5333366  10.5648279  54.6470833  44.8567162  11.7437925  54.7745018
  44.5420761  10.0421448  53.4762917  45.1719780  10.6662331  57.9427643
  45.8168144   9.7517109  58.4451256  45.5020370  11.9769602  58.0707550
  44.8332176  12.6532297  57.7309914  46.6615639  12.5100355  58.7884445
  47.4509354  11.7585077  58.7742310  47.1513252  13.7654886  58.0977402
  46.3508568  14.5014858  58.1729622  47.9818726  14.0843430  58.7275200
  47.6346474  13.6549921  56.5815811  46.7979355  13.3363256  55.9599190
  48.0149689  15.0361776  56.1932640  48.4090614  14.9682446  55.1792717
  47.1560173  15.7072086  56.1890526  48.7724075  15.4473534  56.8605843
  48.7390671  12.6997328  56.4366798  48.4454880  11.6775913  56.6757202
  49.1383438  12.7817602  55.4257622  49.5282326  12.9055901  57.1598282
  46.2033806  12.8739500  60.2420654  45.1791344  13.5479040  60.4162254
  46.9401169  12.4867640  61.2554321  47.7913475  12.0832987  60.8911285
  46.6954498  12.7096462  62.6827278  45.7923012  13.2950220  62.8552246
  46.5693932  11.3401098  63.3572807  47.5582199  10.9055243  63.5037651
  46.2768631  11.6344080  64.3652115  45.6064720  10.3069115  62.8270264
  45.8977737   9.4493351  61.7651367  46.7420692   9.4756765  61.2114449
  44.8628464   8.5871553  61.6011505  44.8131943   7.8735304  60.7920341
  43.9335632   8.8301525  62.5289459  43.0095291   8.4307156  62.6108475
  44.3652115   9.9513941  63.2759209  43.7822075  10.4268703  64.0507965
  47.8965912  13.4597998  63.3266907  47.7418022  14.1174698  64.3678513
  49.0982246  13.3651676  62.6978226  49.1866493  12.7803211  61.8791428
  50.2674484  13.5709400  63.5488586  50.0768700  13.0247326  64.4726715
  51.5084534  12.9398966  62.7733421  51.2372971  11.9188108  62.5050774
  51.7317085  13.5420532  61.8926239  52.4075699  12.8941975  63.3878403
  50.4791222  14.9565973  64.0636444  50.7784576  15.0769682  65.2573471
  50.3528442  15.9831944  63.2427864  49.9376945  15.8694754  62.3291016
  50.5417137  17.3818913  63.7030983  50.1938782  17.4763317  64.7317810
  52.0720215  17.6289177  63.6638680  52.6180267  16.8894615  64.2496796
  52.7363358  17.7032509  62.3292618  53.8225174  17.6120739  62.3281937
  52.3868332  16.8573551  61.7373085  52.4745102  18.6295605  61.8178940
  52.4019279  19.0081234  64.2931290  53.4749413  19.1164570  64.4512482
  52.0487900  19.8379402  63.6809196  51.8840828  19.0339355  65.2519150
  49.6669426  18.3904400  62.9569511  49.1774063  18.0978546  61.8858299
  49.4999275  19.5725498  63.5237579  49.7912025  19.7021790  64.4821167
  49.0509453  20.7908745  62.8116989  48.2309532  20.5881939  62.1227608
  48.6849022  21.7943707  63.8530273  49.5424156  22.0180702  64.4876328
  48.4221954  22.7207985  63.3423233  47.4755249  21.4941368  64.7248383
  46.1443024  21.7475796  64.2893753  45.9561920  22.0766544  63.2780724
  45.0498848  21.3784103  65.1448441  44.0733147  21.3822842  64.6836472
  45.2683105  20.9269753  66.4283752  44.4325676  20.6880779  67.0693588
  46.5528641  20.8693714  66.9092712  46.7718887  20.6407852  67.9418259
  47.6501236  21.1106987  66.0527496  48.6395340  21.0920334  66.4853363
  50.1337357  21.4086132  61.9307938  51.2643814  21.6726360  62.2954102
  49.8470039  21.6500950  60.5857658  48.6286430  21.2501354  59.8753815
  47.6864471  21.7684174  60.0535622  48.3859444  20.2775021  60.3033943
  48.8560486  21.2955189  58.3735237  48.1200447  21.9639988  57.9268303
  48.9766159  20.2991199  57.9483719  50.1507301  22.0582981  58.2820854
  49.9547234  23.1094933  58.0707207  50.9084549  21.6205082  57.6322403
  50.8042870  22.0702457  59.6420708  51.5820656  21.3066692  59.6315384
  51.4202690  23.4772129  59.9384460  52.5896492  23.7891521  59.6708984
  50.6142197  24.3247776  60.6025276  49.6379585  24.0674400  60.6307526
  51.0277443  25.5566463  61.2499199  51.2560310  26.3487968  60.5368385
  49.8681793  26.0822906  62.0999870  49.3887672  25.2765884  62.6559677
  50.2876091  26.8543606  62.7450371  49.1701126  26.4844246  61.3657608
  52.2979164  25.5423775  62.1081696  53.0821915  26.4276199  61.9999542
  52.6030922  24.3070183  62.7188187  51.9564056  23.5326729  62.6710167
  53.9396820  24.0336800  63.3333435  54.0656319  24.8728046  64.0175247
  53.8407364  22.6765385  64.0713806  52.8733368  22.6340256  64.5718155
  53.9306335  21.8654575  63.3487663  54.9768677  22.5296593  65.1174240
  55.9305229  22.5479012  64.5898743  54.8581657  23.4262905  65.7257538
  54.8873978  21.2715721  65.9233017  53.8366241  21.1151981  66.1672745
  55.1911659  20.3846531  65.3672409  55.7826195  21.4442291  67.1602707
  56.7195206  21.8244896  66.7531738  55.2980194  22.0908546  67.8917999
  56.0749931  20.1765079  67.8599091  56.7740784  19.6196003  67.3895493
  56.5016708  20.4233494  68.7414474  55.2379646  19.6266136  67.9906845
  55.1488533  24.2206440  62.4454231  56.1054306  24.7658081  62.9902153
  55.0646553  23.9380703  61.1650734  54.1939087  23.5999222  60.7809448
  56.1286621  24.1900139  60.1893539  57.0671692  23.6906357  60.4300346
  55.5897026  23.5685158  58.8531227  54.8830910  24.1954899  58.3093262
  56.4581947  23.6192493  58.1964302  55.3473434  22.5155487  58.9967346
  56.5003433  25.6025467  60.0199203  57.6761208  25.8582268  59.7456627
  55.5094452  26.4922600  60.0597992  54.5324402  26.2484055  60.1378441
  55.6721420  27.9524555  59.7726746  56.1406479  28.0740223  58.7960320
  54.2503471  28.6940117  59.7278976  53.8419952  28.6616745  60.7379990
  54.2698555  30.2096539  59.4557076  54.9891167  30.4803905  58.6827431
  53.2839737  30.5290661  59.1178932  54.4338684  30.6920586  60.4192848
  53.3147621  27.9454384  58.7104759  52.3620110  28.4220753  58.9410706
  53.5898438  28.0779209  57.6641121  53.2394142  26.8857574  58.9544106
  56.6504898  28.5038471  60.7862473  57.3688774  29.4455299  60.4279251
  56.8070946  27.9284992  61.9576454  56.2362823  27.1213703  62.1645622
  57.5861244  28.4348850  63.1057472  57.5376282  29.5183125  63.2149963
  56.8875885  27.7975292  64.2918396  55.8052330  27.8992424  64.2126999
  57.0644569  26.7234268  64.2359161  57.1976662  28.1056652  65.7845078
  57.9478531  27.3976021  66.1365967  57.7083397  29.0580463  65.6420822
  56.0540543  28.1870174  66.7748489  56.3760757  28.4718838  67.7764740
  55.3890343  28.9854012  66.4455643  55.2675743  26.9623051  66.8738785
  55.7389755  26.2131596  67.3603592  54.0255356  26.7879143  66.4318314
  53.5028267  27.7396908  65.7342300  52.5762215  27.4782887  65.4289703
  53.9437943  28.6158333  65.4933548  53.2988777  25.7210655  66.7842560
  52.4008484  25.5213337  66.3674240  53.7297630  24.9697895  67.3038940
  59.0628433  27.9916878  63.0102043  59.8674278  28.2501907  63.9121132
  59.4913979  27.3346500  61.9524384  58.7938118  27.0613232  61.2751160
  60.8529472  27.1741047  61.5773468  61.4729958  27.0525341  62.4655266
  61.0130997  25.9290276  60.6675911  60.4665871  26.1127510  59.7425652
  62.0316277  25.9431515  60.2796440  60.7113228  24.5592823  61.2855072
  59.6269760  24.4632683  61.3409538  61.0160370  23.6585140  60.7527122
  61.3244400  24.3979053  62.5594292  60.6659470  24.4743290  63.6195793
  62.5701180  24.4744415  62.7025299  61.4687080  28.3380470  60.8509331
  62.6624603  28.3224506  60.5312309  60.6705170  29.3352680  60.5209274
  59.7092857  29.3508263  60.8305931  61.0254478  30.4415531  59.6276169
  61.9947090  30.2419224  59.1706886  59.9778709  30.6513023  58.4863968
  59.0383186  31.0009651  58.9142761  60.2946472  31.4728775  57.8439255
  59.7031937  29.4873352  57.4922714  59.2946243  28.6712227  58.0882034
  58.6692314  29.7482605  56.4154854  57.8950081  30.4396496  56.7481422
  59.1871033  30.2300987  55.5861855  58.2278442  28.8184853  56.0565948
  60.9895058  28.9053631  56.9488220  61.4855843  29.7147732  56.4132309
  61.6426544  28.5108738  57.7271996  60.8339348  28.0715008  56.2642975
  61.2758026  31.7816830  60.4099464  60.5597153  31.9547710  61.4708633
  62.2368507  32.6437111  60.0411682  62.7766190  32.5371704  59.1941719
  62.6060333  33.8743744  60.7338753  62.6986694  33.6585197  61.7982635
  63.9271736  34.4197540  60.2578278  64.7232971  33.6754684  60.2397118
  63.9309158  34.6918602  59.2023430  64.4129791  35.5268364  61.0343933
  65.0238647  36.1366425  60.6142044  61.5820122  35.0059357  60.5879593
  61.1669884  35.3060722  59.4681969  61.2146492  35.7132950  61.6627884
  61.7769279  35.5433578  62.4844093  60.0216980  36.6170654  61.6731300
  59.9677696  36.9718018  62.7023811  60.1635742  37.3484650  60.8775024
  58.6539650  36.0134926  61.5470276  57.6240463  36.6680374  61.6352081
  58.5017929  34.7382393  61.2735023  59.3273468  34.1567726  61.2520866
  57.2549171  34.1282120  60.8080177  56.7314339  34.8184891  60.1465111
  57.6396637  32.9869614  59.8769722  58.4413223  32.3765793  60.2927589
  56.8012009  32.2918053  59.8341446  57.8390923  33.3278618  58.4676971
  59.0411263  33.6080246  57.7897453  60.0556374  33.5798416  58.1590271
  58.7284737  33.8391380  56.4449539  59.4677773  33.8833733  55.7582397
  57.3529625  33.7220917  56.1820259  56.5856171  33.7770576  54.9673271
  57.0476532  33.9180145  54.0013809  55.1469765  33.6450195  55.1194534
  54.4340248  33.6552238  54.3082809  54.6051292  33.2025871  56.3503036
  53.5422211  33.2134171  56.5413780  55.4321709  33.1231766  57.4531784
  54.9451447  32.8675995  58.3826332  56.7858086  33.3886299  57.4396935
  56.2190628  33.7000275  61.9234810  55.0535660  33.4934196  61.5335045
  56.6875343  33.5981941  63.1533585  57.6867790  33.7422791  63.1825333
  56.0210190  33.3516197  64.3931885  55.4523315  32.4285393  64.2808380
  57.1058655  33.0706024  65.4608459  56.6987457  32.6636887  66.3864670
  57.7379341  32.2948875  65.0285873  58.0022163  34.2848091  65.8895187
  57.4572182  35.2286224  65.9066391  58.4516029  34.1092033  66.8669205
  59.1325035  34.4743996  64.8575668  59.4415054  33.7310524  63.9764519
  59.7036438  35.6615334  64.8237305  60.6582336  35.6628494  64.4937897
  59.5055199  36.0605965  65.7301483  54.8661728  34.3276787  64.6930161
  53.8567352  34.0641022  65.3522568  55.0055237  35.5231819  64.1014175
  55.8921890  35.8192444  63.7189713  54.0012436  36.5723991  64.1825333
  53.4904213  36.6825104  65.1391068  54.8356628  37.8459053  64.0990524
  55.3725357  37.7686691  63.1535873  54.2156067  38.7372131  64.1949768
  55.9455032  38.0074883  65.1106033  55.5666771  37.6853256  66.4425659
  54.5322418  37.5857964  66.7365723  56.5650291  37.6377106  67.4337616
  56.3255539  37.2471504  68.4117737  57.8789787  38.0210419  67.1437454
  58.7706680  37.9108734  68.1408234  58.4940338  37.1157265  68.6021423
  58.2529678  38.3643799  65.8053055  59.2814789  38.5978203  65.5727768
  57.2867966  38.2737541  64.7913589  57.6203117  38.5233841  63.7949333
  52.9353256  36.5469894  63.0805321  51.8457947  37.1418495  63.1344604
  53.0199394  35.6605988  62.1220284  53.8452988  35.0878181  62.2259598
  51.9628983  35.3733826  61.1116982  51.6324196  36.3700905  60.8193703
  52.5043678  34.6622849  59.8644867  53.1627960  33.8471947  60.1648102
  51.4069252  34.1646080  58.8643646  51.8728752  33.8284225  57.9380989
  50.6690598  33.5028763  59.3179855  50.8198700  34.9776764  58.4373016
  53.4136772  35.6815987  59.1716270  53.0912933  36.7203484  59.2435074
  54.4065514  35.6318970  59.6186600  53.4954681  35.4394226  58.1120224
  50.8375435  34.5725136  61.7500038  51.0321274  33.4618912  62.2405624
  49.6003799  35.1323624  61.7692680  49.2782631  36.4785004  61.2972527
  49.5966377  36.6549301  60.2698212  49.6710777  37.1920204  62.0216026
  47.7326660  36.5404778  61.2702484  47.3641510  36.2480202  60.2870064
  47.2820206  37.5119095  61.4735794  47.3069725  35.5199165  62.3254929
  46.2742691  35.2017021  62.1827927  47.4701996  36.0060959  63.2873077
  48.3676529  34.4645576  62.1583824  48.3745651  34.1138878  63.1904106
  47.9240074  33.2521324  61.1929321  47.9705162  33.3823853  59.9706917
  47.6069031  32.0898666  61.7986755  47.7603073  31.9909420  62.7920418
  47.4951363  30.8262939  61.0551949  47.3307266  30.9124184  59.9811134
  48.7359276  29.8783646  61.1968575  48.3401375  28.8627815  61.1906548
  49.7446060  30.0362148  60.0356598  50.3939552  30.9114552  60.0555649
  50.4838409  29.2391071  60.1147003  49.2641068  30.1289272  59.0616875
  49.4569283  30.1745453  62.5133591  48.7906456  29.8317928  63.3049965
  50.2765160  29.4606209  62.5951500  49.6866875  31.1950645  62.8197136
  46.1997375  30.1093369  61.5713310  45.8861198  30.2662563  62.7722282
  45.5942116  29.2929897  60.7355576  45.9645424  29.3182697  59.7962418
  44.4936523  28.3253441  61.1860542  44.9041786  27.8459320  62.0747223
  43.1432762  28.9360790  61.4694672  43.3698120  29.9632912  61.7551575
  42.1284637  29.1118279  60.3428497  41.1693459  29.4288445  60.7523537
  42.4625893  29.8852806  59.6513100  41.8556366  28.1920357  59.8255005
  42.3920822  28.3701172  62.5092773  42.0269547  27.5101948  62.2883263
  44.3444786  27.2537880  60.1329308  44.3388023  27.4765091  58.9319496
  44.3452644  25.9697456  60.6157074  44.1505852  25.7734184  61.5871277
  44.3485222  24.8138390  59.7008247  44.5323334  25.1471577  58.6794472
  45.3885880  23.7960873  60.1513557  44.9928322  23.2685242  61.0191994
  45.6348076  23.1069546  59.3435326  47.0019035  24.6243038  60.6767426
  46.4236259  24.8867435  61.8521652  42.9834061  24.1790390  59.6011009
  42.5294380  23.4677658  60.5223236  42.3022995  24.2697601  58.4328461
  42.7200089  24.7990322  57.6808548  41.0024757  23.6652031  58.2141266
  40.4821358  23.8501358  59.1538849  40.1931152  24.2916584  57.0242577
  40.7923851  24.3455296  56.1153717  39.2965889  23.6827888  56.9075546
  39.7365303  25.7477589  57.2739487  38.8495598  25.8745441  56.6532135
  39.4119682  25.8035526  58.3130112  40.9966507  26.9852314  56.9517937
  41.1923866  26.8384476  55.0764885  41.1714249  25.7865906  54.7914505
  40.4859390  27.4587727  54.5249176  42.1887321  27.2268734  54.8654785
  41.0669556  22.1396561  58.0098305  42.0770607  21.5292702  57.8259010
  39.9298210  21.4031105  58.0207748  39.0954285  21.8537540  58.3683624
  39.7683029  20.0512505  57.5275993  40.7588615  19.6148643  57.6559029
  38.9456863  19.2665329  58.4523392  39.2141571  19.5557079  59.4684105
  37.9131966  19.6154480  58.4342880  39.0593529  17.7432728  58.2006836
  38.1225586  17.2777863  58.5070229  39.2679520  17.4775105  57.1643677
  40.1260033  17.0645752  59.1132431  39.8545494  16.6989708  60.2529793
  41.3587914  16.8548584  58.6672821  41.6395607  17.0414486  57.7151985
  41.9851608  16.4125080  59.3246155  39.4404678  20.0272350  56.0312996
  38.4872437  20.6234722  55.5168304  40.2067528  19.2009659  55.3488274
  41.1290359  18.9698429  55.6895294  39.8884811  18.8196392  53.9584274
  39.7769127  19.7509308  53.4031334  41.0839882  18.0828075  53.3640251
  41.9919739  18.5546341  53.7395859  41.1692162  17.0595760  53.7298546
  41.1472855  18.0639000  51.8472710  41.6935158  17.2050133  51.4573479
  40.1430206  17.9237213  51.4473915  41.6319885  19.3804626  51.2438889
  42.5569153  19.3540020  50.3753433  41.2033195  20.5006123  51.6115685
  38.6523094  17.9572296  53.8145523  38.4338341  16.9919777  54.5511284
  37.9413071  18.2197895  52.6779366  37.9348602  19.1811733  52.3684235
  36.8963470  17.3017769  52.1985931  36.3365440  17.0368443  53.0955544
  35.8961945  17.9843941  51.3426704  35.0997543  17.3072891  51.0339432
  35.4104233  18.8130894  51.8578415  36.5100861  18.5389843  50.1009903
  37.3835564  19.1272602  50.3822060  37.0233498  17.7532558  49.5466499
  35.4883804  19.3890610  48.9256210  34.0770264  18.3086300  48.5875473
  33.3165855  18.9611797  48.1585999  34.3040619  17.4640026  47.9370384
  33.6851540  17.9187641  49.5269814  37.4219246  15.8966427  51.7364807
  38.3540688  15.7932281  50.8928375  36.9604912  14.7673788  52.2414932
  36.3218689  14.7996531  53.0232964  37.3233566  13.4209976  51.6266518
  38.3948669  13.5199175  51.4529419  37.2030449  12.2669115  52.7102432
  37.8974266  12.5489912  53.5016747  36.1791840  12.2758799  53.0840530
  37.4578934  10.8804255  52.1564560  38.3740845  10.6912088  51.3145866
  36.9364815   9.8582602  52.6739120  36.5988121  13.1919823  50.2993393
  35.4098511  12.9360332  50.3710480  37.3692360  13.2544165  49.2448540
  38.3644524  13.3049278  49.4094429  36.8748932  13.2285767  47.8320999
  35.7901993  13.1952763  47.9342384  37.1583900  14.5394945  47.1088181
  38.0932426  14.9729357  47.4641762  37.1165619  14.4990911  45.6202888
  36.1738739  14.1163664  45.2291832  37.1972313  15.4935923  45.1814690
  37.9803352  13.9169502  45.2991791  36.0489311  15.6168747  47.4816780
  36.3758392  16.5829792  47.0971260  35.1013451  15.4858418  46.9591713
  35.9652901  15.7586031  48.5591812  37.3277016  12.0039062  47.0045471
  38.4073677  11.3509455  47.1026421  36.3632050  11.4692230  46.2062798
  35.4508896  11.8898125  46.3106003  36.4941330  10.2337189  45.4456558
  37.0888634   9.5303116  46.0284309  35.1023979   9.5360317  45.2286911
  34.5157089  10.3856258  44.8792686  35.1520615   8.3486643  44.3483658
  34.1821556   7.8586669  44.2630386  35.4794884   8.7271175  43.3800354
  35.8121834   7.5944815  44.7767830  34.5849419   9.1199064  46.4720306
  34.8808670   9.7356606  47.1464729  37.2851830  10.4637575  44.0988922
  36.9468842  11.3770971  43.3559036  38.3518143   9.7409105  43.9546204
  38.5371513   8.9529648  44.5586815  39.3699760  10.1737070  42.9420433
  40.0936928   9.3624125  42.8636971  39.0557747  10.6032696  41.9908066
  40.3329811  11.3444757  43.3954544  41.1361809  11.7692261  42.5565720
  40.2819977  11.8594675  44.6680527  39.5066223  11.5508957  45.2369766
  41.2530212  12.8925505  45.1459465  41.5797501  13.4132996  44.2458534
  40.8222809  13.6488285  45.8021622  42.5083275  12.4224987  45.9867058
  42.6623459  11.3077116  46.4423599  43.3291702  13.3866634  46.2593307
  43.0990295  14.3423367  46.0273285  44.6047897  13.0446768  46.9105148
  44.9970627  12.1606369  46.4078255  45.6597710  14.1337509  46.7428360
  45.5015602  14.7768497  47.6085701  46.6607475  13.7394218  46.9179115
  45.7975426  14.9034185  45.4015656  44.8692970  15.4096174  45.1365852
  46.8981514  15.9219303  45.4615784  47.8702164  15.4402800  45.3557243
  46.6465912  16.5303764  44.5928917  46.7296181  16.5516872  46.3351326
  46.1786423  13.9414959  44.2705879  45.2791290  13.4003239  43.9771423
  46.5167999  14.5775890  43.4525795  47.0242271  13.3650017  44.6457405
  44.5269585  12.6065674  48.3900108  44.1533470  13.3308468  49.3094292
  45.1053696  11.3840714  48.6176643  45.4489594  10.9073019  47.7962418
  45.4358826  10.8945198  49.9986000  44.5895805  10.9349165  50.6843414
  46.0573273   9.4959145  49.9303131  46.4979019   9.2804470  48.9568825
  46.7507210   9.3312798  50.7550583  44.9843254   8.4379292  49.9895744
  45.4454308   7.4512582  50.0338364  44.4009819   8.5588608  50.9023628
  44.0145836   8.3292189  48.7579346  43.0397415   8.7967901  48.8963699
  44.3632545   8.7737389  47.8257713  43.6224251   6.8902569  48.5161743
  44.5124626   6.2878261  48.3344879  43.1723557   6.5378194  49.4442520
  42.6402740   6.6139455  47.3984795  43.0106773   7.0232925  46.5527000
  42.6586571   5.6194267  47.2232819  41.7754631   7.0855918  47.6215363
  46.4664268  11.7992163  50.6141319  47.4508400  12.1820755  50.0197906
  46.3898163  11.8210812  51.9255486  45.6763153  11.2989578  52.4138107
  47.4751205  12.3466463  52.7593231  47.0219231  12.4577475  53.7443962
  48.5734863  11.2751446  52.9790878  49.0104179  10.9213161  52.0452805
  49.3547401  11.6998520  53.6094551  48.0174561  10.0903349  53.8025703
  47.5997162  10.4192934  54.7540855  47.1644325   9.6160460  53.3172874
  49.0352516   8.9467592  53.9559250  49.3557243   8.6335926  52.9622803
  49.8623009   9.4318333  54.4743805  48.5312386   7.7325115  54.7854462
  48.5692062   8.1555700  55.7892799  47.5467911   7.4271049  54.4309196
  49.4755516   6.5962343  54.6087608  49.1572113   5.6946406  54.9341774
  49.6900673   6.3390985  53.6558876  50.2986336   6.6331725  55.1929474
  47.9959641  13.7523994  52.2800331  49.2544022  13.9115858  52.1888466
  47.1119156  14.6344910  51.9308815  46.2032318  14.5581827  52.3651352
  47.3819199  15.9420166  51.3275375  48.3288803  15.8352356  50.7984238
  46.3329277  16.2411175  50.2744217  46.1058578  15.3383360  49.7073898
  45.4204140  16.4771347  50.8218803  46.9370422  17.5599918  49.0961723
  47.7730064  16.6280422  48.6297722  47.4531097  17.1711082  52.2582207
  46.6459999  17.2327499  53.1440926  48.4235039  18.0736542  52.1590729
  49.0349960  18.0036964  51.3582687  48.5279999  19.3685169  52.8205261
  47.6721268  19.3818035  53.4953651  49.6883316  19.3150120  53.7655563
  50.5975189  19.2196922  53.1719284  49.9456749  20.7217255  54.4221306
  49.0366364  21.0549927  54.9228210  50.7768211  20.6752167  55.1257858
  50.2336502  21.4339638  53.6488991  49.7048721  18.1102180  54.7673073
  49.4386139  18.5325985  55.7362251  48.9497375  17.3828964  54.4691658
  51.1072502  17.4458618  55.0302544  51.5191994  16.9809189  54.1345825
  51.7474174  18.2946053  55.2709312  51.0780411  16.7930470  55.9026527
  48.5251579  20.5316601  51.8568115  49.2604866  20.5135021  50.8692818
  47.6771469  21.5405674  52.1010170  47.0718956  21.5504322  52.9095192
  47.5322914  22.7368889  51.2727661  48.4078522  22.7724209  50.6245155
  46.2393265  22.5379562  50.4293594  45.4623489  22.8290443  51.1362343
  46.2449265  23.2249718  49.5831451  45.9852219  21.1755981  49.6747093
  46.9321709  20.8472633  49.2462387  45.7981720  20.3876152  50.4042244
  44.8453484  21.2292976  48.6192665  45.2669525  22.0010681  47.9752769
  44.7580948  20.3051453  48.0479279  43.5658760  21.6465321  49.1929092
  43.2629242  20.9333515  49.8407478  42.9709091  22.8232594  49.2985229
  43.4289894  23.8821888  48.6544762  42.8222427  24.6748676  48.5007668
  43.9571648  23.5909958  47.8443298  41.8957748  22.8894043  50.0096703
  41.3095970  23.6938343  50.1811142  41.6058998  22.0332813  50.4603653
  47.5976410  23.9829807  52.0763664  47.0925865  24.0339928  53.2177162
  48.0597267  25.0636005  51.4140358  48.4265060  24.9106960  50.4854927
  48.1868782  26.4186974  51.9553757  47.8286972  26.5395641  52.9777222
  49.6502876  26.7733173  52.0858727  50.1783791  26.6641979  51.1385994
  49.7925529  28.2695179  52.4782677  49.0952682  28.5702362  53.2602272
  50.6965790  28.4684010  53.0538406  49.8428307  28.9798641  51.6530495
  50.4193611  25.9208183  53.1000519  49.9883308  25.9478531  54.1008415
  50.4433098  24.8833618  52.7665672  51.4501419  26.2720146  53.0525970
  47.4515038  27.4490547  51.0868530  47.5889282  27.4360809  49.8783340
  46.7593422  28.4077892  51.6801987  46.6071091  28.4299278  52.6784134
  46.2517357  29.6580677  51.1285439  46.7217979  29.8088684  50.1567421
  44.7729683  29.5055885  50.9920349  44.6042519  28.8861713  50.1111526
  44.4295616  28.9674988  51.8755722  43.8483849  30.7700882  50.8498077
  42.8800659  30.3596668  51.1361847  44.1014366  31.5133896  51.6058350
  43.7385330  31.4710617  49.1935997  45.2483978  32.4394836  49.0911751
  45.1930962  32.6810799  48.0297279  45.1527061  33.3701820  49.6504173
  46.1304016  31.8028049  49.1605186  46.7088928  30.8284073  52.0062523
  46.1413689  31.0689373  53.0808334  47.6790161  31.6302624  51.4773560
  48.0137367  31.2824821  50.5901642  48.2858124  32.7154121  52.1602097
  47.9546127  32.8567657  53.1890068  49.7944107  32.6081009  52.1928062
  50.1583672  31.7894096  52.8135948  50.0839195  32.4022598  51.1623154
  50.5646172  33.9414940  52.5430984  50.2819557  34.8334427  51.9839668
  50.3873482  34.2267189  53.5800743  52.3944130  33.8377075  52.4586792
  52.7782402  33.2473755  50.7368736  52.1620407  32.4002419  50.4356117
  52.6356125  34.0033722  49.9647141  53.8371811  32.9936714  50.6880951
  47.7614212  33.9803925  51.4842567  47.5415726  34.0401306  50.2290306
  47.5953064  35.1285095  52.2388306  47.7596741  35.0025864  53.2273788
  47.3860855  36.4743843  51.7289734  47.4308167  36.5283356  50.6412277
  45.9679184  37.0116997  52.1374168  45.7576599  38.0363541  51.8308525
  44.8945351  36.1535645  51.4069519  45.0389366  35.0942764  51.6194611
  43.8924713  36.4660988  51.7006989  45.0785942  36.2620392  50.3380890
  45.7704468  36.9936600  53.4774895  45.9152374  36.0928078  53.7759895
  48.5412788  37.4199066  52.1609268  49.1830902  37.1945839  53.2243423
  48.8487053  38.4350853  51.2999001  48.2924309  38.5423737  50.4637527
  50.0784836  39.3557358  51.5466042  50.1062775  39.8399124  52.5227737
  51.3331947  38.5143051  51.4099693  51.4758072  37.7935448  52.2151184
  51.3785820  37.7539520  50.1294670  50.6004257  36.9941139  50.0571861
  51.0965767  38.3551331  49.2650833  52.3210258  37.2144547  50.0354271
  52.6152306  39.2962456  51.4230652  53.3985252  38.5476952  51.5422859
  52.8509216  39.7222366  50.4478302  52.7857780  40.1224747  52.1132507
  50.0028114  40.5898247  50.6397972  49.4372482  40.6376915  49.5567780
  50.6022949  41.6635208  51.1171570  51.0048752  41.5219231  52.0325699
  50.8802986  42.8424683  50.2500954  50.0119705  42.8981895  49.5935860
  50.7647285  44.1311226  51.0255852  49.9972878  44.1248474  51.7995987
  51.6887436  44.2563133  51.5900536  50.3707047  45.3785515  50.2233887
  51.0703888  45.3684769  49.3876572  49.3464355  45.2115211  49.8901100
  50.4557991  46.6594925  51.0372963  50.6387978  46.6907272  52.2449799
  50.1861229  47.7378693  50.4588280  49.8965683  48.5357513  51.0062294
  49.9542961  47.6146889  49.4835434  52.1748810  42.7638130  49.3725319
  53.2183075  42.2746201  49.8642044  52.1141777  43.1148109  48.0925293
  51.2193527  43.3794670  47.7060852  53.2230225  42.9668198  47.1207352
  54.1351013  43.1848869  47.6763000  53.2022667  41.5275803  46.6644897
  53.4850464  40.7977905  47.4231377  51.9348602  40.9464684  46.0017014
  51.8585510  41.4234314  45.0245705  52.1150589  39.8961067  45.7728462
  51.0718079  41.0147972  46.6639442  54.2179832  41.4044800  45.6437759
  54.6445389  40.5637207  45.8248024  53.0935173  43.8249359  45.8621330
  51.9201927  44.1541939  45.5206032  54.1210327  44.3629761  45.2822495
  54.9967194  44.0122604  45.6431961  54.0952568  45.1280746  44.0107460
  53.2494659  45.8101425  44.0975342  55.4117470  45.9633141  43.8412361
  55.1653290  46.6970482  43.0737648  55.5919685  46.5093651  44.7672234
  56.6309929  45.1509209  43.4382477  57.0588341  45.2872658  42.2578239
  57.0794144  44.3655624  44.2755051  53.9304581  44.2710800  42.7460022
  53.7069702  44.8095055  41.6089630  53.9938393  42.9540215  42.8643532
  54.0359459  42.5032539  43.7672005  53.7778549  41.9555283  41.7499390
  54.3156548  42.4365387  40.9329300  54.4598618  40.5902061  42.0912743
  53.9474754  40.0814857  42.9078331  54.3758202  39.6433640  40.9334755
  54.9811249  38.7581406  41.1286278  53.3696594  39.2804832  40.7235756
  54.7468719  40.1602669  40.0484734  55.9262848  40.7301979  42.5154228
  56.4436378  41.5282936  41.9829903  55.9466476  41.1099319  43.5369377
  56.5104675  39.8120689  42.4531937  52.2985420  41.8717270  41.1790581
  51.4394073  41.6661911  42.0292282  52.0066071  41.7634354  39.8664131
  52.9309921  42.4328308  38.9357910  53.7854118  41.8453674  38.5997086
  53.3549194  43.3369751  39.3727150  52.0149078  42.8205109  37.7909889
  52.5940666  42.8653526  36.8686714  51.5848465  43.7293205  38.2119560
  50.9479599  41.7321968  37.7832680  51.3094711  40.8660774  37.2289658
  50.0579453  42.1254349  37.2920036  50.6582756  41.3959656  39.2767296
  49.9514313  42.1414452  39.6410561  50.1332779  39.9863586  39.4627838
  50.8514023  39.0176849  39.5667763  48.7737198  39.8805161  39.4695930
  48.1604919  40.6204605  39.1588936  48.0729828  38.6339493  39.9241829
  48.3832436  38.4593277  40.9543991  46.6179581  38.9673576  40.0039062
  46.5303040  39.9283066  40.5108528  46.1978416  39.2158661  39.0293045
  45.6813583  37.9058800  40.7841949  45.8997955  36.8993683  40.4273834
  45.8926620  38.0382385  41.8452950  44.1776848  38.2874489  40.6807480
  43.6445198  38.1851044  39.5731087  43.5031357  38.7273216  41.6939201
  43.9973450  38.8181458  42.5700531  42.4949303  38.7593002  41.6429443
  48.3420982  37.3560104  39.0889854  48.2386780  36.2449150  39.5902710
  48.8641510  37.5246735  37.8820229  49.0423317  38.4460640  37.5086670
  49.3754120  36.4514656  36.9678574  48.9442253  35.4903793  37.2480431
  48.9733810  36.8313370  35.5519676  49.1461868  36.0617180  34.7996902
  47.9042931  37.0209618  35.4560966  49.6769714  38.0913544  35.0869980
  49.2534332  39.2267418  35.3522682  50.7991905  37.8990669  34.5622215
  50.8354416  36.2022972  37.1555443  51.2779045  35.0838661  37.0027428
  51.6413918  37.2490387  37.5757751  51.2810860  38.1440887  37.8743858
  53.1556969  37.0876617  37.8458252  53.4789009  36.2992592  37.1660767
  53.8690224  38.4245338  37.5952797  53.6744614  39.0599174  38.4593048
  54.9376411  38.2408295  37.7066879  53.5779457  39.0828400  36.2890930
  53.9588318  38.5191498  35.4374580  52.5119667  39.2227402  36.1096039
  54.2599182  40.4385910  36.1961288  54.9560928  40.9386368  37.0583305
  54.1767731  41.0383759  34.9775505  53.6815109  40.6716919  34.1773262
  54.6379547  41.9281921  34.8524933  53.4992523  36.4902458  39.2729797
  54.5206718  35.9434738  39.5528069  52.4924316  36.4894638  40.1734238
  51.6624031  37.0504684  40.0452576  52.4567566  35.6681633  41.3757744
  53.2933655  35.9305534  42.0233383  51.1023674  35.8429985  42.0193443
  50.2454224  35.4907303  41.4451904  51.0623550  35.0150375  43.3220596
  51.8536720  35.2820663  44.0225067  50.1955795  35.2390022  43.9438667
  50.9127846  33.9528122  43.1286583  50.9157753  37.3229370  42.4322243
  50.6031570  37.9578133  41.6031876  50.0174789  37.4454994  43.0373154
  51.9767227  37.9957314  43.2625122  52.1064606  37.6684532  44.2940941
  52.8903809  37.9640617  42.6689415  51.7866287  39.0658531  43.3450012
  52.6231956  34.1609573  40.9695396  52.1792374  33.7295074  39.9063072
  53.3631287  33.3738670  41.7256432  53.6348534  33.6598930  42.6554031
  53.7543221  32.0241280  41.4157829  53.4760284  31.8143635  40.3829956
  55.2855568  32.0179520  41.4296150  55.7193909  32.3292961  42.3798523
  55.6069984  30.9787807  41.3595695  55.8587074  32.7037392  40.1125221
  55.3941422  32.4344025  39.1639786  55.6367226  33.7631416  40.2409477
  57.4315872  32.5480843  40.1519737  57.8427048  32.7361336  41.1438026
  57.5906525  31.5258064  39.8088226  58.0762672  33.4250412  39.2522507
  57.4815254  34.1582565  38.8933907  59.1066132  33.2538681  38.4307022
  59.7749290  32.1528320  38.3970032  60.4951668  32.1564217  37.6889458
  59.6052361  31.4127064  39.0629768  59.4651375  34.2451248  37.6449471
  59.0032196  35.1248665  37.4638672  60.2617302  34.0904388  37.0436020
  53.1231613  31.0787163  42.4416008  53.5354271  30.9532051  43.5693970
  52.1419411  30.3253269  42.0423622  51.8071213  30.5102978  41.1076012
  51.5746307  29.2352028  42.8593750  51.6365738  29.5284958  43.9073486
  50.0308304  29.1178055  42.6462402  49.8845825  28.5745468  41.7126541
  49.5563927  28.5063190  43.4137650  49.2667656  30.4540443  42.5570259
  48.9715157  31.3270435  43.6536179  48.3961868  32.3446465  43.0640526
  48.0098991  33.1993713  43.5994263  48.4587898  32.3208580  41.7185593
  47.9725494  32.8960457  41.0456314  48.9471512  31.0864887  41.3889580
  48.9644165  30.6006527  40.4245567  52.2821693  27.8889008  42.5423317
  53.0429726  27.7269230  41.5750618  52.3350525  27.0312061  43.5721779
  51.6936913  27.0220261  44.3523521  53.4048309  25.9971619  43.6152306
  53.9560509  25.9003963  42.6798744  54.5125885  26.3799267  44.6520042
  54.0245209  26.5150490  45.6172180  55.5853615  25.2888527  44.7774925
  55.9634247  25.0021896  43.7961731  56.2897224  25.5892563  45.5532074
  55.1031876  24.3885555  45.1583862  55.2405510  27.6498051  44.2079201
  54.5535431  28.4957142  44.1842270  56.0347443  27.8747559  44.9197845
  55.7590141  27.5632515  43.2530289  52.7017937  24.6374302  43.9914169
  52.0432281  24.6853943  45.0350533  52.9801712  23.5611000  43.2540321
  53.6491852  23.6408939  42.5016022  52.2850113  22.2823677  43.3143120
  51.7197189  22.2153759  44.2438583  51.2374954  22.3542271  42.2342720
  51.6984062  22.5812817  41.2729645  50.8194351  21.3487263  42.1863174
  50.1660233  23.3448181  42.5233917  49.1395607  23.0167942  43.3608551
  49.0321541  22.0216885  43.7666054  48.1795044  24.0255108  43.7252426
  47.3362961  23.7183990  44.3261452  48.2433205  25.2312450  43.0135651
  47.3124466  26.1683655  43.2327690  46.4751472  25.7217331  43.3778343
  49.2547493  25.5144520  42.0904198  49.3027306  26.4650421  41.5800514
  50.2458611  24.6296711  41.8675995  50.9892464  24.8238277  41.1086006
  53.2433853  21.1473942  43.2021255  53.9637260  20.9284744  42.1879349
  53.3056450  20.3887787  44.3496513  52.6170464  20.5995407  45.0578270
  54.4201164  19.5282841  44.6480980  55.0857887  19.4597759  43.7876968
  55.2025414  20.0829620  45.8221550  54.6398277  19.9625168  46.7478714
  56.0090294  19.3591976  45.9398384  55.7878647  21.5552635  45.8065720
  54.9617043  22.2504330  45.9559135  56.8306923  21.8501644  46.8183556
  57.7427559  21.2600422  46.7289200  57.0775948  22.9112282  46.8540154
  56.3082809  21.6859932  47.7608147  56.6009254  21.8782749  44.4765434
  57.4854012  21.2527580  44.3559723  56.0698204  21.6605377  43.5499268
  56.8530540  22.9386330  44.4634323  53.9620781  18.0700951  44.9384155
  52.8437042  17.7949104  45.3202133  54.8595543  17.1136665  44.8785095
  55.7269325  17.3666630  44.4271202  54.7228317  15.7244854  45.2349129
  55.7062683  15.3249025  44.9873581  54.5660172  15.5316811  46.6957703
  53.6891136  16.1014729  47.0031395  54.2563782  14.5272684  46.9845276
  55.6466713  15.8643475  47.6888657  55.7173195  16.9361820  47.8740082
  55.4363747  15.4044304  48.6544495  56.9558487  15.2828884  47.1360054
  56.9663010  14.0328588  47.0148468  57.9339790  16.0460567  46.9687920
  53.6805077  15.0557337  44.3152428  53.7364922  15.2474146  43.0902328
  52.5911789  14.4285574  44.8642120  52.5630875  14.2781954  45.8625603
  51.4794426  13.9363422  44.0440063  51.8993111  13.7009840  43.0660400
  50.8176727  12.6301851  44.5544395  50.1567078  12.8484135  45.3932495
  50.2534256  12.3025455  43.6812935  51.7662659  11.6044607  44.9670792
  52.3218155  11.2337341  44.1056709  52.4886436  12.0538015  45.6485214
  51.0392990  10.4059153  45.5780640  50.6606216  10.7100124  46.5538864
  50.2162971   9.9062271  45.0671043  52.2068748   9.3986692  45.7701111
  52.6357002   9.0303898  44.8381348  52.9466896  10.0003347  46.2980995
  51.8623619   8.2790442  46.6659393  51.5482483   8.7991619  47.4727287
  51.0888824   7.7493587  46.2900772  52.6875381   7.7410722  46.8890305
  50.4779396  15.0393906  43.6317291  49.5415535  14.7569075  42.8763466
  50.7005424  16.2450523  44.0733795  51.4056091  16.4521885  44.7662582
  49.8102112  17.3483524  43.8437233  48.8463707  16.9093857  43.5859871
  49.5645409  18.1973591  45.1353188  49.0667305  17.6070023  45.9045868
  50.5150452  18.6384850  45.4353943  48.8785667  19.0023365  44.8715973
  50.1434593  18.2717571  42.5782242  49.2677956  19.0172691  42.1886826
  51.3588791  18.2070522  41.9291458  52.0293617  17.4920158  42.1726189
  51.6296082  18.8828316  40.6409187  51.7137222  19.9438915  40.8758163
  52.9981956  18.4343224  40.0999374  53.8140831  18.5807209  40.8077507
  53.0701027  16.9195862  39.9194489  52.8871498  16.4133472  40.8672638
  52.2375908  16.6671734  39.2627029  54.0278168  16.6641922  39.4659538
  53.3753395  19.1629658  38.7487602  54.3990326  18.9252052  38.4595680
  52.7573814  18.7979431  37.9284058  53.3993912  20.2238560  38.9978256
  50.5861931  18.7536278  39.5818100  50.2888908  19.7321186  38.9552498
  49.8469467  17.6208553  39.4949265  49.9945221  16.8930798  40.1795197
  48.7390175  17.5735016  38.5910301  49.1581917  17.7706757  37.6043625
  48.2059631  16.1143036  38.4923019  49.0471420  15.4215937  38.5182343
  47.3898125  15.6932669  39.7560577  46.4632912  16.2665939  39.7870331
  47.2069092  14.6197462  39.8030167  48.0073090  15.8606758  40.6385384
  47.4309158  15.6634769  37.2782097  47.1645966  14.6067505  37.2558098
  46.4244308  16.0812073  37.3024063  48.0211601  15.9363031  36.4034081
  47.5921669  18.5185146  38.8051796  46.9260597  18.9517689  37.8659325
  47.3864059  19.1387405  39.9830170  48.0219650  18.9070778  40.7330132
  46.4025955  20.2023449  40.2486687  45.3502922  20.0021381  40.0469933
  46.4765053  20.4518776  41.7040558  47.4489479  20.8826103  41.9426384
  45.6639023  21.1375523  41.9441147  46.2180405  19.4476719  42.7611847
  46.9589577  18.6513519  42.8319893  46.3071404  20.1142178  44.0958557
  46.0416451  19.3663750  44.8430748  47.2938652  20.5239010  44.3118019
  45.5667267  20.9003849  44.2436066  44.7734642  18.7757149  42.7058144
  44.1074982  19.5730190  42.3758240  44.8561745  18.0970917  41.8568535
  44.5475006  18.2571468  43.6375504  46.7148361  21.5632782  39.6281204
  45.9260025  22.4243393  39.8515549  47.9424477  21.8114014  39.0777397
  48.5888214  21.0373802  39.1342430  48.4579391  23.1429501  38.7366714
  48.5114288  23.7671032  39.6286774  49.8159523  22.9194126  38.0739594
  50.3205452  23.8579502  37.8445396  50.5591698  22.4403152  38.7112923
  49.6630630  22.0838509  36.7344398  49.0786209  21.1847820  36.9298897
  49.0016861  22.6551304  36.0830421  50.9208260  21.7536869  35.9207878
  51.8065109  21.5468636  36.5215302  50.6575890  20.9186916  35.2714920
  51.3549690  22.9073219  35.1456184  51.6590576  23.7084808  35.6801987
  51.3065414  23.0377731  33.8481331  50.8179779  22.1330490  33.0318680
  50.4903564  21.2742081  33.4503860  50.7177162  22.2324028  32.0317802
  51.7016754  24.2269802  33.3251839  52.0887718  24.9438629  33.9221230
  52.1212921  24.3032360  32.4096489  47.4378052  23.8431568  37.7881050
  46.6285095  23.1707249  37.1077690  47.3967438  25.2071304  37.8898392
  48.3539886  26.1071262  38.6987038  49.4124298  25.8786888  38.5737305
  48.1212044  25.9582157  39.7530975  47.9134483  27.4662743  38.2238121
  48.5428810  27.8095589  37.4027939  48.1094246  28.1335945  39.0630875
  46.4406395  27.3843498  37.8762970  46.0056381  28.1805115  37.2721443
  45.8434029  27.3305874  38.7865295  46.2886848  25.9989376  37.2569656
  45.2973518  25.5979061  37.4679909  46.4852104  26.1433754  35.6854706
  45.5320625  26.6729374  35.0352325  47.5690002  25.6275177  35.1473389
  48.2307358  25.2298737  35.7985649  47.7476120  25.4443493  33.7371826
  48.8311577  25.3701134  33.6448860  47.0948486  24.1013260  33.3016205
  47.5119705  23.2939281  33.9034691  46.0469780  24.1298199  33.6003685
  47.4115639  23.7512074  31.8455906  46.6972275  22.8277931  31.3639278
  48.3773918  24.2212715  31.2351952  47.4373817  26.7158318  32.9394646
  46.5952530  26.7611485  32.1089249  48.1140785  27.8355103  33.2646523
  48.8702850  27.7532330  33.9290924  47.8179550  29.1516819  32.7861748
  46.7824860  29.3053780  33.0899582  48.6756134  30.1969986  33.5095978
  49.6363182  30.0223484  33.0251999  48.3350487  31.2214909  33.3594666
  48.9839897  30.0536118  35.0108833  49.3389893  29.0476971  35.2349663
  50.0108719  31.0840263  35.4168053  49.5592117  32.0715218  35.3221931
  50.3060303  30.8356323  36.4362564  50.7777405  31.0033073  34.6464119
  47.6712151  30.2902718  35.8027458  47.0207329  29.4394188  35.6001701
  47.1850281  31.2096004  35.4763145  47.8719368  30.3661709  36.8714142
  47.9083290  29.3012409  31.2673721  48.8398819  28.8543491  30.5965824
  47.0014915  30.0632019  30.6963177  46.3254433  30.5576077  31.2607861
  47.0798149  30.2948055  29.2492599  48.0793724  30.4607773  28.8474693
  46.3925705  29.1490479  28.5527115  46.8266792  28.1622524  28.7135963
  45.3507500  29.0891953  28.8675690  46.3551292  29.3291359  27.1104126
  46.5327530  28.4551125  26.7552605  46.3911095  31.6115799  28.8993931
  45.3535309  32.0716858  29.4029121  46.9705696  32.2579117  27.8622189
  47.9004097  32.0826569  27.5089722  46.4849968  33.4901543  27.2378998
  46.4636269  34.2452698  28.0236759  47.3590813  34.1092033  26.2381077
  47.2272148  33.6038742  25.2813663  47.0274315  35.1197815  25.9996872
  48.8207817  34.1530571  26.5433407  49.0446663  33.1052094  26.7433167
  49.5432701  34.6478500  25.2667542  49.1707344  35.5871735  24.8581085
  49.3253021  34.0499229  24.3818398  50.6076508  34.7866631  25.4563103
  49.1909218  35.0871468  27.7040462  50.2139587  34.8327675  27.9811554
  49.0815315  36.1291618  27.4034901  48.6451836  34.9402199  28.6360817
  45.0914536  33.2781715  26.6240139  44.2563477  34.1940651  26.7500134
  44.7725677  32.0420494  26.1353931  45.3706665  31.2335796  26.2289371
  43.3838005  31.6596527  25.6491814  43.0073471  32.3831177  24.9260044
  43.3391800  30.2829647  24.9686623  42.3077774  30.2408485  24.6186161
  44.3227730  30.0623245  23.7947483  44.6306229  30.9560852  23.2520504
  45.2577019  29.6359444  24.1583481  43.9536552  29.3755798  23.0330162
  43.5965157  29.2505550  25.9818783  43.2874641  28.3997841  25.6620712
  42.3090363  31.6205826  26.8214035  41.1224213  31.9290829  26.5226860
  42.6713028  31.2108002  28.0136433  43.6635475  31.0640259  28.1319885
  41.8270950  31.2789726  29.2504749  40.8053017  31.0114841  28.9812431
  42.2771454  30.2031746  30.2848854  43.2988052  30.4227543  30.5948792
  41.5319901  30.3019791  31.0742416  42.0747070  28.7776184  29.8016472
  41.0254173  28.6923542  29.5191231  42.6787720  28.5872288  28.9145412
  42.2964172  27.8180561  30.9545269  41.5112228  28.1171379  31.6488724
  42.2413063  26.7702732  30.6591988  43.6568260  28.0529041  31.6581860
  44.4467278  28.0740719  30.9073811  43.6018715  28.9632931  32.2550735
  43.9810410  26.9333515  32.6602669  44.1210976  26.0499039  32.1912231
  44.7571411  27.1747952  33.2598305  43.2532768  26.8337555  33.3534775
  41.6445541  32.7088776  29.8640060  40.8857193  32.8694229  30.7972374
  42.2894402  33.7124138  29.3050537  43.0347061  33.4689789  28.6683292
  41.8931160  35.1296349  29.3737164  41.3578491  35.3549576  30.2961159
  43.1018333  36.0538750  29.4710960  43.6323547  35.9577942  28.5237770
  42.6950073  37.0629044  29.5378399  43.9777145  35.7958145  30.6356297
  43.5251007  35.2742424  31.6967602  45.2495461  35.9866180  30.4364719
  45.5548401  36.3965149  29.5653343  45.8726540  35.9085159  31.2275047
  40.9995766  35.6446381  28.1721268  40.1304970  36.4820328  28.3546257
  41.2685432  35.1282959  26.9557037  41.7591057  34.2454758  26.9462547
  40.6970177  35.5741158  25.6846523  40.4576759  36.6366425  25.7278023
  41.7970886  35.4956512  24.6171722  42.0805359  34.4438667  24.5783634
  41.3662605  36.0633316  23.2914982  42.2006531  36.3142128  22.6365585
  40.7088776  35.2940712  22.8862915  40.9286537  37.0581017  23.3753471
  42.9843407  36.1628342  25.0363712  43.3754387  35.6129265  25.7191925
  39.3687134  34.8668900  25.3668365  38.7601509  35.1339073  24.2947273
  38.8341827  34.0208893  26.2573452  39.4691849  33.6731339  26.9615726
  37.4786758  33.4428711  26.0989227  37.3861961  33.2106247  25.0379734
  37.3432999  32.2539406  26.9779968  38.0048981  31.5312119  26.5004482
  37.7066345  32.5851440  27.9508228  35.8774490  31.7933178  27.1288643
  35.8833923  31.0720158  27.9460487  35.1094627  32.5211830  27.3906155
  35.2832565  31.0140820  26.0026035  34.8029480  29.8741798  26.2761612
  35.2448845  31.4383163  24.8232613  36.3773575  34.4407387  26.3876667
  36.6046677  35.3440323  27.2407875  35.3909340  34.3870926  25.4822483
  35.3332748  33.5907936  24.8636341  34.1501656  35.2423096  25.5316887
  34.0509949  35.8333321  26.4421577  34.1666336  36.3495750  24.4147358
  34.4502831  35.7771835  23.5315533  33.1386909  36.6786728  24.2626629
  35.1275902  37.5625076  24.4925137  36.1915359  37.3344612  24.5566597
  35.0137367  38.2859001  23.1321659  35.5145264  39.2489891  23.2310123
  35.5894814  37.7378845  22.3863144  34.0084877  38.4368858  22.7387409
  34.7439842  38.4482498  25.7031231  35.4956818  39.2259941  25.8378544
  33.7583389  38.9084816  25.6338902  34.9285316  37.8415604  26.5896740
  32.8514290  34.3773994  25.5464230  32.4113007  34.1232224  26.7003212
  32.1121407  34.3034172  24.5267715  44.5585175  52.1555405  54.0446777
  44.4902878  53.1494865  54.2105675  45.2648201  51.9849739  53.3431473
  43.6798439  51.8327560  53.6654015  44.9263039  51.4861717  55.2587509
  45.9196129  51.8455620  55.5275917  43.9855309  51.9118195  56.3564720
  44.0613937  52.9908981  56.4903603  42.9582977  51.6432266  56.1099892
  44.2942390  51.2182579  57.7309608  44.0288506  50.1808701  57.5272598
  45.3554497  51.1935844  57.9785995  43.2921982  51.8352432  59.1355247
  44.0435524  53.5320854  58.9878578  44.1618156  54.0397148  59.9451599
  45.0653191  53.5075073  58.6090584  43.3844757  54.1792107  58.4091110
  44.9282455  50.0319786  55.0977859  44.1358910  49.4123840  54.4642677
  46.0750504  49.4181786  55.4300461  46.8057022  49.8840942  55.9488602
  46.4096069  47.9979630  55.2799568  46.3652077  47.7683449  54.2153397
  47.9219475  47.8034286  55.7506485  48.6783714  48.2342224  55.0946426
  48.0595474  48.1800461  56.7642212  48.3962746  46.3311615  55.9387970
  49.4491425  46.2754173  56.2153130  47.8896523  45.8416138  56.7705269
  48.3717804  45.2539635  54.4421959  49.2285957  43.8983612  55.2154617
  48.5129204  43.5595779  55.9645500  49.5638313  43.1367226  54.5114517
  50.1917648  44.1101952  55.6797180  45.4507675  47.0040817  55.9748306
  44.8633308  47.4152527  56.9381294  45.2908897  45.7435837  55.4934998
  46.0377617  45.3709831  54.9247665  44.3974266  44.8553581  56.1942635
  43.8174171  45.3724098  56.9586906  43.3844566  44.2227936  55.2596054
  42.8364220  43.4201698  55.7531166  42.4095650  45.2846565  54.7823143
  41.5559120  44.9504585  54.1926613  41.8850594  45.7831879  55.5974579
  42.9482956  45.9951668  54.1553764  43.9557495  43.4709015  54.0762215
  44.3784790  44.1490250  53.3349037  44.7746162  42.8636208  54.4619141
  42.9897919  42.3718033  53.4871712  43.6209564  41.7035675  52.9013405
  42.4570084  41.8433418  54.2777214  42.3235130  42.8822441  52.7917366
  45.1609688  43.7824669  56.8240051  46.1622963  43.3141060  56.2878265
  44.6725311  43.3381119  58.0123749  43.8299789  43.7886429  58.3398361
  45.4778976  42.4185181  58.8410034  46.2790947  42.0422707  58.2049065
  46.0228157  43.2663002  60.0595131  45.2068672  43.7882156  60.5594444
  46.4513893  42.6028557  60.8106918  47.0436859  44.3015976  59.5669670
  46.7059326  44.9668846  58.7723503  47.2981110  44.9427147  60.4109688
  48.3145485  43.5076637  59.1364594  48.6587334  42.8342819  59.9214363
  48.0430069  42.9144554  58.2632637  49.4621315  44.3705406  58.8257065
  49.3495941  45.3729401  58.7743721  50.6199684  43.9115562  58.3414650
  50.9306030  42.6581383  58.2075653  50.3809929  41.9657822  58.6961021
  51.8071251  42.4452858  57.7531395  51.5295181  44.7561836  57.8940086
  52.4254570  44.2957420  57.8205757  51.4024963  45.7576065  57.9274864
  44.6456718  41.2670326  59.3245964  43.4425926  41.5092278  59.5441513
  45.1814613  40.0675316  59.5311165  46.0840912  39.7778244  59.1826477
  44.5664368  39.0219345  60.3429604  43.5762749  39.0943985  59.8930397
  44.8664017  37.9912605  60.1536789  44.6578865  39.2905579  61.8578262
  45.5188446  40.0804291  62.2950630  43.7441559  38.6269951  62.5697937
  42.8911133  38.2922363  62.1451111  43.7079697  38.5098228  63.9990196
  44.6834717  38.6763382  64.4559250  42.6410484  39.4759369  64.6346588
  41.6915436  39.3740845  64.1091461  42.4055748  39.1565628  66.1250610
  41.9704323  40.0345688  66.6024094  41.7298698  38.3331680  66.3564758
  43.3991203  39.1494255  66.5732880  43.1156578  40.9511223  64.4258347
  43.9800797  41.1200676  65.0679626  43.3632431  41.0234070  63.3667831
  42.0937195  42.0746841  64.7584915  41.1203041  41.7657356  64.3775482
  41.9832954  42.2456665  65.8293152  42.4080467  43.0215569  64.3194809
  43.2931633  37.0358925  64.2676926  42.2445183  36.5889435  63.6705437
  43.9671173  36.3087234  65.1474915  44.7834930  36.7120323  65.5844955
  43.4371910  34.9937859  65.7683563  42.7014275  34.5520592  65.0963211
  44.6181259  34.0385246  65.7818909  45.5581436  34.4849243  66.1062164
  44.4450989  33.2845345  66.5497971  44.7582893  33.3656425  64.3684387
  44.9990082  34.1196938  63.6190643  45.6671143  32.7683754  64.2948074
  43.7178040  32.4307823  63.8290901  43.0613174  33.0646858  63.2330246
  44.0885124  31.8024616  63.0192184  43.0367355  31.6288338  64.8564377
  42.1443939  31.9360619  65.2162018  43.6049881  30.5755081  65.4111710
  44.6644859  30.0428352  65.0862961  44.9559059  29.1504688  65.4589386
  45.0653000  30.4129238  64.2363052  43.0171623  30.0436211  66.3976593
  43.5385437  29.2931271  66.8278046  42.2552185  30.4491215  66.9221725
  42.7057076  35.0592804  67.0948181  42.8903046  35.9846497  67.8654175
  41.9664497  33.9712219  67.4157257  41.9786949  33.2370987  66.7221756
  41.5037003  33.5783501  68.7497864  42.4449348  33.6386375  69.2961731
  40.7778358  34.2265244  69.2407990  41.1695290  32.0609207  68.8793030
  40.9220963  31.3655910  67.8421707  41.2913437  31.5920334  70.1078262
  41.5841103  32.2529411  70.8132248  40.8088875  30.2781429  70.5318298
  40.1331329  29.9268456  69.7520523  41.9198723  29.2377357  70.5352402
  41.4691238  28.2679844  70.7462158  42.3662643  29.3011417  69.5428619
  42.6818008  29.5660934  71.2421570  40.2179298  30.2357521  71.9963837
  40.6368866  30.9441776  72.9522629  39.1738548  29.4340210  72.1421204
  38.8008423  28.9631405  71.3301926  38.4548111  29.2205982  73.3776855
  39.2042465  29.4054317  74.1472931  37.3968735  30.3331223  73.5207520
  37.9595070  31.2650890  73.4661407  36.3241920  30.3382492  72.4944382
  35.6999626  31.2224636  72.6232605  36.7913589  30.4830151  71.5203247
  35.6929932  29.4535160  72.5777206  36.7462502  30.1855259  74.7459335
  36.5027084  31.0768337  75.0064240  37.9556427  27.7928333  73.4231720
  38.0608063  27.1064873  72.4571457  37.4482574  27.3561344  74.5952301
  37.3379669  27.9543896  75.4014740  36.8849792  26.0683098  74.8027573
  36.6669922  25.7115154  73.7961349  37.9111633  25.1490841  75.5324936
  37.4487648  24.1761971  75.6991577  39.2104263  24.9310474  74.7283859
  39.8388939  24.1444607  75.1460114  39.1175575  24.8491230  73.6454391
  39.7286530  25.8885345  74.7809219  38.2802963  25.5060425  76.8243256
  37.5293465  25.3137150  77.3906174  35.5752525  26.0328579  75.5942917
  35.3203583  26.8952579  76.4315491  34.7816048  24.9594040  75.4513245
  35.1754417  24.2810173  74.8151016  33.5804939  24.6504707  76.1960449
  33.4138947  25.3557110  77.0102844  32.3199120  24.6236629  75.2452316
  31.3446026  24.4106026  75.6828308  32.2566452  25.9232311  74.3507843
  33.1896973  26.0148544  73.7947922  31.5177326  25.8574162  73.5521774
  32.0495110  26.7982178  74.9668961  32.4130173  23.5161057  74.2118683
  31.6086826  23.4632626  73.4781342  33.3705750  23.4168034  73.7006683
  32.3105507  22.5579491  74.7213211  33.7264595  23.3277359  76.8533249
  34.4171982  22.4217091  76.3261185  33.1047897  23.1381340  78.0287704
  32.4407043  23.8585358  78.2739487  33.1367493  21.8823471  78.7516403
  34.0876656  21.3655434  78.6221085  32.8307838  21.9836998  80.2358475
  31.9143448  22.5533638  80.3898544  32.8522797  20.9936447  80.6912918
  33.8566055  22.9560738  80.9358444  33.7154579  24.0044975  80.6732025
  33.6892586  22.8693638  82.0094299  35.2393799  22.3336048  80.7802582
  36.1562462  23.0917492  80.4583740  35.3314476  21.1038742  81.0113449
  32.2326546  20.8310623  78.0775757  32.5195389  19.6535969  77.9364853
  31.0445366  21.3198776  77.6086655  30.7622070  22.2686005  77.8094482
  29.9508877  20.5290356  76.9936829  30.2528877  19.4894981  76.8661652
  28.7374744  20.3491783  77.9092712  27.9032021  19.8998775  77.3705521
  29.0883141  19.6616459  78.6788864  28.2747898  21.5867653  78.7028198
  29.0229645  21.9997635  79.3794098  27.9825287  22.4585133  78.1173706
  27.0012512  21.2121239  79.4164734  26.2227726  20.8302383  78.7559967
  27.1704597  20.3995953  80.1230698  26.4320183  22.3896236  80.0879517
  27.0267982  22.9810200  80.6506119  25.2577305  22.9363251  79.9429550
  24.1716709  22.3319874  79.5931320  24.0946846  21.3314304  79.4788513
  23.4046230  22.9831352  79.6811295  25.1105137  24.1728249  80.2736893
  25.7893906  24.7442093  80.7561264  24.1993103  24.5669231  80.4594193
  29.4250431  21.2118988  75.7237396  29.1268997  22.3880825  75.6577682
  29.3615303  20.3699970  74.6992722  29.8809395  19.5083675  74.7882080
  28.8646641  20.7699375  73.3835678  29.2190361  21.7534332  73.0749283
  29.0872822  19.6296310  72.3557281  30.1417847  19.6381798  72.0799561
  28.7780056  18.6930294  72.8196564  28.1544285  19.7696991  71.1767044
  28.4964733  20.7481480  70.4300842  27.5471687  18.8403454  70.6323547
  27.3332672  21.0316906  73.5040436  26.5424461  20.0500793  73.5094910
  26.9483967  22.3102665  73.7113800  27.6065540  23.0659218  73.8375320
  25.5722351  22.7383919  73.7365875  24.9614086  22.2167664  72.9997711
  24.9240227  22.3612556  75.0709076  24.9421692  21.2957649  75.3000412
  25.4767590  22.9270344  76.3300552  26.2504711  22.2330666  76.6585007
  25.7819386  23.9371815  76.0569763  24.7876625  22.9932327  77.1719971
  23.5490513  22.7095261  75.2092590  23.1700592  22.5285378  74.3460007
  25.4455795  24.2109871  73.4529190  26.3485050  24.9054222  73.9474640
  24.3528137  24.7203884  72.7934875  23.6181145  24.0947590  72.4953156
  24.0841599  26.1599274  72.7516174  24.9259548  26.6022301  72.2188416
  22.9921799  26.5895519  71.8179626  23.0675545  27.6690788  71.6874237
  23.1861362  26.1577930  70.8360901  21.5137558  26.3580055  72.1093597
  21.2249908  26.7024269  73.1023788  20.8917866  27.0346336  71.5233307
  20.9699001  24.9410782  71.8747025  19.7297001  24.6970978  71.9518967
  21.8195953  24.0289478  71.7460785  23.9309444  26.8486462  74.1537399
  23.9181519  28.1008549  74.2350159  23.8862057  26.1280041  75.2503433
  23.8911057  25.1322823  75.0811691  24.0053196  26.6170731  76.6278381
  23.4176693  27.5350742  76.6215057  23.4268589  25.6310215  77.6668320
  23.6346169  24.5815029  77.4583817  23.8264942  25.8261013  78.6619873
  21.8197823  25.6843605  77.7253113  21.3855495  26.6632805  77.9284286
  21.5437107  25.2401142  76.7690048  21.2347221  24.6974812  78.7563324
  21.8209820  23.6202908  79.0285263  20.0827980  24.9745312  79.1556931
  25.4194088  27.0231686  76.9828262  25.5946064  27.7231483  78.0195541
  26.4790630  26.6681194  76.3065796  26.2745037  26.0654793  75.5223083
  27.8330669  27.1711960  76.5014114  27.7699051  27.9585667  77.2525177
  28.7423954  26.0069389  76.9928284  28.8512363  25.2828903  76.1853638
  29.7330818  26.4432087  77.1205673  28.3263550  25.3475304  78.2605972
  27.4402180  24.7734890  77.9897919  29.1658993  24.7224083  78.5647125
  28.0905647  26.3160477  79.4668884  27.7428894  25.8205223  80.5469818
  28.6066589  27.4590168  79.5291595  28.5059109  27.8555298  75.2337265
  29.1261616  28.9591141  75.4856339  28.2986717  27.2450638  74.0529633
  27.8145657  26.3590012  74.0277710  29.0408630  27.5844784  72.8316269
  30.1192932  27.5376377  72.9829407  28.7595463  26.5991020  71.6554108
  27.6777210  26.5804729  71.5234451  29.3295670  27.1288071  70.2871780
  29.7952099  26.3302040  69.7096863  28.6409321  27.7294254  69.6929245
  30.1923199  27.7437363  70.5433426  29.1634884  25.1503143  72.0022736
  30.2154789  25.1144009  72.2853394  28.7352715  24.7731781  72.9309845
  28.9040031  24.0580139  70.9560013  28.9797401  23.0888748  71.4490738
  27.8628674  24.1716518  70.6539612  29.6819611  24.2294559  70.2120285
  28.8518600  29.0449562  72.4404449  29.8373852  29.7507973  72.1503754
  27.5811939  29.5271130  72.3722382  26.7871914  29.0702934  72.7976532
  27.2819042  30.9691372  71.9750900  27.6891060  31.1713963  70.9844437
  25.7872219  31.1896400  71.8160706  25.3258610  31.2300014  72.8027878
  25.6438198  32.2054825  71.4478226  25.0981655  30.2634754  70.7841187
  25.0751190  29.2676735  71.2267761  23.6851826  30.7280350  70.5133514
  23.6365643  31.7070446  70.0366211  23.1628609  30.0486088  69.8398132
  23.0881081  30.6612701  71.4228287  25.8830814  30.0103035  69.5179062
  25.1478806  29.5547485  68.8545303  26.2958584  30.9246349  69.0916290
  26.7303581  29.4014130  69.8333054  27.8661537  32.0736618  72.9073257
  28.6544514  32.8505363  72.4670868  27.6188736  31.8864689  74.2074585
  27.0388279  31.1231441  74.5252304  28.2687149  32.6809006  75.2432861
  27.9606934  33.6885605  74.9642792  27.5691700  32.2948914  76.5307312
  26.4808998  32.2952499  76.4693527  27.7764378  31.2423458  76.7238617
  27.9664803  33.2626953  77.6757507  28.1319427  32.6779404  78.5806198
  28.9173260  33.7424965  77.4438400  26.9790535  34.3318863  77.9141388
  26.8480339  35.2475586  77.1283264  26.1610909  34.3209953  78.9142532
  26.1101017  33.5620422  79.5787048  25.4581470  35.0461540  78.9250259
  29.7667446  32.6734657  75.2489700  30.4036789  33.7484245  75.3977051
  30.4841461  31.5199490  75.1515503  29.9457436  30.6718826  75.0466385
  31.9535255  31.5834179  74.9388351  32.3839722  32.1649590  75.7540817
  32.6200943  30.1937618  75.0485687  31.9004326  29.3985310  74.8541641
  33.3414955  30.0842724  74.2388153  33.3200989  30.0036602  76.4041138
  33.7937775  29.0219879  76.3971786  34.0222244  30.8031864  76.6404953
  32.4381599  30.0803108  77.6343002  33.1202240  30.1565628  78.4811096
  31.8785400  31.0151367  77.6022949  31.3957653  28.9537907  77.8447266
  30.6549892  29.0775051  77.0547638  31.8416157  27.9845600  77.6213226
  30.7977009  28.9696312  79.2269669  31.4870110  28.8912926  79.9610062
  30.3604469  29.8513813  79.4537506  30.0430260  28.2994442  79.2645798
  32.3744392  32.2742004  73.6344528  33.3124237  33.1324081  73.6774750
  31.6155014  32.0832558  72.5739670  30.9216557  31.3493328  72.5799255
  31.8484764  32.7772980  71.2935791  32.8336372  32.6078148  70.8590317
  31.0290508  32.2135582  70.1752548  29.9802284  32.4620895  70.3374405
  31.5118427  32.5887947  68.7617493  30.6103592  32.5290718  68.1519470
  31.8189487  33.6303558  68.8563004  32.2651329  31.8472347  68.4957733
  31.1154346  30.7933311  70.1497345  30.5630932  30.4368000  70.8493118
  31.6701202  34.2619553  71.3609009  32.4918175  35.0486832  70.8086090
  30.6483879  34.7809029  72.0521317  30.0425816  34.1671524  72.5778809
  30.3717823  36.2383080  72.3396912  30.3984261  36.8926735  71.4683762
  28.9676495  36.3978043  73.0687027  28.2871571  36.0350456  72.2983475
  28.9426460  35.8031921  73.9818878  28.6292267  37.8129311  73.3902206
  29.3604736  38.1631546  74.1187286  28.5636482  38.4604988  72.5158844
  27.2356453  37.8727760  73.9850235  26.5279388  37.3943367  73.3080063
  27.1539249  37.3323021  74.9280548  26.7257805  39.3296204  74.2374954
  26.8412209  39.8762131  73.3015442  25.6448498  39.3212090  74.3775482
  27.3111496  39.8948250  75.4217758  28.2728901  40.1834145  75.3127899
  26.8081741  40.7359047  75.6661224  27.1702995  39.3079338  76.2316055
  31.4930134  36.7481308  73.2082596  32.0281868  37.7851410  72.9303360
  31.8480453  36.0013237  74.3223572  31.2114754  35.2438889  74.5252686
  32.9600334  36.3282471  75.2276230  32.8164787  37.2925835  75.7150192
  33.2051697  35.2510986  76.3705063  33.1879158  34.2484245  75.9433594
  34.1997528  35.2691689  76.8161316  32.1143837  35.3107872  77.4321289
  32.1828613  36.2609520  77.9618378  31.1501465  35.3464432  76.9251022
  32.1469154  34.2233772  78.4991455  32.9972305  33.3179054  78.4752884
  31.2860489  34.2962837  79.5273743  31.5741138  33.7969513  80.3567047
  30.7129498  35.1246490  79.6013260  34.2459297  36.5815697  74.4373016
  34.9818535  37.5046883  74.7166824  34.4087601  35.7599640  73.3949738
  33.7689819  34.9805756  73.4527512  35.6618881  35.7900429  72.6090240
  36.4695778  35.8880463  73.3343735  35.9172478  34.4622459  71.9130630
  36.1187134  33.6795235  72.6444016  34.9250870  34.2853928  71.4978027
  36.9221992  34.4612923  70.7712250  36.7027168  35.2476807  70.0490570
  38.3883553  34.5831604  71.2166901  38.8785362  33.7122803  71.6518936
  38.9424553  34.7671509  70.2962418  38.4599190  35.5134392  71.7802124
  36.7363968  33.1883354  69.9692841  37.0274506  33.3776855  68.9360733
  37.3455048  32.3580093  70.3265610  35.7057304  32.8413239  70.0428925
  35.6756592  36.9353561  71.6306839  36.6484833  37.6751823  71.5934372
  34.5811081  37.2182426  70.9082489  33.7862358  36.6013451  70.9960861
  34.5122795  38.3745079  70.0764847  35.4557610  38.3015938  69.5355301
  33.3121490  38.2667160  69.1504822  32.3970604  38.3454323  69.7374344
  33.3886719  39.1088409  68.4626770  33.3594856  36.9384232  68.3405533
  33.4628105  36.0287857  68.9321518  32.0188026  36.9484291  67.6637955
  31.8607674  37.8955879  67.1480255  32.0470848  36.1966362  66.8750534
  31.2224903  36.7403450  68.3784180  34.4912224  36.7981606  67.2244949
  35.4432945  37.1463280  67.6250534  34.4144096  35.7465057  66.9484024
  34.2285271  37.5454712  66.4757538  34.6415138  39.6724625  70.8827820
  35.3467064  40.5941124  70.4696503  33.9511490  39.7935753  72.0236053
  33.2624435  39.1446304  72.3766708  33.9703941  40.8897476  72.9260635
  33.7922096  41.7734070  72.3132858  32.8990288  40.7738647  74.0234985
  32.8392067  39.7384758  74.3589020  33.1372223  41.4320526  74.8590546
  31.5380096  41.2024117  73.3724213  31.6600513  42.1451035  72.8390045
  31.2782669  40.4940453  72.5857544  30.4560127  41.2936554  74.4363785
  30.0266991  40.2763329  75.0519333  29.8835201  42.3948898  74.7285919
  35.3586159  41.1586533  73.6470337  35.7038956  42.3093338  73.9808197
  36.0671463  40.0673294  73.9064560  35.6459198  39.1494904  73.9219208
  37.4956665  40.1710548  74.2743607  37.5559196  40.9231873  75.0609818
  37.9956131  38.8626175  74.7655411  37.3118172  38.4727173  75.5195312
  38.0014496  38.1535721  73.9376984  39.4125366  38.8899269  75.2819824
  39.7121353  37.8693771  75.5203629  40.0181122  39.3501320  74.5012131
  39.5645142  39.6636505  76.5819168  39.3283348  40.6840744  76.2801590
  38.8415070  39.2931061  77.3085938  40.9722443  39.5086823  77.1939850
  41.1700668  38.5222435  77.6133957  41.6780472  39.6910133  76.3836136
  41.2063828  40.5661545  78.1654892  41.2400589  41.4840012  77.7453537
  40.5487251  40.4733124  78.9263916  42.1158409  40.4807549  78.5964127
  38.3771362  40.6798172  73.1325150  39.1127777  41.6761742  73.2570267
  38.1003075  40.1635704  71.9138412  37.5504761  39.3255577  71.7892609
  38.7458572  40.6904259  70.7412796  39.8172073  40.5513229  70.8860626
  38.3902283  39.8568764  69.5209579  37.3444252  39.5850296  69.6641388
  38.6024094  40.4917488  68.1519547  39.6828270  40.5847664  68.0417023
  38.2831841  39.8298683  67.3469086  38.0899773  41.4536171  68.1698532
  39.2041588  38.5241432  69.5446777  40.2452354  38.7360687  69.3010559
  39.1818581  38.1545639  70.5698700  38.6966591  37.4553070  68.5524597
  39.3975830  36.6359520  68.7120438  37.6837311  37.0871429  68.7153625
  38.9191895  37.7750969  67.5344620  38.5522041  42.2029495  70.5634689
  39.4851456  42.9693604  70.2227783  37.3533859  42.6487885  70.7184067
  36.5685463  42.0134850  70.6957092  36.9529381  44.0445290  70.8064423
  37.2758751  44.5327950  69.8869781  35.4197350  44.1536179  70.9274139
  35.1220360  43.5547829  71.7881546  35.0138779  45.5913162  71.1919098
  33.9524689  45.5311241  71.4325256  35.4743576  46.0101166  72.0867157
  35.1831360  46.1858292  70.2941360  34.7434006  43.6684608  69.6103592
  34.9877205  44.2711906  68.7356415  35.2837143  42.7994385  69.2349091
  33.2250099  43.2468758  69.6999969  32.6045876  43.9889259  70.2025299
  32.8157692  43.1346779  68.6959839  33.0863953  42.3045616  70.2300262
  37.6948814  44.9155617  71.8932648  38.3222542  45.8990822  71.5935516
  37.6208305  44.4354095  73.1690369  37.1071205  43.5693054  73.2469330
  38.2309456  45.0026245  74.3854675  37.7787819  45.9212837  74.7592545
  38.1556129  43.9178810  75.4757767  37.1482887  43.5387764  75.6480560
  38.7060089  43.0263062  75.1753464  38.7556076  44.5196877  76.7571106
  39.6545181  45.1028862  76.5572586  38.0582047  45.2525902  77.1627960
  39.0875473  43.5117111  77.8582382  40.2466354  42.9929886  77.8690262
  38.1481438  43.1726799  78.6599731  39.6561394  45.2542839  74.0377121
  40.0883255  46.3592606  74.2950439  40.3251839  44.2654152  73.4295654
  39.7814331  43.4629974  73.1457291  41.7519951  44.3318405  73.2621078
  42.2906952  44.7108040  74.1306076  42.2782860  42.9143333  73.1190720
  41.8620872  42.4771614  72.2114639  43.3652000  42.9277878  73.0381470
  41.9928093  42.0885010  74.4086380  41.0398026  42.3492355  74.8689651
  41.9706039  41.0036354  74.3053436  43.0887032  42.4098969  75.4322205
  43.6027031  41.4671249  76.1131363  43.3940239  43.5590134  75.6683655
  42.1330414  45.2443962  72.1393356  43.0500259  46.0196228  72.3401642
  41.4812737  45.1283112  70.9548340  40.7024536  44.4878387  70.8970261
  41.9010849  45.7292023  69.6576691  42.9466705  45.9851151  69.8290405
  41.8355598  44.6400070  68.5562286  40.7640686  44.4647255  68.4598541
  42.0945168  45.1454849  67.6258926  42.7013779  43.4807968  68.7622375
  43.9029312  43.5859985  68.5334854  42.1926231  42.3715401  69.2036514
  42.8092232  41.5906067  69.3770065  41.1865082  42.3604012  69.2914276
  41.0775642  47.0119743  69.3207474  41.1869545  47.5281372  68.1726608
  40.1769409  47.3915939  70.2289581  40.0591240  46.8607254  71.0800705
  39.2334633  48.5241089  70.0017242  38.5906029  48.5303383  70.8819504
  39.8723106  49.9024773  70.1153107  40.5140190  50.0325012  69.2438660
  39.1799355  50.7349014  69.9896469  40.7649345  50.0933723  71.3031006
  41.7804298  51.0464821  71.5043259  42.0649490  51.7714043  70.8611832
  42.1127510  51.0214272  72.7666779  42.9243126  51.6696167  73.0626755
  41.4087830  50.0522804  73.4223022  41.5728645  49.7051392  74.3564758
  40.5677643  49.4578972  72.5594635  39.8349037  48.7191162  72.8484573
  38.2955551  48.2837563  68.7136917  37.6916389  49.2231407  68.2380447
  38.0679398  47.1364098  68.1108932  38.5203323  46.3527908  68.5596619
  37.5060844  46.8983650  66.7629929  38.0742111  47.4706879  66.0296631
  37.8328667  45.4599152  66.3010101  37.2755623  44.8346176  66.9985123
  37.3531494  45.1135979  64.8920975  37.5201149  44.0376472  64.8416061
  36.2784309  45.2780991  64.8145142  37.8630219  45.7340317  64.1550827
  39.2081871  45.2138405  66.4767914  39.7187691  45.7319221  65.8502960
  36.0322151  47.2926941  66.7123337  35.2132263  47.0043602  67.5977783
  35.7245712  48.0636139  65.6506119  36.5070457  48.2884445  65.0528793
  34.3703079  48.2710609  65.1274033  33.7974968  48.1122894  66.0410690
  34.1707191  49.7754784  64.9096756  33.1155472  49.9915962  65.0770416
  34.7493172  50.1723785  65.7438126  34.7009087  50.3892822  63.5938568
  35.7765274  50.2873383  63.4497910  34.1558075  49.8788948  62.7998390
  34.2902222  51.8598480  63.7234993  33.2365990  51.8810921  64.0019302
  34.7400780  52.4656715  64.5100784  34.2947960  52.6601906  62.4067917
  33.7528877  52.0716934  61.6664505  33.8556137  53.6294174  62.6430511
  35.6813202  52.7303963  61.9011917  36.1933174  53.2417564  62.6058044
  36.0180626  51.8052864  61.6756287  35.7051659  53.3421593  61.0979004
  33.8869743  47.4673882  63.8907890  34.6865692  47.3400993  62.9834862
  32.5977745  47.0337982  63.8140869  31.6772003  47.1712074  64.9540253
  31.7939949  48.0776062  65.5480804  31.9655342  46.3641663  65.6275635
  30.2380810  46.9995461  64.3187027  29.8070774  47.9922714  64.1889725
  29.6130333  46.5138359  65.0680389  30.4300919  46.2038727  63.0575676
  29.8032703  46.5988426  62.2580719  30.2124195  45.1453934  63.2002335
  31.9439468  46.2775421  62.7346458  32.2930374  45.2499924  62.8365288
  32.2045326  46.7326698  61.2790794  32.5270576  45.9363708  60.4501534
  32.2010689  48.0848541  60.9901505  31.9459095  48.7228584  61.7303848
  32.5025177  48.7782898  59.7593193  31.7838840  48.4081192  59.0281296
  32.3104134  50.3034325  59.9410744  31.2699547  50.4560890  60.2278481
  32.9517441  50.6517677  60.7506828  32.6200981  51.1260185  58.6969566
  33.6514893  50.9166031  58.4132919  32.0325623  50.7116585  57.8776817
  32.3255386  52.6491928  58.7570610  32.3031578  53.2053680  59.8789978
  32.2019196  53.3695412  57.6948586  33.8229408  48.4234352  59.1693954
  33.9190598  48.4003792  57.9262199  34.8151398  48.0308609  60.0189667
  34.6723213  48.1982651  61.0047035  36.1788063  47.7173805  59.6014595
  36.3466225  48.2815399  58.6840401  37.0801468  48.4475594  60.6421127
  36.7612267  48.2205315  61.6593895  38.1483955  48.2405319  60.5781975
  37.0664978  49.9932709  60.7562294  36.2185593  50.6497078  60.1179428
  37.8674583  50.5469627  61.5110855  36.5391197  46.2740555  59.5058632
  37.6891937  45.9505959  59.2506104  35.6355057  45.3750801  59.7788315
  34.7099152  45.6959076  60.0246849  35.8433113  43.9394836  59.5554428
  36.8388939  43.6180191  59.8613472  34.8095970  43.1450272  60.4293785
  33.7798653  43.4318886  60.2161713  35.0193787  41.6147614  60.2022514
  36.0307503  41.2247734  60.3168640  34.4269943  41.0481415  60.9206696
  34.6250725  41.3335304  59.2257652  35.0512047  43.5416374  61.9309425
  35.0109940  44.6283264  62.0057602  34.1735916  43.1722069  62.4614296
  35.9255142  43.0577698  62.3663292  35.6567268  43.5787697  58.0522308
  34.5977631  43.9281120  57.4948044  36.5746918  42.8406677  57.4727325
  37.4289970  42.7901115  58.0091171  36.6008568  42.4465408  56.0660973
  36.2120552  43.2681618  55.4645386  38.0691185  42.2240601  55.6834908
  38.5534439  41.5314522  56.3718376  38.1770706  41.5800781  54.2952652
  37.6514778  40.6272697  54.2319832  37.7423553  42.2832870  53.5848999
  39.2271881  41.4167061  54.0530586  38.9629745  43.4892044  55.8220177
  39.9942780  43.2202339  55.5936089  38.6053467  44.1785622  55.0571747
  38.8184052  43.8394585  56.8440399  35.8164444  41.1395645  56.0510139
  35.0223885  40.8832512  55.1514549  36.1324310  40.2175064  56.9666786
  36.6242828  40.4851646  57.8072395  35.5327797  38.9157829  57.1112862
  34.4480019  39.0134773  57.0686378  36.0821838  37.9820938  56.0079079
  35.5154877  37.0518112  55.9687920  35.9986000  38.4533195  55.0285873
  37.6257248  37.7822304  56.1429939  38.1462746  38.7075806  55.8963013
  38.0086975  37.5282249  57.1313820  38.2054367  36.7522774  55.1316452
  37.4956360  35.9654808  54.5283470  39.5214844  36.8302422  54.9545708
  39.9755745  37.5014763  55.5573502  40.1217918  36.2682800  54.3681145
  35.8923187  38.3090706  58.4756088  36.9149742  38.6685867  59.0851173
  35.0980835  37.2935448  58.8861961  34.2943916  36.9927139  58.3535843
  35.3868866  36.4671021  60.0358734  36.4047394  36.5899277  60.4059906
  34.4711380  36.9682846  61.0688934  34.7284737  38.0109444  61.2552872
  33.4383812  36.8074570  60.7596169  34.6441193  36.1483231  62.3612556
  34.7180862  35.0724068  62.2030373  35.5138016  36.5326538  62.8942146
  33.2055473  36.4433441  63.4642334  33.0881042  38.2141609  63.4765129
  32.1150208  38.3592682  63.9457207  34.0186729  38.6012878  63.8915710
  32.8823509  38.5766144  62.4693375  35.0287094  35.0026817  59.7314644
  33.9093437  34.7550392  59.3212433  36.0496483  34.1155701  59.9186592
  36.9456596  34.3358078  60.3294678  35.9708290  32.6324577  59.7342186
  35.0752296  32.3547401  59.1784554  37.1383400  32.0978203  58.8659210
  37.9901276  31.8854771  59.5120430  36.7117767  31.1967125  58.4252930
  37.6876564  33.0353088  57.7169952  37.9641113  34.0361214  58.0487251
  38.9041710  32.4965286  57.1132736  39.7201042  32.6257629  57.8243675
  38.7471809  31.4545040  56.8346405  39.0792847  33.1748886  56.2782516
  36.6517982  33.0306587  56.6529045  36.9579391  33.6162758  55.7860527
  36.2846756  32.0320930  56.4158554  35.8489151  33.6218224  57.0933647
  36.0247726  32.0039101  61.1314774  36.8258209  32.4635773  61.9803200
  35.1368141  31.0598793  61.4405403  34.4140358  30.8842163  60.7572899
  34.9551811  30.4786682  62.7481346  35.6605110  30.8808746  63.4753494
  33.5136261  30.6580391  63.2780228  32.7859383  30.6730156  62.4666367
  33.1958694  29.8284111  63.9095650  33.3259430  32.0426979  64.0634003
  33.9030266  32.8508339  63.6139641  31.8338318  32.5192375  64.0332489
  31.7057667  33.5611725  64.3266296  31.3370552  32.3883247  63.0719109
  31.3443508  31.9184570  64.7997818  33.8108063  31.8763199  65.4761429
  34.1123276  32.8250809  65.9200287  33.0968513  31.2850037  66.0494843
  34.7779388  31.3830318  65.3790894  35.2158241  29.0031013  62.5376701
  34.5505409  28.3132687  61.7300949  36.2261925  28.4696312  63.2055740
  36.6885567  29.0437183  63.8960381  36.6942444  27.1702900  63.0467339
  36.1662140  26.7654018  62.1833916  38.1554642  27.2279110  62.6373901
  38.3501549  28.1397324  62.0727844  38.7860909  27.2305336  63.5264359
  38.4863853  26.1068001  61.9001389  39.4242363  25.9079990  61.9502754
  36.4380264  26.3979778  64.3663483  36.3349419  27.0059814  65.4152603
  36.2843781  25.0771275  64.3643494  36.1682625  24.6325188  63.4649391
  36.0233727  24.2685356  65.5170670  36.5246582  24.7220974  66.3721085
  34.6281357  24.4964180  65.9913940  34.4390945  25.5529766  66.1812668
  33.9627686  24.0396156  65.2587891  34.4628716  23.9311790  66.9086227
  36.3224640  22.7357178  65.3397980  36.2691078  22.2353630  64.2006760
  36.5837708  22.0200272  66.4187164  36.4467545  22.3859406  67.3500748
  36.9074211  20.5638752  66.3689804  37.6687469  20.4519024  65.5970078
  37.5350266  20.2103024  67.7728043  37.6297035  19.1253433  67.7279816
  38.9909592  20.6195889  68.0607834  39.7093811  20.3385696  67.2907104
  39.1250687  21.6879921  68.2299881  39.3071251  20.0580959  68.9399109
  36.6188164  20.6355476  68.7882309  36.3120041  19.8234444  69.1980515
  35.7238350  19.7180462  66.0636368  34.5717812  20.0753345  66.4110947
  35.9355469  18.4493198  65.5645447  37.1581383  18.0321598  64.9197617
  37.9302025  17.7550831  65.6375732  37.5321541  18.8203297  64.2663116
  36.8098946  16.8693810  64.0815582  37.2321320  15.9864206  64.5613480
  37.1967468  16.9506054  63.0657578  35.2948761  16.6563568  64.1065521
  34.9826164  15.6235905  64.2614059  34.9760513  16.8882866  63.0903549
  34.7711220  17.6880722  65.1104431  34.1708946  18.3730240  64.5115509
  33.8778191  17.0567760  66.1814957  32.8829117  16.4748497  65.8829346
  34.2920685  17.2231922  67.4487457  35.1518669  17.7159233  67.6438370
  33.4020233  16.8944283  68.5816345  32.9436226  15.9099703  68.4877625
  34.1769218  16.7831020  69.9704666  33.6560631  17.4367924  70.6701050
  34.0160446  15.8072662  70.4286880  35.6994629  17.1204224  69.9644852
  36.1024742  18.2355042  69.4717331  36.4543991  16.2440872  70.4460220
  32.0891075  17.7272091  68.7414398  31.1145267  17.2564144  69.2950592
  32.1179314  18.9807682  68.2503815  32.9334526  19.2727718  67.7309952
  30.9735222  19.9144955  68.3964233  30.5140877  19.7252464  69.3665771
  31.4815674  21.3171730  68.4594040  31.8179703  21.5779285  67.4559402
  30.5706291  21.8830013  68.6546707  32.5278015  21.6456490  69.5221863
  33.4768181  21.2538719  69.1561508  32.6389389  23.1420212  69.5662613
  31.7367630  23.6313095  69.9333725  33.4087906  23.4062862  70.2912445
  32.8632317  23.6147900  68.6100769  32.1454544  21.1947498  70.8521576
  32.8801537  21.4766293  71.6063919  31.1960545  21.6308556  71.1628876
  32.0568008  20.1086349  70.8277740  29.8534145  19.6970787  67.3851852
  30.0651226  19.7937851  66.1978912  28.5898170  19.6202755  67.8028107
  28.4943562  19.6606770  68.8074799  27.3711357  19.4695988  66.8956985
  27.5935555  19.6637383  65.8464432  26.9716434  18.0142460  66.8765182
  26.5876198  17.8131676  67.8766174  26.1440392  17.8818016  66.1796494
  28.0755291  17.0933628  66.3741837  28.7906456  17.1169586  65.1472855
  28.6760941  17.7870235  64.4002914  29.5977821  16.0788383  65.1097412
  30.4569664  16.0401211  64.4565125  29.4649334  15.3310184  66.2026138
  30.0727215  14.5480871  66.3968124  28.5385132  15.9513330  67.0224991
  28.2326469  15.6123257  68.0012283  26.1877499  20.2921848  67.2846680
  25.2480011  20.3790703  66.4809875  26.1434517  20.9169617  68.4838715
  26.8343945  20.7913494  69.2097626  24.8990555  21.5640049  68.9184341
  24.1000900  20.8228989  68.9410782  25.1077709  22.0037651  70.3143463
  24.2312908  22.5346184  70.6859283  25.3602543  21.2650738  71.0750656
  25.9315605  22.7155647  70.3674545  24.3923378  22.7509060  68.0565643
  23.2228661  22.9425659  67.7199554  25.3076668  23.6028004  67.5735321
  26.2892227  23.3709087  67.6271439  24.9629822  24.9407902  66.9951096
  24.1525345  24.8155327  66.2770691  24.4624176  25.9247608  68.0678024
  23.6172600  25.4676056  68.5824051  25.6169472  26.2381439  69.0361862
  26.5458946  26.5177765  68.5392303  25.4068317  27.1092663  69.6567535
  25.8285275  25.3089581  69.5652847  24.0644341  27.2693577  67.5099106
  23.4445000  27.1954327  66.6164246  23.4224243  27.6854401  68.2863083
  24.8778210  27.9581757  67.2817993  26.2708817  25.4106827  66.2195816
  27.3763351  25.1891136  66.7289963  26.1363831  26.0358562  65.0373917
  25.2351780  26.1349716  64.5923004  27.2118034  26.7977486  64.4249115
  28.0782890  26.1401291  64.3553238  26.9397469  27.3839588  63.0650902
  25.9724007  27.8862648  63.0596733  27.6167030  28.2232952  62.9058838
  27.0040112  26.3985004  61.9154739  28.2321320  25.8180485  61.5067406
  29.2030010  26.0873013  61.8957405  28.1762486  24.8776741  60.4884796
  29.0069618  24.3262062  60.0735054  26.9486732  24.5740471  59.8311882
  26.8092346  23.8094177  59.0813179  25.7350712  25.1364326  60.3713303
  24.8215218  24.8356647  59.8800392  25.7845554  26.0674629  61.3419724
  24.8804798  26.3605957  61.8549232  27.5422878  28.0133114  65.4096603
  26.5968533  28.8123665  65.6517944  28.8081360  28.3168144  65.7266235
  29.9869404  27.5395412  65.3964767  29.9566402  27.5650482  64.3071976
  29.9930439  26.5820446  65.9173050  31.1806049  28.3087425  65.9292908
  31.5398979  29.0106220  65.1767120  32.0097618  27.7528667  66.3670120
  30.5038090  29.0851383  67.0714417  31.1033363  29.9901028  67.1699677
  30.5053215  28.4442654  67.9531326  29.0768509  29.3729038  66.6961517
  28.4380150  29.2672863  67.5729828  28.7799683  30.7793732  66.1959610
  28.7550564  31.7120724  67.0178909  28.5656643  30.9971256  64.8802414
  28.6525707  30.1821270  64.2900391  28.2145042  32.3170662  64.2369461
  29.0455532  33.0133972  64.3490982  28.1914368  32.0863991  62.7829628
  29.2393875  32.0888748  62.4831467  27.6071606  31.2175560  62.4799194
  27.7038574  32.9760132  62.3842621  26.9071217  32.9359016  64.9084625
  26.7142105  34.1855011  64.9380646  26.0282326  32.1083641  65.4920349
  26.4047089  31.1714802  65.5168915  24.7329216  32.4852943  66.1051865
  24.0995636  32.9554939  65.3529434  23.9421139  31.2434559  66.6551208
  24.3195915  30.2944183  66.2744141  23.9654579  31.1155796  67.7373428
  22.4384270  31.4118710  66.2788696  22.0222015  32.3210869  66.7126694
  22.4053020  31.4959698  65.1926270  21.6085052  30.1410046  66.6486511
  22.1202488  29.3123703  66.1591797  21.8357258  29.9163246  67.6907654
  20.1445274  30.1354885  66.2036591  19.6195202  30.9730682  66.6629410
  19.9995079  30.0941792  65.1241455  19.5228214  28.8671684  66.7456512
  18.5192337  28.9794674  66.7282639  19.7504158  28.0633526  66.1780396
  19.8157101  28.6797199  67.6939011  24.8555012  33.4532547  67.3031693
  23.9014587  34.2001038  67.6138000  26.0970707  33.4621582  67.8317184
  26.8123951  32.7820053  67.6176987  26.4918995  34.3607025  68.9119568
  25.7219963  34.2455215  69.6748962  27.8647919  33.9204369  69.4278030
  28.5826836  34.1574554  68.6425934  28.0555000  34.5641708  70.2864914
  27.8330517  32.8537292  69.6496658  26.5521469  35.8295555  68.4265137
  26.1920605  36.7848854  69.1288986  27.1095810  35.9870148  67.2107010
  27.4175854  35.1738129  66.6969604  27.3915539  37.3062210  66.6544571
  28.1474781  37.8400879  67.2303543  27.9798088  37.0693245  65.2471085
  27.3469601  36.4225655  64.6394043  28.1922188  38.3078575  64.3554993
  28.9575977  38.9420433  64.8028183  28.5142231  37.9432487  63.3800621
  27.2228146  38.7965965  64.2581100  29.3667793  36.2887840  65.4389267
  29.3534126  35.4559860  66.1420441  29.5247478  35.8540039  64.4519577
  30.2030220  36.9726791  65.5841522  26.1532936  38.2467651  66.5925446
  26.2625637  39.4875870  66.6876984  24.9233112  37.7060051  66.5708389
  24.9410400  36.6964073  66.5485535  23.5897732  38.4230995  66.8500748
  23.3890381  39.0599632  65.9885635  22.4372025  37.4783745  66.8753510
  22.5300560  36.9354553  67.8159485  21.5192337  38.0618782  66.9457474
  22.3953857  36.5771179  65.6186829  22.5427971  37.2612839  64.7830505
  23.2157249  35.8628578  65.6892319  21.0998611  35.7878418  65.4741974
  20.8036213  35.3296280  66.4177933  20.2778873  36.4524498  65.2081757
  21.1761913  34.8533745  64.3300095  21.9073219  34.7677116  63.6384811
  20.2937260  33.9063225  64.0022049  19.1337013  33.8017044  64.6063766
  18.9334373  34.3600731  65.4238281  18.5300713  33.0206566  64.3926163
  20.5241871  32.9323349  63.1792946  19.7617702  32.3396797  62.8833618
  21.4532299  32.7604408  62.8223190  23.6281700  39.3212967  68.0716934
  22.9936218  40.3805923  68.0683517  24.2034111  38.8822441  69.1693649
  24.7132511  38.0107460  69.1948471  24.0257702  39.5896721  70.4533615
  23.0505829  40.0697823  70.3720932  23.9942360  38.5841370  71.6650162
  24.9776173  38.1341705  71.8013763  23.7468281  39.0843163  72.6013412
  23.0046844  37.3858070  71.5123825  23.2783184  36.9022293  70.5746307
  23.3351917  36.7578964  72.3397903  21.5265026  37.7515717  71.3620605
  21.0968094  38.7422562  71.9535217  20.7142944  36.9921494  70.7143097
  24.9971313  40.7216492  70.7078094  24.8021946  41.5510864  71.6409912
  25.9657726  40.9231606  69.7571716  25.8279209  40.3459892  68.9398727
  26.6509018  42.2089043  69.5769196  26.8502254  42.5068398  70.6062851
  27.8813286  42.0428314  68.7565079  27.5483131  41.6074295  67.8143692
  28.2411957  43.0569038  68.5825958  28.9754276  41.0702400  69.3386307
  28.4157143  40.1417084  69.4511414  29.9130707  40.8070946  68.1679077
  30.3364105  41.7495842  67.8206253  30.6956635  40.0816383  68.3900833
  29.4193878  40.3808746  67.2945709  29.4775906  41.6092873  70.6537247
  28.9219246  41.3144455  71.5438995  30.4740162  41.1949234  70.8071518
  29.5638771  42.6950912  70.6947784  25.7473679  43.2862282  68.8451309
  24.7526073  42.8825874  68.2412491  25.9058113  44.5800514  69.1157990
  26.6598988  44.8199844  69.7434082  25.2136116  45.6340675  68.3804779
  24.2087288  45.4008217  68.0284729  25.1285095  46.9105186  69.2366714
  24.6155949  46.8023758  70.1923447  26.1616821  47.0967941  69.5298691
  24.4845867  47.9781036  68.6109924  24.4832954  48.6880035  69.2572403
  25.9160519  45.9818764  67.0586243  27.0983868  46.2237244  67.1435928
  25.2013988  46.2304802  65.9188995  24.2346039  45.9868698  65.7574692
  25.8259125  46.8185120  64.7191696  25.0214386  47.2479057  64.1220551
  26.5254326  47.5947914  65.0292664  26.6282749  45.8618507  63.8382530
  27.3029709  46.2592545  62.8728676  26.5816402  44.5189552  64.0097809
  25.9072647  44.2172241  64.6984634  27.3273163  43.5287209  63.1846199
  28.1595669  43.9404907  62.6137428  28.0532856  42.5264015  64.1226273
  27.3011951  42.2492828  64.8613205  28.3996773  41.5773163  63.7135468
  29.2149830  43.0226173  64.8427124  29.2289524  43.9535713  65.8113098
  28.3720970  44.5694809  66.0412064  30.4597683  44.1806145  66.3597183
  30.7317715  44.8248062  67.0885086  31.3281651  43.4567833  65.6565399
  32.7152596  43.3470879  65.8322906  33.1961899  44.0734634  66.4706421
  33.4397583  42.3872414  65.0760498  34.5032082  42.3142624  65.2496796
  32.7965164  41.5909996  64.0813217  33.3547859  40.9594765  63.4061089
  31.3442726  41.6921120  63.9479485  30.8791237  41.1056595  63.1694183
  30.6066780  42.5862389  64.7453156  26.3928223  42.7503624  62.1948357
  26.8142033  41.6721992  61.7684097  25.1842747  43.2254601  61.9343224
  24.9764137  43.9634819  62.5917549  24.1809025  42.6260719  61.0225525
  23.9644337  41.6355972  61.4228058  22.8083382  43.3711433  61.0944977
  22.1052265  42.9805603  60.3588448  22.3021126  43.3208885  62.0585098
  22.7793789  44.8436966  60.6201782  23.2939358  44.9772682  59.6686058
  21.7671795  45.1520081  60.3584557  23.4520092  45.7748375  61.5482521
  23.7796631  45.4592590  62.6772842  23.5917168  46.9798698  61.2280502
  23.3688812  47.2704506  60.2867699  24.1493683  47.6233215  61.7712708
  24.6355457  42.5861816  59.5674973  24.0978165  41.8241539  58.7375526
  25.6061687  43.4029083  59.2179222  25.8644981  44.2127419  59.7633896
  26.1186790  43.4136086  57.8243980  25.4048996  42.9467735  57.1456604
  26.3017845  44.8441315  57.3231506  27.1736355  45.2740250  57.8162689
  26.6649399  44.8099861  56.2959938  25.1369438  45.8235245  57.3736229
  23.9275055  45.3914833  56.8859138  23.8057327  44.3275490  56.7458344
  22.8171902  46.2907791  56.8355522  21.9005260  45.8815498  56.4372368
  22.9414997  47.6038513  57.3266258  21.8371658  48.4362144  57.2419243
  21.5075531  48.4691010  56.3408852  24.1537113  47.9950027  57.9556847
  24.2458324  48.9281158  58.4916077  25.2836533  47.1058350  57.8519211
  26.2582188  47.3518562  58.2470169  27.4852314  42.6220474  57.7004929
  27.8960857  42.2321396  56.6007042  28.1676769  42.4019852  58.8538361
  27.9135361  42.9130402  59.6871033  29.4821930  41.8000221  58.7250137
  30.0933399  42.3619499  58.0187302  30.2831383  41.7304230  60.1027107
  29.6580391  41.3178482  60.8946342  31.6199627  40.9128876  60.0708809
  31.4773674  39.8540382  59.8549919  32.2935524  41.1807747  59.2568703
  32.1244392  40.9019661  61.0370522  30.7439442  43.1121674  60.5300407
  29.8540783  43.7119179  60.7212067  31.2948952  43.1651230  61.4690590
  31.2846756  43.6742592  59.7686234  29.3608303  40.3759155  58.1626587
  28.4768200  39.6563225  58.5527916  30.1525097  39.9943504  57.2009315
  31.1343842  40.8322792  56.5441208  31.7946529  41.2944946  57.2779465
  30.5872307  41.6310921  56.0434914  31.8551884  39.9521027  55.5165520
  32.6781769  39.5095634  56.0777588  32.1291733  40.3529015  54.5406456
  30.7473621  38.8254051  55.3135986  31.2064381  37.9220505  54.9119759
  30.0673256  39.2504768  54.5753822  30.1700363  38.6847649  56.6248245
  29.1438217  38.3850746  56.4122887  30.8876152  37.7125511  57.5385628
  32.0168610  37.8925476  57.8769913  30.2199669  36.6595001  57.9812546
  29.2250977  36.5092392  57.8931923  30.7931499  35.5691872  58.7798042
  31.8021622  35.8103180  59.1142464  30.0050697  35.5337830  60.1049538
  28.9530983  35.3852501  59.8612518  30.3413525  34.4205780  61.1263351
  29.7829647  34.5429344  62.0544128  30.1247196  33.4221764  60.7463799
  31.4167709  34.3958015  61.3022957  29.9657192  36.9450111  60.7640038
  29.3365860  37.6203880  60.1842041  29.5954952  36.8841171  61.7873917
  30.9819489  37.3315773  60.8410912  30.7870922  34.1875000  58.0132370
  30.0541172  33.9779091  57.0170021  31.4964104  33.2120018  58.5383949
  32.1745987  33.4769745  59.2383575  31.4960041  31.8246593  58.0496941
  30.4723740  31.5244675  57.8257103  32.2270126  31.6994095  56.6783752
  33.1860580  32.1894760  56.8461990  32.6550560  30.2509918  56.3091698
  33.6212616  29.9896870  56.7407532  31.8268108  29.5538063  56.4358292
  32.9706917  30.2192345  55.2663536  31.4482346  32.3179626  55.6490173
  30.8441429  32.8577843  56.1640549  32.0197983  30.8715534  58.9736404
  33.0340233  31.0098038  59.5896111  31.3746986  29.6972713  59.1060486
  30.5987129  29.6142120  58.4649162  31.7919979  28.6333599  60.0566826
  32.6336708  29.0627289  60.6001320  30.6041718  28.2074833  60.9510918
  29.8107777  27.9122906  60.2644424  31.0045471  27.3807373  61.5378571
  30.1253357  29.5472984  61.9630737  30.1543636  30.4872227  61.0140686
  32.3200989  27.3866062  59.2974243  31.7232761  26.9827709  58.2880898
  33.3942451  26.7405815  59.8460503  33.8052711  27.1460152  60.6747704
  34.1210289  25.6375828  59.1539116  33.3941154  25.0913143  58.5528412
  35.1887741  26.3332348  58.2460289  35.7017593  25.6635590  57.5557556
  34.6731911  27.0954857  57.6618614  36.2206726  27.0280609  59.1010513
  35.6777382  27.5616417  59.8811874  36.8443184  26.2925282  59.6091499
  37.2195778  28.3330345  58.2448196  38.6845436  28.7882366  59.2317581
  39.3695946  29.3094730  58.5630913  38.3474617  29.5410404  59.9443321
  39.0909119  27.9625320  59.8158569  34.6926193  24.6688690  60.2263107
  34.7366791  24.9643345  61.3972359  35.2046852  23.5043621  59.6934891
  35.1162872  23.3999233  58.6927986  36.0342712  22.5532513  60.4719353
  35.6113243  22.5909157  61.4758263  35.7376938  21.1294098  59.9652977
  34.7085800  20.9949951  59.6321907  36.2203064  21.0713615  58.9896851
  36.0370102  19.9476490  60.9602127  36.2279129  19.0901928  60.3149033
  36.8500786  20.2546959  61.6180458  34.8344269  19.6196327  61.8640747
  34.0247955  18.7474613  61.5700722  34.6855965  20.4186726  62.9153786
  35.4446030  21.0459747  63.1401253  33.8482361  20.2846394  63.4639778
  37.4856377  22.8834953  60.5987625  38.2361450  23.0913372  59.5599976
  38.0611572  22.7361526  61.7836685  37.5410881  22.4780464  62.6101112
  39.5212593  22.6787128  62.0173836  40.0258675  23.1018009  61.1487846
  39.8277359  23.4719715  63.3434143  39.1656189  24.3336182  63.4287033
  39.5276375  22.8493843  64.1862793  41.2879868  23.8125439  63.5502357
  41.5344963  23.9138737  64.6071472  41.8099251  22.9148617  63.2187958
  41.8103371  25.1542797  62.9339066  43.0673828  25.3628101  63.0549316
  41.0873299  25.9300404  62.2404289  40.0580177  21.2792206  62.1514473
  39.3329849  20.4271297  62.6775703  41.2480927  20.9702568  61.7131882
  41.7598152  21.7336674  61.2943306  41.6232224  19.5720520  61.4373207
  40.7792625  19.1232967  60.9134407  42.9301682  19.5324268  60.5916252
  42.9861450  18.4801331  60.3129807  42.7313766  20.1637344  59.7255821
  44.1651306  20.0512829  61.2878075  44.0968513  21.0695744  61.6705894
  44.3460274  19.3714046  62.1203575  45.5059891  19.8930721  60.1625786
  45.7331848  18.0758533  60.0349464  45.3428650  17.6221104  60.9459190
  45.1055679  17.6528893  59.2505379  46.7445717  17.7462521  59.7971191
  41.7487564  18.7957344  62.7561569  42.5126953  19.1900311  63.5862541
  41.2260399  17.5539970  62.8464165  40.8285713  17.1292534  62.0207596
  41.5533524  16.6702538  63.9921646  41.3080750  17.1458511  64.9417648
  40.7434845  15.4249668  63.7776947  39.7198753  15.7127800  63.5379181
  41.2956009  14.8830557  63.0098343  40.5258865  14.5046740  65.0122757
  40.3373032  14.9207134  66.2048264  40.3341255  13.2823591  64.8414154
  43.0233688  16.2240696  64.0931625  43.6193352  15.7270536  63.1572037
  43.5958328  16.2884369  65.3545761  43.0301819  16.8132610  66.0062637
  45.0818787  16.0622845  65.6569214  45.3611832  15.3052998  64.9240723
  45.8899918  17.3186836  65.3453369  45.4621315  18.1245136  65.9417191
  47.3966064  17.2341061  65.6322403  47.5573807  17.0278149  66.6903992
  47.8773270  16.4808178  65.0080948  47.9494858  18.1480370  65.4150848
  45.8007736  17.7740898  63.8984261  46.0673370  16.9843655  63.1960144
  44.7840996  18.0652466  63.6344185  46.4808273  18.6196671  63.7953453
  45.4039154  15.4474506  67.0545349  44.8625107  15.8086958  68.0618820
  46.3530540  14.4949121  67.0037537  46.8020821  14.2439823  66.1345520
  46.8283043  13.7359915  68.1513748  45.9308319  13.2791367  68.5684280
  47.9725418  12.7534142  67.7680817  48.9494476  13.2080202  67.6034698
  48.1865616  11.7095213  68.8910828  47.3176231  11.0593653  68.9927979
  49.0474167  11.0704060  68.6947174  48.2580223  12.2382746  69.8415680
  47.5790596  11.9238577  66.6623688  48.4175110  11.5427866  66.3914719
  47.3698502  14.7180452  69.2718887  48.0502167  15.6850052  68.9313354
  47.0031319  14.5435972  70.5717010  46.4275627  13.7298517  70.7349091
  47.3659630  15.4551973  71.6830597  46.7619400  15.1943512  72.5520935
  48.4379730  15.4349556  71.8792496  46.9439316  16.9538574  71.5278244
  47.3074112  17.8522396  72.3061447  46.1831055  17.3645592  70.4721146
  46.0611305  16.6645813  69.7543030  45.5333862  18.6854572  70.3353195
  46.2772064  19.4209080  70.6418228  45.2931938  18.8731155  69.2888107
  44.3689003  18.8425312  71.1850204  43.7680244  17.8324585  71.6387177
  43.9952660  20.0699024  71.4450455  44.5493546  20.7549324  70.9512634
  42.9032021  20.5309429  72.3679886  43.0870590  19.9550915  73.2750168
  43.1121254  21.9912109  72.7601089  44.1373787  22.0829544  73.1186371
  42.9985771  22.5842934  71.8526611  42.1769791  22.6340771  73.7576981
  41.1336555  22.5999413  73.4439850  42.2535057  21.9881153  75.1558380
  43.2258530  22.2565479  75.5688400  41.4594231  22.3199482  75.8247299
  42.1194420  20.9071712  75.1147461  42.6288147  24.0912342  73.8358612
  43.6403580  24.0853367  74.2418671  42.7246475  24.5665760  72.8596573
  42.0826035  24.6248684  74.6136780  41.4289093  20.2772846  71.8497620
  40.9985619  20.8687611  70.8671799  40.7423706  19.3349819  72.5276031
  41.1851692  18.9679203  73.3578339  39.4361572  18.9317799  72.1147537
  39.5326538  18.8679752  71.0309067  39.1345139  17.5738010  72.6532364
  38.8330956  17.5936031  73.7005386  38.1722374  17.3511925  72.1921844
  40.2644310  16.4923382  72.5265274  40.5350990  16.4558411  71.4712982
  41.1026192  16.7250233  73.1833420  39.8472290  15.1327057  72.9030609
  39.8737411  15.0623264  73.9904633  38.9400063  14.7479057  72.4372559
  41.1047020  14.2952986  72.4972610  41.9845505  14.9006262  72.7153168
  41.0277786  13.3763590  73.0784149  41.0284767  13.7818136  71.1432571
  40.4962349  12.9234362  71.1400528  40.5437164  14.4610357  70.5742569
  41.9083786  13.5641851  70.6977081  38.3774834  20.0337601  72.4339600
  38.5958061  20.8015499  73.3584671  37.2450523  19.9799690  71.7961273
  37.1081772  19.2275772  71.1363754  36.1146889  20.7277794  72.1544418
  35.3675690  20.4377861  71.4156494  35.5586395  20.4987316  73.5623322
  36.1337242  20.9966316  74.3430176  34.5588303  20.9192162  73.4542770
  35.3204460  19.0421925  73.8959122  34.8538322  18.6028900  73.0142212
  36.2629471  18.5081635  74.0167618  34.4332352  18.8806114  75.1206360
  35.0218544  19.2164974  75.9743347  33.5817375  19.5426941  74.9634781
  33.9878349  17.4075928  75.2785721  33.4850616  17.1033611  74.3605499
  34.8247948  16.7235794  75.4190292  33.0156784  17.3088970  76.4110870
  32.2188873  16.7115746  76.2424774  33.4065819  16.9646568  77.2764206
  32.6571922  18.2196045  76.6604919  36.2973442  22.2513485  72.0209427
  35.8820610  23.1163311  72.7793961  37.0287056  22.6394386  70.9607544
  37.2725716  21.9667950  70.2478867  37.5945625  23.9454861  70.7621002
  37.4997482  24.5096836  71.6898880  39.1436501  23.8882637  70.5360107
  39.5886002  23.2256088  71.2783127  39.3608704  23.3501625  69.6133194
  39.9606628  25.4716835  70.7180862  39.2055168  25.6363449  71.8078308
  36.9796143  24.6869621  69.6047668  36.7547455  24.1342258  68.5438538
  36.9250488  26.0397549  69.8470764  37.3363190  26.4295673  70.6831436
  36.3772392  26.9430771  68.8836060  36.2518883  26.3725586  67.9633331
  35.1092491  27.6743965  69.3553085  35.3915672  28.5571880  69.9289703
  34.2214508  28.0853825  68.1501846  33.9662170  27.1860619  67.5896683
  33.2640038  28.5397034  68.4051056  34.7085342  28.7162704  67.4066544
  34.2922211  26.9266968  70.5012894  33.9409332  25.9619656  70.1352386
  34.8843384  26.7649212  71.4020233  33.0277214  27.6594810  70.8752289
  32.5238190  27.2770958  71.7629089  33.0912399  28.7475338  70.8611298
  32.3035507  27.4674931  70.0835114  37.5301781  28.0421448  68.5768661
  37.9379654  28.7006741  69.5531235  37.8846474  28.1888542  67.2837753
  37.5584145  27.5256596  66.5954132  38.8537827  29.2174892  66.7655487
  39.3410683  29.7483082  67.5834045  39.9354820  28.4272327  65.9797897
  39.3216896  27.9011974  65.2486038  40.5952568  29.1244812  65.4634171
  40.7319717  27.4402733  66.8778687  41.2875900  28.1523628  67.4880524
  40.1204109  26.7213020  67.4230118  41.7872429  26.6980896  66.0997925
  41.2108231  26.0987244  65.3950958  42.3623352  27.3481007  65.4403534
  42.7095985  25.9432678  66.9819794  43.5950165  26.3831329  67.1885071
  42.5219345  24.7724209  67.4570389  41.3485451  24.2193279  67.5723495
  40.5123672  24.6290112  67.1811066  41.4511223  23.2300644  67.7482376
  43.4864693  24.0615406  68.0103683  44.4447136  24.3565788  67.8886337
  43.3794785  23.1781254  68.4880981  38.1265297  30.3019810  65.9778137
  37.0519829  30.1628532  65.3886185  38.7478790  31.4353428  65.7879410
  39.5751839  31.6347256  66.3319321  38.3435440  32.4802895  64.8278732
  37.7657013  32.0108147  64.0317535  37.5449295  33.6280403  65.4881592
  36.5881081  33.1482697  65.6940994  38.1012268  34.2355728  66.7973938
  38.4617348  33.3834648  67.3736420  38.9135170  34.9348412  66.5991364
  37.3374023  34.7794685  67.3531418  37.3755302  34.8778152  64.5782166
  37.0654182  34.5839081  63.5754471  36.6475029  35.5100365  65.0865173
  38.2664642  35.5056419  64.5650635  39.6265831  32.9622192  64.0577164
  40.6385727  33.2452354  64.6886215  39.5832024  33.0052109  62.7457809
  38.7547874  32.5940399  62.3398666  40.4690895  34.0066910  62.0407219
  41.2378197  34.3618736  62.7270203  41.1957664  33.2542953  60.8518867
  41.8339424  32.4606590  61.2404404  40.3774643  32.7634773  60.3250313
  41.9886665  34.1639519  59.9618607  41.9352226  33.7927399  58.9384117
  41.5828247  35.1755676  59.9678383  43.6660690  34.3360939  60.5964394
  44.4283104  32.7541351  60.1287575  44.0560417  32.0766602  60.8972206
  44.1006927  32.4501839  59.1345825  45.5123177  32.8520012  60.0700569
  39.6123543  35.1975861  61.6480446  38.5508080  35.0422096  60.9998360
  40.0950851  36.3872337  61.9140244  40.8287239  36.5592728  62.5865402
  39.3619003  37.6178093  61.5857620  38.5247841  37.4688072  60.9037514
  38.7073555  38.1947212  62.8466988  38.2201309  37.3747101  63.3742371
  39.4779396  38.6090889  63.4967766  37.6255188  39.2402458  62.4269524
  38.1043739  40.0973511  61.9534874  37.0050621  38.7875710  61.6534958
  36.6928825  39.9813271  63.8760948  37.9885292  41.0118637  64.5661163
  38.3578644  41.6977348  63.8037071  37.6116333  41.5112190  65.4586945
  38.8543053  40.4100723  64.8424911  40.2639542  38.6067734  60.8437004
  41.3037491  39.0301857  61.3552322  39.8168335  39.0570374  59.6904945
  38.8519936  38.8044853  59.5311165  40.5992737  40.0588112  58.9628639
  41.6324806  40.1347733  59.3017044  40.7466011  39.6986008  57.4645004
  39.7818031  39.9163780  57.0064163  41.8281479  40.5110550  56.7016029
  42.8415031  40.2437057  57.0011711  41.6435051  40.3135910  55.6456604
  41.6848984  41.5845413  56.8249245  40.9150658  38.3353691  57.2314720
  41.5942039  37.9090157  57.7592926  39.9465294  41.4330521  59.1055565
  38.7391777  41.5258484  58.9916840  40.7085571  42.4755058  59.3942070
  41.7125740  42.3660011  59.3861694  40.2042465  43.8448601  59.6299438
  39.2390366  44.0104485  59.1513443  40.1085701  44.1959724  61.1438370
  39.7003555  45.2052231  61.1974716  39.3146973  43.2246513  62.0245056
  38.4753685  42.7686272  61.4994583  39.9097595  42.3396416  62.2498055
  39.0052910  43.6709747  62.9695816  41.5554390  44.3749275  61.7122307
  42.1632538  43.4883347  61.5316429  42.0905075  45.2360802  61.3119621
  41.5532379  44.5256157  62.7917633  41.0681381  44.8385773  58.8918152
  42.1904869  44.5431862  58.5577049  40.5101433  46.0051422  58.6610374
  39.6174316  46.1721306  59.1029434  41.3660011  47.1629105  58.2249184
  42.1630249  46.7308655  57.6197739  40.6307297  48.0764732  57.3106766
  40.2133675  47.4747162  56.5033340  39.7571182  48.5777245  57.7273903
  41.5296440  49.2006607  56.6834412  41.6719360  49.9461403  57.4658203
  42.4920006  48.8396568  56.3206177  40.8652039  49.8104019  55.4303932
  41.0982552  49.3678207  54.3059464  40.0258751  50.8369522  55.5673714
  39.9984970  51.3672676  56.4265060  39.6385002  51.3811150  54.8097916
  42.0228386  47.8860931  59.4241104  41.3440666  48.4935455  60.2645912
  43.3832893  47.9623528  59.4479523  43.9598656  47.4727364  58.7786713
  44.1834641  48.7490158  60.4474792  43.5788269  49.6322861  60.6532631
  44.2454338  47.9673767  61.7203178  43.2077904  47.7332268  61.9581566
  45.1042709  46.6704674  61.6655502  46.0453796  46.7398834  62.2110748
  44.6587143  45.7901802  62.1288795  45.4110909  46.4393806  60.6454697
  44.8133888  48.7461166  62.7440186  44.1840706  49.4331474  62.9754219
  45.5788345  49.2155914  59.9677124  46.1932220  48.4844131  59.2197647
  46.1426544  50.3400497  60.4626846  45.5668030  50.9179115  61.0581474
  47.6013985  50.7084923  60.3644791  48.0434494  50.3372993  59.4398651
  47.6332359  52.2632561  60.3110008  48.6792297  52.4691277  60.0838051
  47.0061188  52.6174812  59.4928627  47.2578659  53.0612564  61.5283318
  47.5570946  54.2824135  61.6165352  46.7749138  52.4533386  62.5236015
  48.4787903  50.2213631  61.5284462  49.7365417  50.2824631  61.5819016
  47.8794479  49.4633446  62.4880676  46.8855896  49.2929230  62.4306183
  48.5939331  48.9294968  63.6543694  49.2001686  49.7052612  64.1221085
  47.6005592  48.4038162  64.7459793  46.9021263  47.7843323  64.1833725
  48.2942009  47.6734924  65.9064255  48.8204308  48.3941498  66.5323944
  47.5475769  47.1720314  66.5222092  48.9693985  46.8638115  65.6296082
  46.8843994  49.6009789  65.2627792  47.5202217  50.3352127  65.7574844
  46.4378738  50.2549400  64.5137482  46.0269089  49.3377342  65.8820724
  49.5877075  47.8280373  63.2612915  49.0827599  46.8499069  62.6386490
  50.9070168  47.8469772  63.5278053  51.6937523  48.8430252  64.2467957
  51.6614914  48.5420456  65.2939224  51.3816910  49.8750343  64.0865402
  53.0815506  48.7429962  63.7971458  53.8074150  49.0852127  64.5347824
  53.2946472  49.2112541  62.8361969  53.2029800  47.2191391  63.5350456
  53.4184685  46.6963425  64.4668961  53.9959717  47.0542564  62.8056068
  51.8366318  46.8074837  63.0571938  51.8942604  46.8059311  61.9687195
  51.5331917  45.3716812  63.5702248  50.7388878  45.1820297  64.5363693
  52.1523018  44.3845711  62.9497757  52.9256630  44.5819931  62.3308754
  51.6872139  42.9745140  62.9313622  50.6360168  42.8431854  62.6747665
  52.5979538  42.2953377  61.8490334  52.4673500  42.7987862  60.8911285
  53.6214180  42.3509407  62.2198906  52.3032608  40.7687225  61.6912613
  52.6903038  40.2361946  62.5600014  51.2521057  40.5171928  61.5501671
  53.1482124  40.0872383  60.5360909  54.3540993  39.9782333  60.7114716
  52.5049629  39.6189766  59.5560074  51.5043488  39.6042747  59.4194260
  53.0412788  39.3261795  58.7518082  51.8362923  42.2578850  64.2553482
  51.0960503  41.2651596  64.5129700  52.8021011  42.7532349  65.0501785
  53.5110397  43.3355789  64.6278305  53.1273613  42.0934639  66.3918381
  52.4917870  41.2115326  66.4715271  54.6260605  41.6015778  66.4426498
  54.7554970  40.9289284  67.2905197  54.9190140  41.0193062  65.5690155
  55.6068764  42.7426605  66.5114975  55.2616730  43.9568443  66.4771423
  56.8472099  42.4016418  66.6615906  52.6994286  42.9943199  67.5878906
  52.9902191  42.6464081  68.7873688  51.9992943  44.1196327  67.3296814
  51.7451172  44.3170624  66.3723297  51.1913490  44.8909264  68.3164215
  51.6698456  44.7112274  69.2791595  51.5468750  46.3580780  68.0848160
  51.0475769  46.6788216  67.1705246  51.0974388  46.8971481  68.9187851
  53.0721397  46.7559891  67.9418793  53.4474525  46.4185219  66.9757767
  53.0981865  47.8454247  67.9653778  53.9591255  46.1805649  69.1019287
  53.7272186  46.4438820  70.2475052  54.9379997  45.3347473  68.8361206
  54.9830017  44.9606247  67.8990479  55.4725952  45.0151482  69.6312103
  49.6747932  44.5340157  68.3373184  48.9394684  44.9976768  69.2189178
  49.2438812  43.7556686  67.3458023  49.9439430  43.5303688  66.6535110
  47.8576279  43.1563759  67.3440552  47.2612114  44.0569916  67.4899445
  47.5937500  42.6455841  65.8905487  48.5191269  42.1463013  65.6033249
  46.5343666  41.6036072  65.8521423  46.5279808  41.1265869  64.8720856
  46.7587128  40.7765198  66.5257111  45.5581093  41.9398384  66.2013779
  47.2594337  43.7486877  64.8537750  46.3705978  44.2987671  65.1627808
  48.0992966  44.4431801  64.8740692  47.0255775  43.4376068  63.3641510
  46.7871437  44.3221283  62.7734985  47.8081856  42.8881798  62.8409348
  46.1076164  42.8640785  63.2356415  47.6650887  42.1934662  68.4409943
  48.5646706  41.3566704  68.6617813  46.5539360  42.3081436  69.2511215
  45.8371735  42.9145012  68.8787155  46.2956505  41.3630981  70.4307327
  47.2609596  40.9543915  70.7294693  45.6832619  42.0797081  71.6113052
  44.8334084  42.6470261  71.2318268  45.2747421  41.3034515  72.2583237
  46.6988029  43.0271263  72.3325653  47.4865189  42.3426132  72.6472702
  47.0586891  43.6858292  71.5421906  46.1268578  43.7973824  73.4425125
  45.2152863  44.3348083  73.1811523  45.8036118  43.0811005  74.1978607
  47.0954857  44.7443695  74.0235443  48.0413055  44.7100945  73.6709061
  46.7766762  45.4522858  75.0969467  45.6176262  45.3837471  75.7157822
  45.3619423  46.1010361  76.3792725  44.9441414  44.6920166  75.4190750
  47.6188202  46.1932259  75.7363510  47.2106247  46.9729118  76.2318954
  48.4594154  46.3917809  75.2128296  45.4951286  40.2553635  69.9069519
  44.2926140  40.4012833  69.7592468  46.1064224  39.0800095  69.5743256
  47.1156807  39.0752258  69.6127243  45.4906960  37.7830887  69.4924850
  44.6235428  37.8357620  68.8341751  46.3782120  36.6748161  68.9563293
  47.1184387  36.4957008  69.7361298  45.8064156  35.7640038  68.7786407
  47.0023766  37.1010399  67.6745682  46.2798843  37.4011307  66.4662857
  47.1959114  37.6783943  65.5304260  47.0004349  38.1251373  64.5667877
  48.4439659  37.5647888  65.9998932  49.2519112  37.9307442  65.5167847
  48.3539505  37.1867752  67.3361359  49.1676865  36.8600006  67.9665680
  44.9815941  37.4045944  70.8778305  45.5809860  37.7054138  71.8788834
  43.7948227  36.7391968  70.8942719  43.3421631  36.4777756  70.0300598
  43.0566788  36.4286385  72.1043549  43.5600700  36.8638573  72.9676514
  41.6909676  37.1404343  71.9706116  41.3201027  36.8313866  70.9933472
  40.7377586  36.7508736  73.0930634  41.2311554  36.9833908  74.0367813
  39.7795143  37.2593040  72.9864655  40.5779648  35.6747780  73.0253525
  41.7356377  38.6622391  72.0171432  42.5230141  38.9647789  72.7075119
  41.8647957  39.2438126  71.1043472  40.7858849  39.0686035  72.3649139
  42.9273109  34.8909035  72.3593140  42.3212242  34.1644630  71.6081009
  43.4077110  34.3966408  73.5282440  43.5960922  35.1425476  74.1826401
  43.3537254  33.0669136  74.0842361  42.7496681  32.5186806  73.3612823
  44.7050896  32.2765579  73.9095993  45.3625793  32.8863678  74.5292358
  44.5870361  31.2821865  74.3401718  45.1095276  32.0654831  72.4770279
  45.7869644  33.0838776  71.7706680  46.0877686  33.9765892  72.2988586
  46.1051559  32.9245567  70.3888855  46.6991005  33.6739464  69.8868256
  45.7356110  31.7698498  69.7142563  45.8950729  31.5747471  68.3536148
  46.0134697  30.6491375  68.1281586  45.0689774  30.8078651  70.4246674
  44.6864738  29.9239025  69.9360962  44.8710365  30.9056072  71.7855148
  44.4792709  30.0057335  72.2362442  42.7461205  32.9917259  75.4750443
  43.2297821  33.5297241  76.5021439  41.6800995  32.1993408  75.6046066
  41.4165344  31.6452694  74.8023376  40.7344627  32.1546936  76.7515869
  41.1768036  32.6825104  77.5964813  39.4071732  32.8837624  76.4473190
  38.9486923  32.3171844  75.6368408  38.7139091  32.8888931  77.2884293
  39.5528793  34.3923378  75.9501953  40.3845596  34.6210709  75.2837906
  38.1878929  34.8694916  75.4707489  37.3591652  34.7250328  76.1638947
  38.1289749  35.9439735  75.2972031  38.0088844  34.3059311  74.5550766
  39.8962898  35.3430824  77.0950165  40.8973503  35.0387383  77.4005585
  40.0826569  36.3589134  76.7465057  39.2577744  35.2017784  77.9670410
  40.4405975  30.7155037  77.1833267  40.7732391  29.7456131  76.5067749
  39.7377777  30.6355457  78.3092117  39.5170288  31.4989395  78.7845230
  39.3952675  29.3862267  78.9707184  39.0611534  29.6348114  79.9780273
  38.1778870  28.7954865  78.2482376  38.4791489  28.5081291  77.2408829
  37.8789902  27.8919640  78.7796555  36.9485664  29.6393070  78.1514969
  37.1047058  30.5783901  77.6206131  36.2553139  29.1121979  77.4960175
  36.1905746  29.8662624  79.5204544  35.9740105  31.0308037  79.8722916
  36.0146866  28.8292980  80.2038879  40.5923843  28.4384747  78.9718552
  41.7422218  28.7801456  79.4035034  40.4737244  27.2010078  78.4430466
  39.5758438  26.9493599  78.0549927  41.5768127  26.2033176  78.4902191
  42.1067390  26.3508911  79.4312286  41.0805702  24.7801151  78.3893280
  40.4686432  24.6420326  77.4979324  42.0100136  24.2107830  78.3989716
  40.2573204  24.2848797  79.6296997  40.9140968  24.1475697  80.4887085
  39.4401474  24.9637260  79.8736191  39.7348785  22.8827400  79.3020172
  39.0233612  22.8794327  78.4762878  40.6351433  22.3187065  79.0580902
  39.1105843  22.2455044  80.5318069  39.9395790  21.8532352  81.1208725
  38.6357422  23.0321102  81.1182098  38.0720253  21.2109623  80.2763214
  37.3019371  21.6078568  79.7571487  38.3554764  20.4278889  79.7048798
  37.7013168  20.7353573  81.0865555  42.6565895  26.4432793  77.4482117
  43.8910522  26.1614246  77.6185074  42.3144646  27.1745987  76.3498154
  41.3516960  27.4671993  76.2628326  43.1354713  27.2690964  75.1529388
  43.5499458  26.3176174  74.8197556  42.2158737  27.7416611  74.0555573
  42.3096161  28.8144188  73.8867264  42.4316330  27.1951180  73.1374893
  41.1769104  27.5980320  74.3522491  44.3911819  28.1185665  75.2918701
  45.2004738  28.1063633  74.4114990  44.5668831  28.8031769  76.4191666
  43.9711685  28.7018871  77.2284698  45.8913078  29.4282055  76.8469849
  46.0105400  30.2014942  76.0880966  45.7997322  30.0640526  78.2073059
  46.7093887  30.6319714  78.4024811  44.6101379  31.0356827  78.1281204
  44.5919991  31.4480324  79.1369553  44.8511772  31.8144207  77.4045410
  43.6850586  30.5500317  77.8175201  45.6029778  29.1893730  79.4055328
  45.5522957  29.7446823  80.3421021  44.8179512  28.4462090  79.2657547
  46.4907303  28.5720692  79.5431747  47.0970993  28.5910225  76.6551895
  48.1618042  29.0047150  76.2238693  46.8718491  27.3195915  76.9335632
  45.9947014  27.0707512  77.3680573  47.7882423  26.2254353  76.7033768
  48.5672913  26.3542385  77.4547806  47.1345482  24.9132271  77.0932999
  46.5321770  25.1279945  77.9759827  46.0628090  24.4797859  76.0609207
  45.4345322  25.3495655  75.8689651  46.5774956  24.0572910  75.1979599
  45.3660736  23.7528419  76.4783173  47.9689140  23.6759720  77.4209976
  48.6793098  23.7620506  78.2432098  47.1886444  22.9679909  77.7003479
  48.4596977  23.2790966  76.5323334  48.4900703  26.1745605  75.3325043
  49.6441002  25.7037239  75.1594772  47.9113731  26.8335228  74.3252335
  47.0238609  27.2603645  74.5493546  48.5014954  26.9350300  72.9486542
  48.9727898  25.9547043  72.8783035  47.3654327  26.9765511  71.9781494
  46.9833870  27.9899654  71.8551331  47.9755592  26.7355289  71.1076508
  46.1445389  26.0658703  72.1207504  45.7773209  26.1898079  73.1395187
  44.9094429  26.4176216  71.1783295  44.1575661  25.6521282  70.9865036
  44.2772942  27.1647987  71.6581345  45.2983551  26.6598053  70.1892929
  46.2961769  24.5149231  71.9320526  46.4431839  24.2503967  70.8849030
  47.2833138  24.1653709  72.2344971  45.5648308  23.8280621  72.3580246
  49.6473541  27.9135246  72.6344757  50.2520714  28.0146751  71.5515289
  50.0192909  28.7173519  73.6723938  49.6737442  28.5587311  74.6080933
  50.7633743  30.0135670  73.5018463  51.1792831  30.1527786  72.5039749
  49.6729622  31.1649189  73.5858459  49.2669945  30.9566059  74.5757446
  50.2366829  32.0978050  73.5791245  48.5271721  31.2206173  72.6788559
  48.1119347  30.2161007  72.5974655  47.7520332  31.9718819  72.8300934
  49.1063652  31.4464588  71.2517624  49.7238998  30.5581951  71.1185913
  48.4137192  31.4187984  70.4105835  49.8359184  32.7278328  71.0768204
  49.8812637  33.3261490  71.8892593  50.5038834  33.0129051  69.9729538
  50.4329910  32.1728058  68.9959793  50.8641853  32.4615822  68.1294937
  49.6987114  31.4793148  68.9986496  51.2217979  34.0959549  69.8002777
  51.6690369  34.3441734  68.9293747  51.3935089  34.7439613  70.5557251
  51.9672050  30.1538048  74.5219803  51.7643356  30.1810322  75.7405624
  53.2108536  30.1224728  74.0967941  53.6854782  29.9601994  72.6683426
  53.4353523  30.7634163  71.9752502  53.2612000  29.0601444  72.2233734
  55.1981735  29.8828068  72.6782074  55.6412354  30.3586197  71.8033371
  55.5302315  28.8533497  72.8125839  55.5968819  30.5748920  74.0162735
  55.6892319  31.6500015  73.8622742  56.5079002  30.2022800  74.4845657
  54.3914795  30.3665390  74.9946365  54.5305252  29.4310989  75.5365906
  54.2628860  31.5374584  75.9131699  54.6317253  31.4099979  77.1074142
  53.7027588  32.6463394  75.4488678  53.3534241  32.7379684  74.5056458
  53.5808220  33.8915863  76.3229599  54.5582047  34.0236740  76.7870483
  53.2325706  35.1437569  75.5192490  53.7873650  35.2436829  74.5863419
  52.1948090  35.1306114  75.1861267  53.7186584  36.3451767  76.3155060
  54.8201904  36.3569374  76.9126816  52.9369621  37.3297501  76.3426208
  52.6122360  33.7270889  77.4840393  52.5875664  34.5730286  78.3244934
  51.6616707  32.7685089  77.3778610  51.7491493  32.1453667  76.5878296
  50.6151390  32.4927101  78.3295670  50.6894569  33.3456116  79.0042038
  49.1817703  32.4806175  77.5984879  49.0464478  31.5368156  77.0702591
  48.4469185  32.4323540  78.4020844  48.9183121  33.6054649  76.5309448
  49.5428429  33.4364243  75.6537399  47.5199013  33.5353928  75.9532547
  46.6957512  33.9517136  76.5325241  47.4833717  34.1421814  75.0485077
  47.2848969  32.5138512  75.6543732  49.1688347  35.0230598  77.0355606
  48.6425819  35.7505646  76.4175797  48.6072235  35.1142540  77.9652786
  50.2490997  35.1397552  77.1222305  50.9404526  31.2169991  79.2416000
  50.1732635  30.7902241  80.1042709  52.0556068  30.5209866  78.9357681
  52.6729889  30.9758224  78.2784500  52.4818916  29.3719482  79.6643753
  51.7029381  28.6148815  79.7548141  53.6203117  28.7404938  78.8438263
  53.1831474  28.5334225  77.8670425  54.4870262  29.4013577  78.8310013
  54.0416756  27.4558334  79.3163834  54.9942207  27.5672894  79.2735596
  52.9846077  29.7922344  81.0576935  53.4300156  30.8873520  81.2423630
  52.7803116  28.9467087  82.1140671  52.3686180  28.0404396  81.9429398
  52.9493141  29.1652508  83.5557175  52.2714272  28.5223446  84.1171799
  54.3599167  28.6187077  83.9656982  55.1178513  29.3259544  83.6288910
  54.4945869  28.6912022  85.0449142  54.7228203  27.2227573  83.4845657
  54.5700722  27.1064453  82.4116058  56.1690941  26.8806896  83.8502579
  56.3829613  27.2321968  84.8596191  56.5621758  25.8743172  83.7060242
  56.7582817  27.5409565  83.2138596  53.7926826  26.1617355  84.0973892
  52.8322334  26.3603058  83.6217651  54.0882645  25.1154442  84.0198898
  53.8152275  26.4008083  85.1606064  52.5433350  30.5427914  84.0276031
  53.0368462  31.0659313  85.0446472  51.5606918  31.0900764  83.2945480
  51.2473984  30.5384216  82.5086594  51.0535507  32.4447708  83.4866180
  51.9513969  33.0512352  83.6056747  50.1935692  32.9528122  82.3299255
  50.5972748  32.6312141  81.3698807  48.7267036  32.5214767  82.3932190
  48.3311462  32.8387756  81.4283524  48.7498169  31.4338551  82.3250656
  48.1600571  33.0280571  83.1744919  50.1287727  34.3423996  82.3203888
  50.9607964  34.7223969  82.0289536  50.1853638  32.4923592  84.8561325
  49.8130264  31.5245075  85.4214630  49.9526176  33.7375336  85.3454361
  50.2225952  34.5574722  84.8211136  49.2988396  33.9250984  86.7318497
  48.8043289  32.9900703  86.9950638  50.2438240  34.2542992  87.8190689
  49.7668114  34.1390457  88.7923508  50.9408989  33.4202843  87.7378006
  51.0556564  35.5511818  87.7451324  51.6572189  35.5641747  86.8362579
  50.3704147  36.3614922  87.4962463  52.1150665  35.8009300  88.7585297
  51.6598511  35.8892860  89.7449799  52.7713432  34.9306793  88.7666855
  52.8723793  37.1348305  88.4425201  53.2555313  37.0338058  87.4270935
  52.1927643  37.9821854  88.3518753  53.8769951  37.4959106  89.4023743
  53.4519005  37.5599518  90.3163147  54.6360168  36.8310280  89.4461670
  54.2615738  38.4095917  89.2089996  48.1007805  34.8158646  86.6925583
  47.9551315  35.6645546  85.8118439  47.3509407  34.7107124  87.7584839
  47.5581970  34.0465240  88.4906082  46.1289673  35.5496216  87.9020920
  45.4802818  35.4395599  87.0330734  45.2945251  35.1293602  89.0871277
  45.0653534  34.0639000  89.1065140  45.8151436  35.3301125  90.0234833
  43.8773384  35.8360863  89.0845184  43.1580391  35.9633636  88.0854034
  43.4454041  36.4806900  90.1404572  44.0160027  36.4638748  90.9736710
  42.6799316  37.1373444  90.0860825  46.3688660  37.0846825  87.9589615
  46.9299126  37.6229210  88.9368362  45.8313370  37.7163086  86.8735123
  45.3921928  37.2486954  86.0933838  45.8329010  39.1729774  86.8644028
  45.9669495  39.4685020  87.9049835  47.0382233  39.7361794  86.1424408
  46.9463539  40.8217964  86.1092300  48.3756828  39.2935257  86.7278366
  48.4876709  39.7908478  87.6912766  48.5045815  38.2133980  86.7971802
  49.2200203  39.6760521  86.1543655  47.0772057  39.2120705  84.8370743
  46.6660843  39.8726616  84.2747650  44.4716225  39.6927795  86.3336945
  44.4007874  40.7875481  85.8071976  43.4572563  38.8425903  86.4564362
  43.5867271  38.0026932  87.0022507  42.1463280  38.9222565  85.7254868
  42.0538216  39.7285118  84.9978104  41.9449615  37.6600952  84.8090439
  42.0863457  36.8374214  85.5099792  40.9078560  37.5858231  84.4819412
  42.7562904  37.4028397  83.5230789  42.3124352  36.5284615  83.0471039
  42.6332016  38.3097076  82.9310150  44.2463036  37.0965080  83.7127991
  44.6779556  36.1474648  84.4186859  45.1506538  37.8548508  83.1214981
  40.9605598  39.0566559  86.7201157  39.8424034  39.3304367  86.3808746
  41.2766609  38.6294937  88.0273972  42.2500191  38.4185448  88.1952667
  40.3456917  38.3447266  89.1045074  39.3982620  38.8218994  88.8539505
  39.9557686  36.8314819  89.2588120  40.8361435  36.2399330  89.0075836
  39.7463875  36.6401482  90.3112564  39.0211296  36.1532860  88.2606735
  39.2209358  36.5883446  87.2814331  39.2132874  34.6556168  88.2413712
  40.2564201  34.3806229  88.0853424  39.0314026  34.2410049  89.2328873
  38.5620728  34.1890373  87.5022278  37.5593224  36.3958054  88.6705322
  36.9266815  35.8432236  87.9758987  37.3912468  36.1351128  89.7154694
  37.2871513  37.4422874  88.5330353  40.7336845  38.9016571  90.4240341
  39.9704971  39.7950096  90.9220428  41.8273582  38.5693512  90.8684540
  37.6941719  52.9130058  49.1164398  36.7463799  52.7578773  49.4290504
  38.2381554  53.5092354  49.7236443  37.5098190  53.3784714  48.2392578
  38.2747803  51.6107483  48.8876686  37.5207291  51.0554810  48.3298187
  39.5970879  51.6707268  48.1473732  39.3462639  52.2024956  47.2295456
  40.3450623  52.2401810  48.6990585  40.2410240  50.3338547  47.8055000
  41.0871544  50.6388893  47.1897774  40.6073570  49.9324722  48.7503777
  39.2807732  49.0993156  46.8727989  39.0125999  50.0338097  45.4376869
  40.0294838  50.2917328  45.1418381  38.5818214  49.3712196  44.6870193
  38.3530769  50.8905678  45.5758820  38.4602661  50.8645058  50.2335663
  39.1217384  51.3886681  51.1596336  38.0681992  49.5681992  50.2432938
  37.4803505  49.2277985  49.4958572  38.4889793  48.6188316  51.3035240
  39.5555229  48.6545296  51.5255775  37.6494064  48.9781799  52.5541229
  37.9040451  49.9718361  52.9227867  36.5905457  49.0056534  52.2969017
  37.9299126  47.9969940  53.6975937  37.7604065  46.9517212  53.4391861
  39.0164070  47.9970360  53.7849770  37.2418480  48.4029274  55.3460045
  36.8932953  46.6799202  55.9807739  36.2326279  46.8789520  56.8245773
  36.3599091  46.0996590  55.2278481  37.7791672  46.1482010  56.3280563
  38.1937561  47.1824188  50.7051735  37.1583748  47.0071602  50.0786667
  39.0904427  46.2800789  50.9802208  39.9889984  46.4152184  51.4211731
  38.8494606  44.8187408  50.7643776  38.4481697  44.6787109  49.7606544
  40.1288757  44.0231094  50.9023170  40.5065880  44.0790634  51.9232483
  39.9007721  42.5189323  50.5770607  39.8781166  42.3736877  49.4970169
  40.7592773  41.9990158  51.0022163  39.0593376  42.0514107  51.0884476
  41.1614685  44.5146446  49.7957726  41.0579834  44.0053329  48.8376541
  40.9655113  45.5686111  49.5986519  42.6332703  44.3713531  50.3243065
  43.3173218  44.6118736  49.5104790  42.8319435  45.0320129  51.1682014
  42.6700478  43.3283997  50.6389656  37.7256927  44.3581238  51.6226654
  37.6462708  44.6578140  52.8131981  36.6471901  43.7545815  51.0139236
  36.6965370  43.4747810  50.0447083  35.4796906  43.2992439  51.7862854
  35.6804771  43.2448273  52.8562508  34.3235931  44.3460732  51.6500397
  34.2120132  44.7156067  50.6306801  33.4101143  43.8438339  51.9685020
  34.5866966  45.5661545  52.5115929  34.8942680  45.3485565  53.5344086
  35.4849625  46.0799294  52.1691666  33.3920097  46.5509453  52.5222664
  33.1404343  46.7424698  51.4791336  32.5412827  46.0802689  53.0150490
  33.7393990  47.8014946  53.2048454  34.1335487  48.5499535  52.6529846
  33.8331490  48.0284309  54.5083199  33.6239128  47.0325890  55.3778763
  33.6523705  47.3358040  56.3408661  33.3430176  46.1001778  55.1099052
  33.9838028  49.2283478  54.9856300  34.0144997  50.0462723  54.3938866
  34.0634995  49.2579231  55.9920502  35.0642891  41.8938789  51.4441833
  35.2796173  41.4188614  50.3530350  34.5730438  41.0870895  52.3821068
  34.5229225  41.4502602  53.3232193  33.9597168  39.7777138  52.1200104
  34.6671333  39.1461716  51.5825920  33.7540932  39.3768120  53.1125298
  32.6128235  39.9540558  51.3614349  31.7217751  40.7056046  51.7710190
  32.4041176  39.0956345  50.3836823  33.2286758  38.5790787  50.1128044
  31.1445484  38.7248955  49.8093147  30.4433918  39.3356438  50.3780518
  31.0275269  39.2077103  48.3755722  31.4574585  38.4235764  47.7523575
  29.5358925  39.2482491  47.9173050  29.2595539  39.2665062  46.8630753
  28.9682217  38.3480644  48.1529312  29.0068512  40.0603714  48.4159737
  31.7472534  40.5039024  47.9474220  31.5493069  41.2310371  48.7349434
  32.7883224  40.1817398  47.9695129  31.5275669  41.0759087  46.5649796
  31.8943596  42.1007881  46.6214600  31.9698849  40.4716606  45.7729340
  30.4577541  41.0828056  46.3562851  30.7509594  37.2168236  50.1203995
  31.6268940  36.3593292  49.9791870  29.4922810  37.0319748  50.4664917
  28.8447742  37.7914772  50.6213722  28.8373089  35.7701340  50.9564018
  29.6364098  35.0350990  51.0526466  28.2442627  35.8606377  52.3420372
  27.5193081  36.6686554  52.4402771  27.7420139  34.9163704  52.5522881
  29.2389069  35.9552803  53.4149017  29.9134808  36.7915306  53.2312317
  28.6475163  36.2360344  54.2864189  30.1640129  34.7528877  53.8109093
  30.9389038  34.8484154  53.0503006  30.5872459  34.9133339  54.8024864
  29.5911064  33.4008598  53.6995888  30.0030899  32.7544327  53.0419426
  28.5140438  32.8748474  54.2413521  27.8101883  33.5123253  55.1582451
  28.1585979  34.3920670  55.5114670  26.9053020  33.1018715  55.3393784
  28.2148190  31.6691608  53.8684616  28.9682312  31.1351910  53.4593811
  27.5795879  31.2437744  54.5284843  27.7717762  35.1495934  50.0269547
  27.3614750  35.8283882  49.0421753  27.4633884  33.9009018  50.2532692
  27.9122753  33.4446144  51.0345573  26.3338375  33.1786766  49.5519981
  25.3387852  33.5713158  49.7612991  26.4432678  33.3060951  48.4750175
  26.3468742  31.6720486  49.8265152  27.3130322  31.1010094  50.3664856
  25.3261871  30.9159698  49.4220276  24.4501114  31.3504105  49.1693306
  25.3074322  29.4860477  49.5331078  26.3092270  29.1244411  49.3012733
  25.0292339  29.0830517  51.0395622  25.1317978  28.0364990  51.3264503
  25.6611748  29.6119022  51.7530518  24.0472450  29.4503040  51.3377762
  24.2819099  28.8569336  48.5002441  23.3786755  29.5054131  48.0471458
  24.4540443  27.6143608  48.1715431  25.3561745  27.2097034  48.3777237
  23.5412083  26.7649994  47.4296646  22.4860725  27.0372925  47.4551086
  23.8951721  26.8608189  45.9407997  24.2678585  27.8500633  45.6750946
  24.9028320  25.9302940  45.3599396  25.9141521  26.0143871  45.7577629
  24.5643444  24.8962173  45.4248428  24.8994179  26.1377144  44.2898636
  22.7118683  26.8065853  45.2007446  22.8986034  26.8139896  44.2591095
  23.5956421  25.3748455  48.0185242  24.3047180  25.1535892  48.9922752
  22.8180237  24.4639702  47.3686066  22.4020691  24.8305740  46.5243988
  22.8481693  23.0454597  47.5983582  23.7337284  22.7192993  48.1438026
  21.6970787  22.7132072  48.4794617  21.4957619  21.6534538  48.3229408
  21.8574123  22.9762859  50.0068893  22.5469284  22.3296871  50.5496407
  22.2578926  23.9658394  50.2271080  20.9604950  22.8653488  50.6162682
  20.4511967  23.2456264  48.1843147  20.2260952  22.6174488  47.4941521
  22.6240444  22.2817039  46.2744904  21.9497013  22.7402611  45.3550568
  23.1318207  21.0164871  46.2682266  23.6710243  20.8061523  47.0959473
  22.6732216  19.8549461  45.4243698  21.9746971  20.1469631  44.6402206
  23.8319530  19.1072521  44.8333588  23.3863850  18.3288441  44.2139664
  24.5771599  19.9323807  43.7238426  24.0519257  20.0680828  42.7784309
  24.8838348  20.8911133  44.1420364  25.4855843  19.3911266  43.4594421
  24.7450027  18.4326935  45.7936745  25.2762222  19.2760811  46.2348213
  24.3164349  17.8395824  46.6015434  25.4286289  17.7775517  45.2537270
  21.7668343  19.0316353  46.3265724  22.0549088  18.8602791  47.5700378
  20.8857899  18.2464828  45.7198143  20.8123741  18.4520760  44.7336922
  20.2500515  17.0259838  46.2611923  20.0340652  17.1905155  47.3168335
  18.9552517  16.8389397  45.4718094  19.2118950  16.6425095  44.4308243
  18.5437202  15.8949652  45.8291054  17.9019184  17.9699383  45.6533585
  18.1564751  18.9022503  45.1492805  17.0090141  17.6856785  45.0965652
  17.5136642  18.2248421  47.1764183  17.0831661  17.2457924  47.8242035
  17.6765442  19.3628159  47.6737251  21.1589336  15.7697353  46.3271713
  20.8168259  14.7732573  47.0206490  22.2025185  15.7700024  45.4962807
  22.5578632  16.6092606  45.0609932  22.8483791  14.4543772  45.1026230
  22.6741829  13.6989822  45.8688698  22.0355759  13.8997526  43.8357353
  22.5505981  12.9879112  43.5334129  21.0622444  13.5597572  44.1894684
  22.0057907  14.8538704  42.6382370  21.6480865  15.8565931  42.8721085
  23.0137482  14.9129601  42.2275887  21.0963459  14.3014660  41.5364227
  20.0766430  14.0746393  41.8476448  21.1433163  15.0927963  40.7882996
  21.6717453  13.1544352  40.8296700  22.2573147  12.5415144  41.3787918
  21.5598202  12.8912516  39.5112305  21.0172710  13.6907063  38.6558571
  20.4515858  14.4751339  38.9470215  21.0072136  13.5148983  37.6613274
  22.1985111  11.8171320  38.9471054  22.6914921  11.2268591  39.6018181
  22.0717773  11.4427233  38.0176659  24.3318844  14.6790285  44.7348404
  24.6763802  15.5884819  44.0507469  25.1126003  13.7346544  45.2032433
  24.6970501  13.0141315  45.7761879  26.5110397  13.7944651  45.0973358
  26.7975426  14.8375530  45.2314720  27.1439514  13.0519619  46.3037758
  26.7707901  13.4893265  47.2298203  26.8601322  12.0001678  46.2680550
  28.6543465  13.1673555  46.4174500  29.1708183  14.2783823  46.1011581
  29.2348919  12.2901573  47.1159668  27.0250988  13.3306589  43.8144760
  27.1927185  12.1198692  43.5822639  27.3252487  14.3047428  42.8615952
  27.1402035  15.2710228  43.0899849  27.8299980  14.0665979  41.4864616
  28.5932426  13.3047523  41.6450615  26.7497997  13.5062256  40.5975990
  26.3941803  12.5410748  40.9583168  25.4558067  14.2946568  40.4027290
  25.6571827  15.3122911  40.0681152  24.8010426  13.7218409  39.7460213
  24.9920025  14.4495344  41.3768959  27.2171555  13.2788267  39.3517227
  27.7186508  12.4628572  39.4172897  28.4766388  15.3443508  40.8628693
  27.9549141  16.4565296  40.9886284  29.4807129  15.1295471  39.9982224
  29.9131699  14.2168961  39.9860115  29.9280624  16.1066933  38.9926949
  30.4141884  16.9679127  39.4510422  30.9071712  15.3557625  37.9847260
  30.4961109  14.4232588  37.5979843  31.0937519  16.0028515  37.1276588
  32.1529388  15.0015850  38.7560616  32.8568954  15.8337517  38.7491608
  31.9524479  14.6768980  39.7770805  32.8173790  13.7523489  38.2066422
  33.5737839  13.0774183  38.8858032  32.6358528  13.4216137  37.0104485
  28.8004150  16.6821671  38.0799484  28.8303814  17.8778381  37.6976814
  27.8309631  15.8640614  37.7676697  27.7979889  14.9866257  38.2667885
  26.7105198  16.2196484  36.9707642  27.1273365  16.5161991  36.0082550
  25.8136520  14.9614458  36.7282066  26.4387074  14.0914049  36.5271301
  25.2185879  14.6974297  37.6024513  24.8307514  14.8694820  35.5704613
  24.2178040  13.9725237  35.6591148  24.1013775  15.6755943  35.6498184
  25.4595528  15.0580215  34.1203728  26.6730118  14.9622307  33.9351959
  24.6823559  15.2606506  33.2114067  25.8205948  17.4281578  37.4361496
  25.1676178  18.1124210  36.6462059  25.9500713  17.6323261  38.7896156
  26.4770870  16.9905987  39.3645401  25.2331123  18.7429962  39.4800339
  24.8192940  19.4452877  38.7564011  24.0917797  18.1533718  40.2966347
  24.4012604  17.3436565  40.9574547  23.7002087  18.9315929  40.9517326
  22.9638824  17.5918560  39.4272156  23.4256039  17.3313217  38.4748306
  22.6490021  16.6624069  39.9016380  21.7904034  18.6272926  39.2580833
  21.8042183  19.4449177  38.3237419  21.0079250  18.8166103  40.1964035
  26.0641384  19.6330242  40.4044304  25.6566200  20.8206520  40.5042267
  27.1601334  19.1746330  41.0473747  27.4123707  18.2160225  40.8536186
  27.9500008  19.9018078  42.1115265  27.3014908  20.3437119  42.8680038
  28.8973961  18.8987579  42.8156433  29.4029770  18.2660141  42.0861778
  29.9860554  19.7423420  43.5670891  30.7466640  19.0157452  43.8528175
  30.3778610  20.5684319  42.9736557  29.6549339  20.0211258  44.5674591
  28.0567341  18.0996780  43.8719711  27.5271072  18.7672806  44.5516052
  27.2761364  17.5443802  43.3519554  28.7675838  17.0349464  44.6312065
  29.6020966  17.4735298  45.1783218  28.1985874  16.6289196  45.4675598
  29.0300522  16.2712975  43.8990517  28.5903378  21.0509300  41.3864059
  28.5363007  22.2006226  41.8292656  29.1759663  20.6475067  40.2511444
  29.0294399  19.6927910  39.9559364  30.0123100  21.5564594  39.4843407
  30.7634621  21.9893627  40.1450005  30.7078285  20.8292618  38.3545952
  30.0546360  20.1943226  37.7560196  31.1608791  21.5912342  37.7203636
  31.8553276  19.9260406  38.7380180  31.5111217  19.2761631  39.5425568
  32.1681938  18.9920616  37.5131073  32.6489410  19.6071815  36.7524376
  32.9172821  18.2544765  37.8010979  31.3281746  18.4618034  37.0644531
  33.0970192  20.6420574  39.2271767  33.7527924  19.9369068  39.7378769
  33.5689507  21.2759418  38.4764595  32.7639008  21.2461624  40.0710869
  29.1608295  22.7350006  38.9207687  29.4091225  23.9333191  39.1031647
  28.0272236  22.2796268  38.3925705  27.8256569  21.2935066  38.4764404
  27.1356583  23.0979786  37.5481949  27.7979507  23.6289120  36.8643990
  26.2081966  22.1766586  36.7939835  25.5926933  21.6806240  37.5444527
  25.4993782  22.7693672  36.2157326  26.7862701  21.0633545  35.9476280
  27.5243034  20.5578346  36.5704079  26.0044193  20.3533936  35.6778564
  27.5248356  21.4317894  34.6585846  28.0667038  22.5211716  34.5172005
  27.7450352  20.4743919  33.7541084  27.3430271  19.5514488  33.8357544
  28.3299885  20.7509613  32.9785843  26.3048992  24.1368790  38.4241180
  26.2937660  25.3268528  38.1331329  25.6529026  23.6315289  39.5096474
  25.7615204  22.6518288  39.7298508  24.9614487  24.5003662  40.4690399
  24.1582317  25.0118771  39.9386520  24.2914333  23.6729813  41.5806313
  24.8059311  22.7188396  41.6946945  24.2856483  24.2322712  42.5161858
  22.7583389  23.4226303  41.5256195  22.3896465  23.0516357  42.4819298
  22.3432331  24.3840942  41.2233391  22.4197941  22.3648567  40.4259071
  22.8825417  22.7347279  39.5109406  22.8413887  21.3739643  40.5947037
  20.8699780  22.4259853  40.3736115  20.4311638  22.2406292  41.3540115
  20.7565365  23.4816322  40.1269379  20.2704010  21.5191212  39.3473434
  19.2620411  21.5739155  39.3649063  20.5830631  21.8275318  38.4378204
  20.4333649  20.5355377  39.5089264  25.9461174  25.5310802  41.1586456
  25.5853767  26.6575069  41.3729973  27.1628952  25.1296539  41.4844360
  27.4324913  24.1577988  41.4304314  28.2007179  26.0021534  42.0593262
  27.7485085  26.3981190  42.9686241  29.4680119  25.2049255  42.4509315
  29.6471863  24.6034622  41.5597267  30.7574596  26.0506573  42.8414421
  30.9549866  26.9136276  42.2055435  30.6378880  26.4033451  43.8658524
  31.6915226  25.4903202  42.8821831  29.2010441  24.2691917  43.4817924
  29.2280293  23.4178009  43.0390663  28.5044327  27.1205235  41.0724411
  28.5231895  28.2390232  41.4618683  28.7980671  26.7651958  39.8425407
  28.9644775  25.7854004  39.6625137  29.0970993  27.7135830  38.7250595
  30.0985260  28.1297379  38.8348618  29.2958241  26.7350922  37.5000305
  30.1362019  26.0930538  37.7639427  28.3911400  26.1468372  37.3464012
  29.7278461  27.3742237  36.1316872  29.0891781  28.1970081  35.8103867
  30.7817478  27.6482544  36.1795921  29.7563705  26.3799820  34.9884605
  30.3764172  25.5107174  35.2075996  28.7514324  25.9724236  34.8784904
  30.1297169  27.1499786  33.7100983  29.4210529  27.9781609  33.7134171
  31.1338139  27.5615768  33.8124542  29.9990978  26.3764477  32.4097252
  29.0494671  26.0629711  32.2681808  30.1904736  27.0638161  31.6948776
  30.5948181  25.5625725  32.3565788  28.0637455  28.7591324  38.4671593
  28.3703938  29.9548206  38.6073380  26.8455620  28.3407192  38.1853943
  26.7976341  27.3398705  38.0584908  25.6179714  29.2385216  38.2462349
  25.6022320  29.8622608  37.3524780  24.3876076  28.2775288  38.1223602
  24.4452381  27.5248241  38.9086266  23.4022522  28.7020912  38.3145103
  24.4095612  27.4722672  36.7345734  23.9893436  28.1362476  35.9791603
  25.4006844  27.1359730  36.4301376  23.5314217  26.2105293  36.6754990
  22.6969299  25.9340343  37.5312691  23.6854820  25.4146671  35.6769867
  24.4785194  25.5350361  35.0632248  23.1010246  24.5914478  35.6483078
  25.4756031  30.1628532  39.5005722  24.9231186  31.2736931  39.3156586
  25.8499317  29.6174850  40.6688385  26.2052803  28.6737595  40.6121864
  25.8641376  30.4098797  41.8811836  24.9099464  30.9335899  41.9390450
  26.0278435  29.5754833  43.1465187  25.1117458  28.9926872  43.2425156
  26.8106976  28.8208675  43.0703773  26.2819061  30.3581429  44.4705124
  27.1114635  31.0467644  44.3100739  25.0776978  31.1090603  44.8773346
  25.2349186  31.6143208  45.8302765  24.8418999  31.9028206  44.1684990
  24.1695995  30.5450993  45.0904160  26.8342342  29.5430984  45.6880798
  26.7444229  30.0810356  46.6318245  26.0876522  28.7610626  45.8264275
  27.7657967  28.9814262  45.6186829  26.9088669  31.5852547  41.7985382
  26.5958347  32.7521973  41.9608078  28.1902122  31.2414742  41.5403481
  28.4799271  30.2739773  41.5511169  29.3287182  32.2725487  41.4049988
  29.4475536  32.7949448  42.3542557  30.5992756  31.4705715  41.1127892
  30.4473324  30.6705112  40.3882790  31.4057121  32.0445747  40.6564102
  31.1455708  30.7163601  42.3661880  30.3815346  30.0491161  42.7651176
  32.2777061  29.8819714  41.7982750  32.7324982  29.2750511  42.5811729
  31.8096485  29.1445389  41.1461906  32.9848938  30.5186119  41.2666016
  31.6501160  31.6665688  43.5006790  30.8444004  32.1989212  44.0061569
  32.1453323  31.0157299  44.2212830  32.4330978  32.3319054  43.1368561
  29.0277996  33.2408524  40.2723923  29.3460388  34.4394531  40.3578682
  28.4133663  32.8612823  39.1939774  28.2199020  31.8706474  39.1576958
  28.0121498  33.6825294  38.0569305  28.8471394  34.2641792  37.6663170
  27.3595028  32.8142471  36.9521446  26.6741753  32.0803108  37.3761292
  26.8238945  33.4605942  36.2568321  28.4046803  31.9996243  36.1630402
  29.1678619  31.6248264  36.8450813  27.8765621  31.1449852  35.7402115
  28.8527565  32.8764153  34.9510841  28.8649063  34.1696548  34.9372978
  29.2791996  32.3015785  33.9678535  27.0256424  34.7840233  38.5019875
  27.1920719  35.9414482  38.0938225  26.0346432  34.4229584  39.2984772
  25.9377060  33.4327850  39.4724274  25.1006985  35.3654633  39.8986969
  24.6837635  35.8748665  39.0299187  23.9436607  34.6245728  40.5565643
  23.5341587  33.8750992  39.8792877  24.2668896  34.0790367  41.4431458
  22.8735371  35.6259422  40.9441261  23.2723866  36.2694931  41.7282600
  22.5014572  36.1839218  40.0848732  21.6146183  34.8465500  41.5006065
  21.0889282  34.1923523  40.8050690  21.9205379  34.2989197  42.3920212
  20.6098118  35.9277344  41.9895058  19.8246689  35.4291954  42.5579338
  21.0452995  36.6370239  42.6933250  19.9633274  36.5340271  40.7851219
  19.2887764  37.2424088  41.0366669  20.6436043  36.9130058  40.1419258
  19.4919071  35.8125267  40.2585297  25.8880653  36.3448563  40.7979431
  25.6100235  37.5398026  40.7006493  26.8261566  35.8665924  41.6647186
  27.0036430  34.8729286  41.6296463  27.6075077  36.6730156  42.6318398
  26.9774055  37.2241478  43.3299332  28.4820595  35.7277298  43.5785866
  29.0098133  35.0500374  42.9075356  29.5777435  36.4444313  44.3878212
  30.2081280  37.0497322  43.7364159  29.1747265  37.2079277  45.0532188
  30.2218132  35.7356377  44.9082985  27.6524830  34.9319038  44.5321312
  27.2292099  35.6157112  45.2678947  26.8213539  34.3938141  44.0762978
  28.3654652  33.8331528  45.3251266  28.8900223  34.0304451  46.2600136
  27.5605679  33.1552963  45.6093025  28.9467239  33.2894516  44.5803871
  28.4067860  37.7644539  41.8376236  28.3251534  38.9684296  42.0357170
  29.0358677  37.2877159  40.7791405  29.1144180  36.2973366  40.5972672
  29.8367710  38.1299095  39.8385544  30.6189270  38.6524811  40.3892365
  30.5415344  37.1569595  38.8668747  29.7205086  36.5455475  38.4924545
  31.2598000  37.9951401  37.7078285  30.6310577  38.0919228  36.8227234
  31.5926800  38.9290886  38.1606331  32.1658020  37.4702148  37.4049835
  31.6241894  36.2926712  39.5799675  32.4961243  36.9435043  39.6451569
  31.3742085  36.1028175  40.6237907  32.0252876  34.9850464  38.8418884
  31.1722012  34.5305367  38.3381348  32.7095184  35.2513657  38.0362816
  32.5780678  34.3412590  39.5260391  28.9632931  39.1318512  39.1312218
  29.4465351  40.2746964  38.9299126  27.7594719  38.8266869  38.7781410
  27.3417530  37.9336777  38.9975700  26.8530121  39.6833305  38.0511589
  27.4355412  40.1919937  37.2830276  25.7893295  38.8413239  37.3853035
  26.2682533  38.3201408  36.5563889  25.3800545  38.2598686  38.2114449
  24.6135540  39.7620811  36.8644905  23.9172993  40.0602570  37.6483421
  25.1063900  40.6513138  36.4714546  23.5808582  39.1556435  35.9162140
  23.6676884  39.5440292  34.6883545  22.7802544  38.2459831  36.3352432
  26.3117638  40.7772331  38.9211006  26.4178867  41.9799767  38.6356316
  25.8658772  40.4400711  40.0953903  25.7437572  39.4786987  40.3799095
  25.2139721  41.2725945  41.0535736  24.3433723  41.7739601  40.6307411
  24.7428627  40.3665619  42.1723061  25.5397949  39.6588402  42.4006271
  24.5367928  41.0111809  43.0267639  23.6007137  39.4482346  41.8235321
  23.6553707  39.1190033  40.7858810  23.6651611  38.5390816  42.4213524
  22.2027950  40.0268631  42.2010269  21.3653927  39.3788223  42.9325562
  21.9110928  41.2167435  41.9065742  26.1777897  42.2644730  41.7166672
  25.8019238  43.3799973  42.0689011  27.4236069  41.8774261  41.8245392
  27.5409813  40.9043159  41.5808525  28.5863647  42.6574631  42.2132912
  28.2822456  43.5441856  42.7694702  29.4361038  41.7649117  43.2201042
  29.7113667  40.7843895  42.8316422  30.3417034  42.2916641  43.5209846
  28.5700474  41.5632896  44.5144577  28.3332291  42.3783188  45.3748779
  28.0783291  40.4276962  44.7159691  27.2641716  40.3790016  45.3116875
  28.1082687  39.7701530  43.9499168  29.4178410  43.2084198  41.0552826
  30.4837513  43.8239098  41.2928352  29.1486073  42.8787766  39.8022118
  28.3523827  42.2622185  39.7248611  29.9118252  43.4040794  38.6320801
  29.5167980  42.9145699  37.7418900  29.7290955  44.9362373  38.4188995
  30.4319210  45.5007095  39.0316849  30.1003227  45.1565323  37.4180222
  28.3261528  45.4362602  38.5360031  27.2881718  44.9102135  37.8473511
  27.4293365  44.2056618  37.1375809  26.1280212  45.4892921  38.2702980
  25.1487331  45.3731842  37.8299332  26.4861641  46.3111305  39.2062912
  25.9259415  47.1008263  39.4937439  27.8587952  46.2990952  39.4534149
  28.2723827  47.0544510  40.1051674  31.3533955  43.0851860  38.5991631
  32.1571236  43.8872566  38.1291351  31.7389297  41.9843826  39.1945229
  31.0304928  41.3985367  39.6128502  33.1333275  41.7750473  39.6902885
  33.4323540  42.7285423  40.1256371  33.0055389  40.5094414  40.6594849
  32.7170677  39.6217995  40.0964851  34.3018265  40.1115341  41.3966827
  34.1086922  39.5256958  42.2953453  35.0350990  39.6408386  40.7418137
  34.7691956  41.0369110  41.7333488  32.0835419  40.8180504  41.6528931
  32.4367218  41.6012383  42.0812454  34.1527138  41.3573914  38.6692657
  33.8506165  40.5504456  37.7980919  35.4338608  41.7622032  38.7824860
  35.7232475  42.1702461  39.6599007  36.5397682  41.2749176  37.8266983
  36.1392097  40.5677986  37.1003151  37.0728798  42.5545349  37.0444031
  37.8107529  42.9969292  37.7136765  37.5855522  42.2332611  36.1377335
  36.0319633  43.5955391  36.6795044  35.4687538  43.9344444  37.5490074
  36.5624161  44.4521370  36.2636223  34.9826736  43.1050568  35.6870995
  35.4990387  42.9080734  34.7476006  34.6759300  42.0962563  35.9633789
  33.7696228  43.9860458  35.4109917  32.8766556  43.3702888  35.3035049
  33.5650520  44.6893501  36.2182198  33.9208755  44.8014603  34.2114029
  34.6705284  45.4708557  34.3116226  34.1880836  44.2920532  33.3812180
  33.1826553  45.4569817  33.9982796  37.6462936  40.5358467  38.5353508
  37.8548393  40.8210793  39.6921120  38.4098282  39.6128426  37.8377075
  38.3289413  39.4089088  36.4194183  38.4409409  40.3532028  35.8866272
  37.3785133  38.9693718  36.1167755  39.5099030  38.4558907  36.0034103
  40.4175339  39.0346336  35.8320694  39.2842522  37.8442383  35.1298752
  39.9140587  37.7349434  37.3688774  40.9256287  37.3289833  37.3643265
  39.3104477  36.8369064  37.5003510  39.3788681  38.7164230  38.4828033
  38.8821259  38.1032333  39.2346992  40.4999504  39.5362587  39.2100716
  40.9689674  38.9978104  40.2406311  40.9644127  40.7326698  38.8103065
  40.6796913  41.1340942  37.9283180  41.9621506  41.4538536  39.6072998
  42.8035851  40.7976532  39.8297806  42.6514015  42.5060501  38.6514778
  42.8121033  42.0154381  37.6914940  41.9511375  43.3096123  38.4233971
  43.9783363  43.0854874  39.1246872  43.7721558  43.6683922  40.0223579
  44.6792679  42.3157082  39.4475403  44.6293716  43.9452477  38.0440674
  45.7976418  44.3352737  38.3267365  44.1220818  44.1430473  36.9567795
  41.5749397  42.1104660  40.8928757  42.4224472  42.4736595  41.7021942
  40.3142700  42.1085434  41.1850586  39.6906815  41.6504440  40.5359154
  39.7983398  42.6682930  42.4247971  40.3049088  43.5740509  42.7581062
  38.2829132  42.9488716  42.3657036  37.9038696  41.9300156  42.4454384
  37.9820786  43.5861435  43.1972580  37.8305626  43.6089630  41.0829124
  38.6148262  44.4014587  40.5432281  36.6850090  43.4171600  40.6847420
  40.0799446  41.5983505  43.5496597  40.1352463  42.0354156  44.6764336
  40.0502472  40.3017426  43.2510147  40.1202927  39.9844933  42.2946968
  39.9524841  39.2838402  44.2974892  39.1874123  39.6236687  44.9955444
  39.5375175  37.9174919  43.6933746  40.3328247  37.7235413  42.9736710
  39.4046364  36.8214111  44.7762718  40.3821411  36.6289711  45.2184944
  38.8737373  37.4156990  45.5199585  38.7831497  35.9960556  44.4289398
  38.1684837  38.0567360  42.9886894  38.1909676  37.4081955  42.1129150
  37.3994713  37.7541046  43.6994171  37.9884109  39.0965958  42.7159843
  41.2188339  39.0569344  45.0485611  42.2717819  38.9177551  44.3806000
  41.1873817  39.0520363  46.3543472  40.2648849  39.3019485  46.6809158
  42.2586365  38.7415848  47.3474655  43.2384491  38.8571167  46.8840866
  42.0872841  39.8421593  48.4389915  41.0391159  39.9343948  48.7234955
  42.8501740  39.4611740  49.6509018  43.9019623  39.3517494  49.3865662
  42.8297272  40.2802391  50.3697968  42.4450607  38.5494347  50.0898819
  42.5099220  41.1961212  47.8325081  43.5292740  41.0617332  47.4706230
  41.8437424  41.4451256  47.0064926  42.4186249  42.0120544  48.5494576
  42.2058182  37.2067604  47.7655640  43.2907028  36.5831566  47.6564407
  41.0694046  36.6170578  48.2120323  40.2552223  37.2134399  48.1728210
  41.0170555  35.2598610  48.6125259  41.6887016  34.6450577  48.0133514
  41.5377312  35.1876106  50.1019974  42.6249924  35.1237221  50.1453934
  41.3740349  36.2047043  50.4581261  40.8626595  34.0838089  51.0137291
  40.2800140  33.3529854  50.4529076  41.6701088  33.3974876  51.2688599
  40.2637291  34.5987053  52.3189201  40.9146004  34.9168854  53.2865829
  38.9433975  34.6859932  52.4157448  38.4297638  35.1342621  53.1609535
  38.4377480  34.3667259  51.6018143  39.5927162  34.7218857  48.4384880
  38.6368980  35.4329834  48.6671333  39.3485985  33.5749702  47.7393417
  40.0931320  32.9980774  47.3746986  37.9924622  32.9376602  47.7297592
  37.2130699  33.5952644  48.1147346  37.6001625  32.6708450  46.2060127
  37.6211281  33.5662727  45.5848312  38.2788620  31.9429913  45.7613754
  36.1885033  32.0102005  46.2969551  36.1698608  31.1573811  46.9755211
  35.3670769  32.6311760  46.6543808  35.6041069  31.2393398  44.7307816
  35.3292656  32.7173615  43.7353287  34.5438156  33.3381653  44.1663361
  36.2255249  33.2793579  43.4726830  34.9131393  32.3223953  42.8085403
  37.9868088  31.5985184  48.4795647  38.8018456  30.7196865  48.1523018
  37.1726913  31.4603558  49.4942970  36.6259384  32.2161140  49.8815842
  36.9204521  30.2277241  50.2877235  37.6962509  29.5321407  49.9677238
  37.1341934  30.5671940  51.8044853  36.4808998  31.4369602  51.8738861
  36.7034302  29.6849098  52.2778969  38.5233841  31.0929356  52.3537827
  38.7112770  31.9705658  51.7352715  38.4367867  31.5475178  53.8089981
  39.3191795  32.1027184  54.1271782  37.5429993  32.1450882  53.9883194
  38.4000740  30.7506962  54.5518570  39.6752052  30.1586742  52.0040741
  40.6523590  30.6308422  52.1057091  39.5318375  29.2988491  52.6584816
  39.5810013  29.8233986  50.9712067  35.6030998  29.5157299  49.9943352
  34.4987488  30.1018562  49.8534203  35.6646156  28.1942635  49.6922913
  36.5402451  27.6986237  49.7801590  34.4892387  27.4515514  49.2552834
  33.6158295  28.1011257  49.3128052  34.7876625  27.0992966  47.8141251
  35.7522354  26.5932980  47.8549767  34.0159569  26.3698845  47.5680962
  34.8575668  28.1769772  46.7099686  35.6971626  28.8592110  46.8431549
  35.1807747  27.4266663  45.4483376  34.4064026  26.7539730  45.0796509
  35.2493172  28.1262779  44.6153069  36.1011238  26.8706188  45.6268539
  33.4843445  28.8443699  46.6447182  33.4461861  29.6148930  45.8746872
  32.7141762  28.0970669  46.4537201  33.2220345  29.3737793  47.5606956
  34.0962296  26.1985149  50.0868073  34.8345337  25.2467403  50.1646347
  32.9472885  26.2748070  50.7972298  32.3850021  27.1097031  50.7142677
  32.6360321  25.2667561  51.8360291  33.5082130  24.9631042  52.4149933
  31.6279430  25.9066925  52.8382797  30.7062340  25.8489933  52.2592964
  31.5718842  25.3726559  53.7868385  32.0237122  27.2809963  53.0909424
  31.8334579  27.5214500  54.0006599  32.1358414  23.9176102  51.2323227
  31.6042690  23.9139290  50.0755005  32.1040459  22.8340111  51.9710426
  32.7900314  22.7761288  52.7100754  31.2855034  21.6968288  51.6091042
  30.3472195  22.0293274  51.1650620  32.0888748  20.8434200  50.5560188
  32.2769623  21.5514355  49.7488937  32.9630623  20.3695107  51.0024529
  31.4707088  20.0342121  50.1672325  30.9726067  20.8961697  52.8446693
  31.8097172  20.6232967  53.7074127  29.6616116  20.6605644  53.0114670
  28.9568291  20.9971066  52.3710594  29.2044907  19.7428455  54.0387726
  29.4932766  20.2963676  54.9322586  27.6763268  19.6138630  54.0076866
  27.3381023  18.8571396  54.7155571  27.0631275  20.8833046  54.5980110
  27.3742142  21.7671890  54.0411644  25.9891415  20.8270893  54.7754822
  27.5480824  21.0378246  55.5618820  27.1033459  19.3651733  52.6961975
  26.9580784  18.4162712  52.6868591  29.8841953  18.4227066  53.9975319
  30.1930180  17.8833160  52.8906708  30.1162243  17.7791615  55.1529655
  29.8975163  18.4383907  56.4487457  28.8769474  18.8196297  56.4141617
  30.6586876  19.2165489  56.5052032  30.0693722  17.2519608  57.4352570
  29.1152725  16.7832756  57.6763496  30.5819664  17.6836891  58.2948837
  31.0474033  16.2053127  56.7150574  30.8663597  15.1858301  57.0556107
  32.0698357  16.4845600  56.9695320  30.7459106  16.4596863  55.2555847
  31.6990356  16.5297012  54.7314072  30.0726833  15.2546024  54.5540924
  30.5106010  14.1077385  54.7159386  28.9743900  15.4727163  53.8039551
  28.4489441  16.3336201  53.7505493  28.2564087  14.4262228  53.0918083
  28.6275482  13.4755545  53.4746704  26.7332859  14.4984484  53.5014229
  26.1048870  13.7851620  52.9680939  26.6550636  14.2774878  54.5659218
  26.1166496  15.9299984  53.3857079  26.6167450  16.7675972  52.6049576
  25.1486015  16.2432003  54.1145592  28.4004555  14.5962420  51.5041237
  28.0145569  13.6289759  50.8046036  29.1137714  15.6464472  50.9894409
  29.6069794  16.3053226  51.5748711  29.4284687  15.5857801  49.5385857
  28.7591591  14.9542904  48.9543381  29.2267799  16.9651718  48.8909149
  29.7930222  17.7104034  49.4495773  29.5222206  16.8613873  47.8468628
  27.7726612  17.4975567  48.9035187  27.5117054  17.6768093  49.9465294
  27.8836346  18.8312092  48.2649040  28.2136402  18.6453018  47.2428284
  26.8769550  19.2488594  48.2487221  28.5363464  19.5250301  48.7947083
  26.8156414  16.5787487  48.2192459  27.1847210  16.2142467  47.2605934
  26.8091431  15.6182690  48.7345505  25.8197651  17.0214996  48.2019005
  30.8825111  15.2163162  49.3288269  31.8129005  15.9120111  49.8002892
  31.1293850  14.2913198  48.3639488  30.3293896  13.9916954  47.8251228
  32.4144669  13.6598072  48.1711006  33.1640053  14.2647810  48.6812973
  32.3391762  12.3146505  48.7559853  31.5436954  11.7579403  48.2606239
  33.3087845  11.8868141  48.5011902  32.0382118  12.2875872  50.2624512
  32.7900810  12.7929583  51.2649727  33.7563553  13.0816050  51.2092972
  32.1257820  12.6253357  52.4461136  32.6141319  12.6743822  53.4081459
  30.9616222  11.9365644  52.1925240  30.2327805  11.7002134  52.8505745
  30.8497086  11.7358551  50.8162918  30.0284672  11.2963676  50.2696495
  32.8030357  13.6131487  46.6668663  33.8520775  13.0692854  46.3349571
  31.9187450  13.8537397  45.6807137  31.0008717  14.2176437  45.8932724
  32.0818863  13.3099442  44.2448235  32.4214897  12.2743673  44.2260895
  30.6705856  13.4182358  43.5796661  30.4243069  14.4748678  43.4748878
  30.7420406  13.0463333  42.5575676  29.8679829  12.8358412  44.0321503
  33.0844231  14.1334743  43.4413185  33.5753593  13.6397457  42.4254303
  33.3854752  15.3559093  43.7919350  32.9010658  15.6252604  44.6362724
  34.3193970  16.2446976  43.0705986  35.2531700  15.6832609  43.0395889
  33.9279861  16.5621967  41.6540985  33.6206512  15.6132193  41.2146797
  32.6208725  17.3651733  41.5355225  31.8987961  16.7923393  42.1173897
  32.8007202  18.3961964  41.8400612  32.2446442  17.3930206  40.5128899
  35.0822334  17.1138687  40.8512421  35.0855827  18.1801586  41.0773506
  35.9670715  16.5109043  41.0552025  34.6610107  17.0114517  39.8511505
  34.5453873  17.5363979  43.8619881  33.6288223  18.0611935  44.5766335
  35.7276535  18.1324368  43.7606888  36.5472145  17.6825047  43.3786125
  36.0915222  19.3833141  44.3585358  35.8549843  19.2666836  45.4161491
  37.6605263  19.6296616  44.4546928  38.0464897  19.3510323  43.4741364
  37.9464760  20.6752110  44.5693970  38.3241539  19.0776539  45.6762123
  38.2526855  19.7285709  46.9020004  37.7528648  20.6837997  46.9661789
  38.9748039  19.2894993  48.0401840  38.9968033  19.8960972  48.9334717
  39.6496582  18.1144314  48.0128555  40.1863670  17.7416935  48.8727455
  39.5622253  17.3129692  46.8200417  40.1295929  16.3940506  46.8291702
  38.9885445  17.8758392  45.6169090  39.0557365  17.3687267  44.6657372
  35.4362564  20.5834370  43.6648636  35.7315903  20.8752918  42.5571213
  34.4976349  21.3056698  44.2445946  33.9847107  21.1240158  45.6107903
  34.6703300  21.7060547  46.2266273  33.9827461  20.0785408  45.9191360
  32.6107788  21.8060665  45.7086983  32.2601509  22.1240063  46.6905746
  31.8958664  21.2172966  45.1339417  32.8458443  22.9746056  44.7382126
  33.3695564  23.7635498  45.2780228  31.9603233  23.4355755  44.3006554
  33.8437309  22.5035343  43.6580544  33.3166580  22.1911736  42.7565384
  34.7295685  23.6827831  43.2307167  34.2181816  24.5457096  42.5087357
  36.0677834  23.6633053  43.5368423  36.4519424  22.8991566  44.0740585
  36.9570351  24.6719170  42.9877625  36.6225357  25.6936817  43.1672401
  38.3565788  24.6657772  43.6278572  38.7950668  25.6098328  43.3044586
  38.2454300  24.6172714  44.7110901  38.8407593  23.8068981  43.1631050
  37.1017303  24.4909859  41.4641571  37.5361099  25.5340500  40.8320732
  36.9108925  23.3361206  40.8357315  36.6260071  22.5305977  41.3743172
  37.0713806  23.1526737  39.3355408  38.0470200  23.5530548  39.0599861
  37.0641670  21.6431179  38.9553108  36.0353889  21.2829914  38.9607620
  37.4682121  21.5341682  37.9488411  37.9719887  20.8098373  39.8403358
  39.0196838  21.0619087  39.6763344  37.7270966  21.0194225  40.8815880
  37.7688866  19.3000660  39.5355911  38.0339851  18.7167988  40.4174194
  36.7799225  18.9335918  39.2603645  38.7075539  18.9060555  38.3432274
  38.1697769  19.3086910  37.4848671  39.6972160  19.3616180  38.3768806
  39.0156403  17.4339294  38.3296356  39.6285934  17.1825714  39.0920067
  38.1834335  16.8627262  38.2940903  39.5245514  17.2065678  37.4873695
  36.0612564  23.9064541  38.5681152  36.3025894  24.4649010  37.5332069
  34.8598442  24.2075157  39.1955261  34.6041794  23.6270065  39.9814949
  33.8631744  25.1964722  38.6869774  33.4503784  24.8969021  37.7236748
  32.7175560  25.2296352  39.6768494  31.8680477  25.6704845  39.1552277
  32.4180641  24.2436409  40.0321274  33.0011215  25.8653030  40.5156670
  34.3137016  26.6512470  38.4828758  33.6250191  27.3584366  37.7464828
  35.4088364  27.1069126  39.0843925  35.8870773  26.4667549  39.7021141
  35.9942780  28.4843769  38.8654709  35.2551422  29.2492886  38.6273804
  36.8198090  28.9128437  40.0874748  37.5652084  28.1522732  40.3198891
  37.4768524  30.3041477  39.8994865  38.1368866  30.3944874  39.0367622
  36.7151604  31.0837460  39.9119949  38.0275536  30.3995323  40.8352890
  35.8868637  28.9727325  41.2914810  35.2002144  29.7799473  41.0364952
  35.2678337  28.0916653  41.4606743  36.4109840  29.1557369  42.2295113
  36.8662224  28.5559254  37.6112556  36.9852028  29.5832558  36.9448242
  37.5199089  27.4578419  37.2285957  37.4263954  26.6146450  37.7766571
  38.3550758  27.2692699  36.0430756  39.0891113  28.0694199  35.9479065
  39.2099915  25.9427319  36.3378105  38.5003242  25.1957722  36.6935158
  39.6765327  25.5424938  35.4376717  40.2152252  26.1698437  37.4338455
  40.6759148  27.1478481  37.2946434  39.7935753  26.1540546  38.4388657
  41.3529625  25.1390553  37.4504547  40.8738747  24.1623631  37.5186119
  41.7636833  25.1376038  36.4407959  42.3693581  25.3120480  38.4277115
  42.2514839  26.0311871  39.1270294  43.3321533  24.5064774  38.7854309
  43.5555954  23.4187489  38.0782585  42.9032478  23.2091503  37.3362274
  44.3990746  22.8773251  38.2027702  44.0609207  24.6665344  39.8959541
  44.6602554  23.8845482  40.1182060  43.8469658  25.3355865  40.6216965
  37.6038170  27.1753559  34.7129898  38.2860489  27.2642574  33.7036057
  36.3152390  27.2304306  34.7100220  35.7407074  27.1091557  35.5317917
  35.6195374  27.5229435  33.5025215  36.1960564  27.0138016  32.7301865
  34.1874313  26.8944378  33.8250084  33.7075920  27.3540478  34.6890755
  33.7105217  27.0902958  32.8646431  34.1611938  25.3807716  33.9999046
  34.6898003  25.1398506  34.9222031  33.1507301  24.9853706  34.1034164
  34.8422813  24.7166271  32.7393227  35.9626694  24.2543430  32.8694382
  34.2379913  24.7122478  31.6513519  35.5611267  28.9651432  33.0715523
  35.4064064  29.2818890  31.9138603  35.6787491  29.8215580  34.0297966
  35.7816887  29.4636421  34.9686279  35.4653015  31.1800098  33.8823929
  34.6900940  31.3492870  33.1350594  34.8957024  31.6872387  35.1472206
  35.5051079  31.4894028  36.0290298  34.9529381  32.7668114  35.0081253
  33.3669205  31.5134525  35.4767990  32.8180428  31.8702278  34.6052818
  33.0216599  30.0783100  35.8662338  31.9960289  29.9066811  36.1929207
  33.1145134  29.4667625  34.9687424  33.5645714  29.6821079  36.7243538
  33.0321655  32.3570442  36.7166328  33.3406715  33.4015579  36.6727448
  31.9439468  32.3182755  36.7653847  33.4241486  31.7967815  37.5654869
  36.7430840  31.9384232  33.4546051  37.8153038  31.7762680  34.0040016
  36.4713440  32.7848701  32.4765663  35.5014114  33.0065651  32.3028336
  37.4847641  33.4885216  31.7389507  38.2100792  32.7512589  31.3947659
  36.8690948  34.0862617  30.5021343  36.5511436  33.3143349  29.8013210
  36.0463333  34.7367096  30.7989178  37.8650017  34.8633003  29.8301487
  37.4477043  35.2505302  29.0571575  38.1692314  34.5922546  32.6185341
  37.4507103  35.3695450  33.2840424  39.5344620  34.6226768  32.5945854
  40.0241547  33.9989700  31.9690495  40.3451500  35.3381653  33.6283188
  41.3735237  35.4465828  33.2836571  40.0129395  36.3731880  33.7088089
  40.5499611  34.7223473  34.9789658  41.6573410  34.7936325  35.5671158
  39.5248795  34.0231400  35.4886017  38.6230164  33.8480988  35.0689507
  39.4913330  33.6731873  36.9331741  39.7208099  34.5907936  37.4748802
  38.0125961  33.2952423  37.1740074  37.6781921  32.6305351  36.3774910
  37.9935188  32.7230835  38.1015701  37.0351791  34.4842148  37.3195534
  36.5024261  35.2189560  36.3481598  36.5302773  34.9653778  35.2987213
  35.6604958  36.1605225  36.9163933  35.1097832  36.7674522  36.3260956
  35.7946815  36.1876106  38.2847481  35.2750893  36.9909134  39.3281364
  34.5752487  37.7857742  39.1164322  35.5018349  36.5598831  40.6496086
  35.0398521  37.0544243  41.4912758  36.3161926  35.4651222  40.9758186
  36.4511185  35.1268196  41.9925575  36.7864037  34.7251968  39.9309692
  37.3196220  33.8319511  40.2211266  36.6324577  35.1002464  38.5739555
  40.4265633  32.4981194  37.3036842  40.5078697  32.0883408  38.4450226
  41.1844482  32.0982437  36.2685165  41.0211029  32.4982796  35.3556175
  42.4287796  31.2503357  36.3443489  42.1589127  30.3212738  36.8464622
  42.9218254  30.9095936  34.9836578  43.6510658  30.1157799  35.1454353
  42.0573845  30.4249973  34.5297813  43.4993668  32.0696220  34.2008247
  42.6705170  32.7176018  33.9158134  44.2039070  32.7104111  34.7310257
  44.2446594  31.7879581  32.8740005  44.7894630  30.7611942  32.6524734
  44.2576523  32.7488976  31.9390659  43.6875305  33.5803528  32.0002556
  44.6776237  32.6336517  31.0277786  43.4887123  31.9256306  37.2141495
  44.1681213  31.1697235  37.9417267  43.6045914  33.2584190  37.1779442
  43.2013206  33.7939987  36.4225502  44.5125198  33.9398384  38.1236000
  45.3415146  33.2408371  38.2343483  45.0249939  35.2384872  37.4011192
  44.2988739  36.0513000  37.4147720  45.7800636  35.6634712  38.0624542
  45.5910339  35.1425552  35.9851570  46.4780693  34.1226921  35.5858536
  46.7846489  33.3222847  36.2429352  47.2718964  34.2178383  34.3794785
  47.9912186  33.4747391  34.0683899  46.9757881  35.3031387  33.5236092
  47.6572533  35.4979286  32.3566589  48.5612488  35.1876755  32.4468346
  45.9609337  36.2347260  33.8021545  45.7948532  37.0904465  33.1645317
  45.3041077  36.1851120  35.0557022  44.6713104  36.9978333  35.3804474
  43.9478302  34.2020760  39.5346527  44.6565666  34.7577133  40.3803711
  42.7779579  33.6431122  39.9148407  42.3105774  33.0154724  39.2763062
  42.1576080  33.9811020  41.2227173  42.4730835  34.9353065  41.6447029
  40.6025963  34.2388573  41.0445976  40.1101227  33.3583527  40.6319504
  40.0141373  34.6998253  42.3803978  40.0317802  33.8955116  43.1158333
  40.6137352  35.4788933  42.8511810  39.0049896  35.0666008  42.1927986
  40.4022751  35.4351730  40.0323257  40.9321404  35.1495438  39.1236115
  39.3347397  35.4851761  39.8179283  40.8149414  36.3890457  40.3608589
  42.3970795  32.8992462  42.2637482  42.0964851  31.7146339  42.0080833
  42.9916496  33.3021545  43.4403381  43.4071312  34.5963707  43.8274956
  42.6070213  35.3333549  43.8966026  44.2351074  34.9177361  43.1956062
  43.8668098  34.4751625  45.3264275  43.1316757  34.8368530  46.0453606
  44.7639313  35.0567169  45.5387230  44.1273956  32.9948845  45.5103188
  43.8201408  32.6981163  46.5131302  45.1454697  32.6527786  45.3243294
  43.2406769  32.3067436  44.4761543  43.8577995  31.5677567  43.9651184
  41.8683739  31.8237858  45.0563812  41.1565208  32.6360588  45.6488152
  41.6611176  30.5023575  44.9592361  42.2632866  29.9720879  44.3457947
  40.6095924  29.7467194  45.5301094  40.0335197  30.3799419  46.2048531
  39.6804543  29.1890545  44.4444084  40.2539940  28.5618496  43.7619400
  38.4634018  28.4553089  44.9103317  37.9286690  29.0536880  45.6479683
  37.7889252  28.3241520  44.0641747  38.8119278  27.4683094  45.2144051
  39.1764336  30.2507553  43.4625015  38.5587769  31.0749226  43.8193512
  40.0594521  30.6613827  42.9728432  38.6304626  29.7886829  42.6400032
  41.1066055  28.6255608  46.5111275  42.1562309  28.0308456  46.3611603
  40.3145752  28.3379478  47.5315094  39.5808907  28.9977779  47.7469826
  40.5693970  27.1818485  48.4490395  40.9426956  26.4444237  47.7384415
  41.6465073  27.4531441  49.6036949  41.5936775  28.5304756  49.7607346
  41.5740242  26.6588268  50.9606476  42.5766792  26.5455685  51.3729172
  40.8656464  27.1562672  51.6231117  41.2804604  25.6362133  50.7236214
  42.7707520  27.0790558  48.9077530  42.6744461  27.4456635  48.0257530
  39.3235397  26.6620636  49.0023689  38.6567993  27.3090572  49.8945923
  38.8739395  25.4950905  48.5172539  39.3318100  24.9972477  47.7671814
  37.8068733  24.7514381  49.1743660  36.9587708  25.4253578  49.2954216
  37.3928566  23.5527229  48.3573341  38.3369789  23.0364227  48.1836510
  36.7120209  22.9453945  48.9537506  36.6216240  23.9894352  46.7418900
  35.3740807  23.7174835  47.1350555  38.2527351  24.2026882  50.6096077
  39.4079208  23.9225502  50.8563881  37.2834930  24.1883488  51.5285034
  36.3885727  24.5246639  51.2027626  37.3824387  23.6711388  52.9283066
  38.2122154  22.9653034  52.9653206  37.5690231  24.9579487  53.8015556
  37.5115089  24.6658211  54.8501015  38.5218849  25.4414673  53.5862122
  36.4744873  26.0352478  53.6783714  36.2987213  26.3485031  52.6492577
  35.4851532  25.6744041  53.9596291  36.8514175  27.5474014  54.6613846
  35.3556900  28.4469891  54.3717995  35.1928139  28.4483471  53.2940369
  34.5728760  27.9606133  54.9538116  35.4198570  29.4257202  54.8472672
  36.0334816  22.9833221  53.3145370  34.9431076  23.1707649  52.7347260
  36.1506996  22.1672173  54.4231415  37.0536270  21.9956627  54.8419380
  34.9487305  21.4506397  55.0331192  34.2563705  21.2872486  54.2072601
  35.4765015  20.1257572  55.6475410  36.2397919  19.6326218  55.0456238
  35.9401321  20.3738670  56.6023140  34.4289474  19.0156364  55.9596443
  33.4691353  19.5284386  56.0221062  34.4580536  18.2893982  55.1473465
  34.7104950  18.2627182  57.2667618  35.4696121  17.3006649  57.2867203
  33.9781609  18.4675579  58.3661041  34.0889778  17.7309589  59.0481911
  33.3211365  19.2346020  58.3582420  34.0993843  22.2687645  56.0583801
  34.7013130  22.8955250  56.9495277  32.7877464  22.2496605  56.0171890
  32.3522835  21.7269859  55.2706757  31.8916702  22.6960411  57.0921593
  32.2958527  23.5711956  57.6009216  30.5945015  23.1969967  56.4525337
  30.9227066  24.0017262  55.7946663  30.1696377  22.4445095  55.7881889
  29.5197220  23.8035393  57.2947083  29.0207138  23.0268040  57.8741684
  30.1145592  24.4400215  57.9498138  28.6265583  24.6369896  56.3380737
  27.7239227  24.1348495  55.6324272  28.5729675  25.8673496  56.4956703
  31.8435879  21.7551060  58.2659225  32.1300774  20.5215282  58.1490059
  31.4183712  22.1980267  59.4822998  31.2580471  23.1858692  59.6185532
  31.2619743  21.3160172  60.6016884  31.9398270  20.4624214  60.6028519
  31.4705505  22.0648193  61.9828072  31.2278271  21.3893013  62.8030891
  32.5346947  22.2807903  62.0779572  30.7718849  23.3948460  62.2217789
  31.0192757  24.1275311  61.4536171  29.7168217  23.1235352  62.2582779
  31.1177654  24.2721729  63.6877823  30.5025711  23.3495064  65.0954132
  30.6971512  24.0654202  65.8939743  29.4521370  23.0919113  64.9600143
  31.1421547  22.4877834  65.2863770  29.7805920  20.8532791  60.5667496
  28.9364624  21.6482735  60.2515297  29.5404186  19.5681267  60.8461647
  30.2739830  18.9123917  61.0741920  28.1743431  19.0140591  60.9106407
  27.7063522  19.3814106  59.9973297  28.1175842  17.5020218  60.8067741
  28.7955532  17.2255707  59.9992867  28.4388218  17.0792828  61.7587166
  26.7619667  16.9724007  60.4103928  26.6506500  15.7375994  60.2344589
  25.7836895  17.6958675  60.1618271  27.5003090  19.5403233  62.1958237
  27.9834290  19.3625259  63.3357544  26.2709999  19.9655285  62.0231476
  25.8992043  19.9914780  61.0844269  25.5073376  20.6082211  63.0820885
  25.9194317  20.2982273  64.0423965  25.6815414  22.1231575  62.9797821
  25.8180943  22.3477325  61.9219437  24.5443859  22.9964371  63.5372467
  24.7843018  24.0590611  63.5743141  23.6922340  22.9052277  62.8637314
  24.4337597  22.7424335  64.5914536  27.0072269  22.6275177  63.6839790
  26.9517040  22.3491211  64.7363663  27.7383327  21.9968071  63.1782227
  27.2572136  23.6762600  63.5235252  24.0371761  20.2444572  63.0289040
  23.3927975  20.0672016  61.9889603  23.5105324  20.1421871  64.2270813
  24.1706505  20.2916718  64.9767456  22.1441612  19.7772064  64.5793991
  21.9192429  18.7501945  64.2917175  21.9458542  19.7988987  66.1721497
  21.9102039  20.8229275  66.5438919  20.6144028  19.2410431  66.6140976
  19.8099899  19.9034157  66.2942963  20.5636578  18.2134991  66.2539902
  20.5796146  19.3668919  67.6962509  22.9150696  19.0652027  66.9321136
  23.7089787  19.5657120  66.7301331  21.1154823  20.6155529  63.8780632
  20.9970894  21.8352356  64.2408829  20.5499706  20.1570339  62.7487373
  20.8084869  19.2337284  62.4312820  19.7286930  21.0177059  61.8440933
  19.2782097  20.2833576  61.1763382  18.9883862  21.5968075  62.3960876
  20.4472771  22.1485748  61.0674171  19.8458710  23.0861282  60.6296997
  21.7319031  21.8917637  60.7949028  22.1333733  21.0186939  61.1058197
  22.5694256  22.6211853  59.9005394  22.4121761  23.6996899  59.9146309
  23.5831013  22.3700047  60.2127380  22.3750057  22.0981045  58.4023056
  22.3401394  20.9000835  58.1972122  22.2548428  23.0031891  57.4715805
  22.3740005  23.9773178  57.7102776  21.7688751  22.6501503  56.1269112
  20.8241749  22.1389904  56.3122711  21.3544769  23.9923859  55.4621201
  20.6183929  24.4665642  56.1113014  22.2612877  24.5643349  55.6587677
  21.0226097  23.7371731  54.0435486  21.8229218  23.1586914  53.5820694
  19.6837482  22.9572182  53.8971519  19.4928036  22.9332256  52.8242760
  19.7588367  21.9281406  54.2485237  18.8232517  23.4907303  54.3009071
  20.9135036  25.1172905  53.2949905  20.4770927  24.8424950  52.3347130
  20.1610603  25.7071342  53.8184586  21.8789539  25.5965118  53.1326637
  22.7901917  21.6977654  55.3720779  23.9393215  22.1142788  55.2239075
  22.3482933  20.5145245  54.9436226  21.3689919  20.3165741  55.0915489
  23.1421165  19.3492355  54.4244766  24.1468105  19.5009232  54.8190422
  22.5211411  18.0180893  54.8806534  21.4508877  17.9755592  54.6785316
  23.0002327  17.1800003  54.3745155  22.7911034  17.7478809  56.3757286
  23.8793125  17.7704811  56.4339638  22.3842907  18.5876789  56.9390564
  22.1704788  16.4602318  56.9918251  21.1064701  16.6481209  57.1356468
  22.2488327  15.6318655  56.2877159  22.7349129  16.0244694  58.3700943
  22.4465809  16.8343868  59.0401611  22.2327976  15.1747923  58.8327293
  24.2276974  15.9689074  58.3723259  24.5633202  15.5481081  57.5177002
  24.6646996  16.8775921  58.4308472  24.6034470  15.4740133  59.1685638
  23.2992153  19.4735241  52.8902054  22.4731827  20.1771755  52.2859077
  24.2900372  18.7389240  52.2843590  24.8570042  18.1473923  52.8749008
  24.4580269  18.8090668  50.8503418  25.3535500  18.2318249  50.6202698
  23.3463650  18.1811485  50.1558723  22.4287453  18.7692528  50.1703110
  23.7780323  18.0908699  49.1590691  23.1145439  16.7205315  50.6838875
  24.0898571  16.2546673  50.8247375  22.6164131  16.8473854  51.6450729
  22.2591648  15.8918161  49.7403107  21.3330688  16.4075241  49.4863586
  22.7645054  15.7641506  48.7830048  21.9480419  14.5889835  50.3660202
  22.8618050  14.0126238  50.5107193  21.6706161  14.7134485  51.4127541
  21.1599464  13.7695055  49.5215759  21.7116699  13.5714540  48.6990929
  20.8791943  12.9189882  49.9883804  20.3198967  14.2557297  49.2422867
  24.7175694  20.2020893  50.2233772  24.3815098  20.5523129  49.0688019
  25.2426929  20.9995403  51.1106339  25.4158821  20.5911350  52.0180016
  25.3881245  22.4808044  50.9655533  24.7002392  22.8435574  50.2017937
  24.8367157  23.1405773  52.2078934  23.9153309  22.5668964  52.3081055
  25.5473995  22.8622112  52.9860573  24.6951523  24.9528389  52.0903091
  24.9821644  25.0021496  50.7864380  26.8070507  22.9588184  50.5903931
  27.7368069  22.6035175  51.3005638  26.8835716  23.8073578  49.6149101
  26.0583591  23.9560223  49.0518608  28.1299152  24.5935078  49.2996597
  29.0051842  24.2538509  49.8534126  28.4443951  24.4506207  47.7178879
  27.5393581  24.7756977  47.2047310  29.5395088  25.3855076  47.2870140
  29.4098225  26.4495621  47.4846992  30.3794537  25.0182571  47.8766937
  29.7683067  25.2044449  46.2367935  28.7664661  23.0369644  47.1605759
  29.1492424  23.2229290  46.1570854  29.4432354  22.4694462  47.7993393
  27.4781303  22.2224369  46.9608459  26.9933224  21.9780674  47.9060173
  26.7406864  22.6863918  46.3058510  27.8794632  21.3454113  46.4530449
  27.8928280  26.0537872  49.6987038  26.8416042  26.7005386  49.4832878
  28.9104214  26.7709637  50.2216339  29.7786293  26.2740288  50.3608055
  28.8315182  28.1772690  50.6642456  27.9558849  28.6416607  50.2106972
  28.6910858  28.3344765  52.1602058  29.6371746  28.1233273  52.6586342
  28.4726315  29.3848515  52.3527985  27.7628460  27.2424850  52.8249702
  26.9191036  27.0187988  52.1721573  28.3003979  26.3255024  53.0663795
  27.2926807  27.7430344  54.2311134  28.2588387  27.9842281  54.6743584
  26.7764854  28.7030582  54.2314911  26.4327278  26.7068577  54.8615341
  26.8678818  25.7957478  54.8864326  25.6597404  26.8707485  55.8051529
  25.2586422  28.0364285  56.3042984  24.8389015  28.0421009  57.2229347
  25.7770634  28.8315945  55.9592628  25.1326942  25.7713032  56.3336906
  24.4939995  25.7881088  57.1159248  25.3827553  24.9103508  55.8685799
  30.0528297  28.9319496  50.2198715  31.0979919  28.3270035  50.0140190
  29.9443970  30.2413807  49.9686584  29.0311852  30.6356487  50.1438675
  30.9687080  31.1244488  49.4295387  31.7167797  30.4337978  49.0403099
  30.4598866  31.8618736  48.1991844  29.5361252  32.4008179  48.4096718
  31.4460163  32.8854904  47.5715485  32.3755684  32.4310303  47.2287598
  30.9160004  33.2834473  46.7062073  31.6060371  33.7150536  48.2602539
  30.0547085  30.8560677  47.0795975  30.9344578  30.3675346  46.6606903
  29.2426643  30.2043400  47.4019890  29.6414852  31.2769432  46.1629677
  31.3922138  32.1145058  50.4957237  30.5285969  32.5485649  51.2109871
  32.6782990  32.5599823  50.4167671  33.2315407  32.0313110  49.7575836
  33.2880859  33.6388016  51.1901817  32.5022163  34.3869591  51.2940178
  33.7898331  33.2082939  52.6113739  32.8888779  33.0658035  53.2080994
  34.4024086  32.3092842  52.5433121  34.4598389  34.3473511  53.2413788
  34.9177589  33.9758720  54.1581192  35.3338280  34.6865120  52.6852951
  33.4939690  35.8473969  53.6034813  33.1913681  35.6168251  55.4470749
  32.8516541  36.6176147  55.7137566  32.3920784  34.9133110  55.6801071
  34.1173973  35.3700867  55.9663925  34.4197159  34.1816864  50.3395729
  35.3670006  33.4510155  50.0883484  34.3322220  35.3952217  49.7702942
  33.4266052  35.8414917  49.7419968  35.2200699  35.8881721  48.7354660
  36.1515274  35.3278465  48.8162270  34.4960556  35.7431526  47.3485146
  34.3990669  34.6686172  47.1933823  33.5171967  36.2224846  47.3618164
  35.3152199  36.2622261  46.1828117  35.5546532  37.3191261  46.2999878
  36.1984367  35.6281815  46.1052589  34.4356232  36.0417023  44.6397018
  33.1610527  37.3944969  44.7835541  32.3161240  37.0827789  45.3975792
  33.6127586  38.2503471  45.2851334  32.7276001  37.6444588  43.8151855
  35.5311012  37.4086151  48.9356842  34.6826286  38.2503204  48.9916458
  36.8080559  37.6209373  49.1991272  37.4477806  36.8399734  49.1684113
  37.3950119  38.9129791  49.4680519  36.5410271  39.4449158  49.8874016
  38.4057922  38.9649887  50.6142006  38.7073402  39.9933434  50.8133545
  37.7983360  38.4617424  51.9736862  37.7039719  37.3766632  51.9311714
  38.4435844  38.7534065  52.8023491  36.8211212  38.9391098  52.0462990
  39.5389442  38.2860336  50.4377594  39.3586693  37.3495178  50.5475044
  37.7909889  39.7207870  48.1720314  38.6180038  39.2119598  47.4758797
  37.2502213  40.9446983  47.9438477  36.6816177  41.2908096  48.7034492
  37.3849754  41.7381020  46.6699409  38.3171616  41.4424744  46.1885567
  36.2537079  41.5370789  45.6347046  36.6741295  41.9495125  44.7175102
  36.0517769  40.0469017  45.4039688  35.5119896  39.6709366  46.2730904
  35.5561028  39.8175316  44.4606781  36.9984512  39.5179443  45.2939529
  34.9798470  42.4034233  45.8503151  34.4524612  42.0884285  46.7507286
  35.2378883  43.4282303  46.1173134  34.3437233  42.2531433  44.9780388
  37.6017647  43.2514000  46.9128723  37.3453178  43.7534065  48.0222626
  38.3593941  43.8472214  45.9848518  38.6583481  43.2981682  45.1915855
  38.8558121  45.2577705  46.1163635  39.0333900  45.5008430  47.1639709
  40.2027588  45.4521675  45.3188171  40.1781807  44.7662582  44.4720459
  40.3671036  46.4943810  45.0451469  41.3753891  45.0041199  46.2087402
  41.5463638  45.7909241  46.9434586  41.0460014  44.0423355  46.6019058
  42.6071014  44.6120529  45.4404793  42.6786919  44.5099602  44.2167358
  43.6299286  44.3976555  46.2314301  44.4196320  44.0595627  45.7002411
  43.6346436  44.8129158  47.1521034  37.7667122  46.1562729  45.6176300
  37.3724098  46.1042252  44.4471016  37.1775513  46.9756279  46.5066986
  37.4244270  46.9495010  47.4857140  35.9803276  47.7051048  46.0236206
  36.0521774  47.9262772  44.9587173  34.7726402  46.7160454  46.0113029
  35.0280800  45.7721367  45.5297585  34.3049698  46.2918396  47.3785744
  35.0613556  45.6264267  47.7947540  34.1674919  47.1090546  48.0866508
  33.3427010  45.7834282  47.3181801  33.6469002  47.2993469  45.2166672
  34.0268745  47.4427681  44.3468094  35.6769676  48.9895248  46.8672104
  36.0857811  49.1111641  48.0139313  35.0002823  50.0031662  46.2794151
  34.6989059  49.8176041  45.3334541  34.5845795  51.2067413  46.8711243
  35.2524681  51.4343033  47.7019310  34.5670013  52.3493690  45.8618469
  34.0255089  51.9935799  44.9853172  33.9985008  53.1687660  46.3017426
  35.9589729  52.8520699  45.5566063  36.8171082  52.8025780  46.4816017
  36.2290916  53.4076920  44.4363785  33.2096024  51.0913239  47.5332680
  32.8657150  51.8786545  48.3737679  32.4633369  50.0389328  47.1494713
  32.7890129  49.3850899  46.4519577  31.0648994  49.9061890  47.6436882
  30.5704746  50.8315125  47.3480186  30.4600868  48.6856880  46.9426956
  31.1970596  47.8994598  47.1064568  29.0887356  48.2362099  47.2344437
  29.0303326  48.1078262  48.3152771  28.3289890  48.9740181  46.9765015
  28.8450909  47.2704811  46.7915993  30.5395679  48.8758430  45.4404907
  31.5269794  49.1955452  45.1074524  30.2912941  47.9240227  44.9709129
  29.8386784  49.6373825  45.0985680  30.9055023  49.8268623  49.2086182
  31.6906376  49.1280098  49.8703651  29.8933563  50.4911995  49.7971840
  29.0642357  51.5690079  49.2915382  28.1694984  51.1750641  48.8095016
  29.6730175  52.3242416  48.7944374  28.5474377  52.3067207  50.4501495
  27.6238422  52.8573036  50.2714500  29.2667122  52.9116325  51.0022621
  28.2201595  51.2419586  51.4266739  27.3452206  50.6449661  51.1694145
  28.2792931  51.7378807  52.3955193  29.5523129  50.3150253  51.2675438
  30.3925877  50.7674713  51.7941666  29.3497505  48.9127579  51.7402153
  28.7150421  48.0733185  51.0915756  29.7864532  48.6368752  53.0130005
  30.1237240  49.4481201  53.5112228  29.6201477  47.2960815  53.6384811
  30.2806511  46.5265617  53.2388840  30.1122150  47.5003471  55.1482430
  31.1647091  47.7810097  55.1083870  29.5964184  48.3528938  55.5900764
  29.9703789  46.1714172  55.9376907  28.8885021  46.0543098  56.0003586
  30.3602524  45.3735161  55.3056679  30.4616833  46.2572823  57.3847885
  29.8007870  46.7563744  58.2588348  31.5894184  45.6921921  57.8227119
  31.8339386  45.7573929  58.8004951  32.1818848  45.1437073  57.2158775
  28.2233829  46.7344894  53.4818993  28.1770306  45.5074654  53.2215538
  27.1351566  47.5202713  53.7109070  27.2343140  48.4911041  53.9711952
  25.7037659  47.0901031  53.5656052  25.5452728  46.0977974  53.9878769
  24.9328270  48.2051163  54.4069099  23.9783287  47.6985168  54.5497093
  25.3008118  48.2709579  55.4308014  24.7966404  49.6225739  53.9474449
  25.8556023  50.1208572  53.4426231  23.6949577  50.2058067  54.0954971
  25.1417255  47.0868568  52.1314011  24.1090660  46.4062614  51.8718605
  25.8334312  47.8090248  51.2070274  26.7209110  48.2303314  51.4415131
  25.3980122  47.8712807  49.7585106  24.3367901  47.6346016  49.6817741
  25.5660057  49.2950974  49.1995163  26.6206837  49.5686302  49.1689644
  25.2136059  49.2477188  48.1691437  24.7331181  50.3379250  49.9924889
  23.6647320  50.1907272  49.8344269  24.9168987  50.2717819  51.0648460
  25.0168228  51.7514038  49.4877663  25.2492218  52.0013161  48.3039703
  24.8648510  52.6944885  50.3825684  24.5271759  52.4663239  51.3066978
  25.3032112  53.5866165  50.2035217  26.0552597  46.7769241  48.9099617
  25.4613228  46.3826408  47.8696594  27.1571255  46.2093849  49.3524895
  27.5331039  46.5951233  50.2068596  27.5880680  44.9103661  48.7943916
  27.6385670  44.9782524  47.7076797  28.8877163  44.4764748  49.5542450
  28.7916050  44.5749054  50.6355324  29.3310986  42.9807281  49.3544884
  30.2153111  42.7457085  49.9469681  28.6108761  42.2585793  49.7390404
  29.6359539  42.8363609  48.3179932  30.0748558  45.3733292  49.1475868
  30.0600796  45.4242973  48.0588799  29.7827148  46.3862305  49.4246864
  31.4841213  45.1686859  49.6482658  31.4561329  45.2502594  50.7348518
  31.8268795  44.1649437  49.3970299  32.1865807  45.8356323  49.1484299
  26.5495510  43.8693810  48.8656120  25.8501015  43.7741508  49.9403763
  26.3990555  43.0080833  47.7801056  26.9568672  43.1422157  46.9488678
  25.2693462  42.0820389  47.6280556  24.5691662  42.1602898  48.4597549
  24.6970844  42.2595825  46.2408562  25.4934425  42.3783569  45.5061417
  24.1927681  41.3372078  45.9527664  23.7704697  43.5209427  46.1311226
  22.9905605  43.5207062  46.8925972  24.3103848  44.4325943  46.3870239
  23.0723133  43.8368263  44.7636833  22.6515331  44.8391037  44.8442192
  23.8508415  43.8704834  44.0015411  22.0652657  42.8561058  44.2997932
  22.3753662  42.2780495  43.5318184  20.8202915  42.5910072  44.8148384
  20.1840630  43.2809219  45.7327843  19.2119350  43.1160774  45.9516373
  20.5916176  44.1222801  46.1150284  20.2116451  41.5309410  44.3361435
  19.3239231  41.1422768  44.6207352  20.7174873  40.9591141  43.6749039
  25.6895771  40.6045036  47.8843918  26.3612003  40.0410423  46.9989090
  25.2425423  39.9063683  48.9517555  24.7423496  40.4881020  49.6086311
  25.3807774  38.4017830  49.1684151  26.3390331  38.1768646  48.7001648
  25.4889717  38.1044617  50.6625519  24.5049706  38.1275749  51.1308556
  25.9847546  37.1433868  50.7990723  26.3831539  39.0799370  51.3318024
  27.7379894  39.1366806  51.3283920  28.2276516  40.0789528  52.1908226
  29.2465630  40.2801819  52.4870071  27.1321888  40.6864586  52.7256279
  27.1876183  41.4006844  53.4375992  26.0373116  40.0575790  52.2213898
  25.0365391  40.3110428  52.5385780  24.1513290  37.6734314  48.5154648
  23.0731697  38.2556000  48.4335365  24.4330673  36.4656410  48.0338783
  25.3940372  36.1572418  48.0729561  23.5833187  35.8704605  47.0020103
  22.5767498  36.2886505  47.0084572  24.1376057  35.8706512  45.4965515
  25.1810474  35.5644455  45.4219513  23.3422813  34.9449120  44.6021194
  22.3152866  35.3089218  44.5724754  23.7809620  34.9836464  43.6050415
  23.3559380  33.8980865  44.9055595  24.1234455  37.2967377  44.9517822
  24.5628815  38.0035515  45.6556282  24.5841389  37.1657600  43.9726448
  23.1219177  37.7216301  44.8845711  23.3938923  34.4388428  47.3832436
  24.3389988  33.6459160  47.3183823  22.2335033  33.9633026  47.8294601
  21.3572979  34.4618149  47.7674026  22.0628586  32.4933968  48.1853752
  23.0269222  31.9848118  48.1803780  21.4911690  32.3955078  49.6093292
  20.4594135  32.7445679  49.5676727  21.4008923  31.3203449  49.7641754
  22.3331394  32.9453468  50.7613869  22.9210606  34.2517395  50.8131027
  22.6617947  34.9679070  50.0474052  23.9389248  34.6045189  51.6656990
  24.4717636  35.5381203  51.5614395  24.5065212  33.7142105  52.5701485
  25.4940968  34.1286049  53.4140778  25.4402142  33.6408882  54.2392044
  23.9159908  32.4592361  52.6391106  24.3059254  31.7274647  53.3311157
  22.8793945  32.0788040  51.7149582  22.4252739  31.1022282  51.7954636
  21.0781670  31.8713474  47.1743927  20.3186626  32.5884438  46.5730782
  21.1394043  30.5746231  46.8729362  21.7710495  30.0494156  47.4605484
  20.2768002  29.8658180  45.8928909  19.4737549  30.5513020  45.6221008
  21.1453171  29.7422295  44.6364822  22.1555195  29.5715485  45.0085869
  20.9435024  28.8848667  43.9943771  21.1155720  30.8613491  43.5954018
  21.1329899  31.8224144  44.1093597  22.3259888  30.6521931  42.7264137
  23.2549171  30.8290520  43.2685432  22.3002338  29.6520863  42.2937241
  22.3201313  31.4719505  42.0080376  19.8287392  30.8306599  42.6774750
  19.7092400  31.6182671  41.9335022  19.8447990  29.8367939  42.2301788
  19.0190868  30.6913834  43.3938255  19.6374626  28.5699501  46.5165176
  19.8144207  28.3982124  47.7202187  18.8964481  27.7947559  45.7677803
  18.5510216  28.2593136  44.9401512  18.4631672  26.5164223  46.0447731
  17.6776657  26.3739815  45.3026161  19.5234528  25.4416733  45.6276360
  20.4129715  25.6915150  46.2059402  19.2140369  24.4540329  45.9695930
  19.9804783  25.3524971  44.1753426  20.1925297  26.3515835  43.7946091
  20.9325695  24.8232861  44.1358109  18.9422359  24.8416233  43.1784630
  18.2126751  25.6721020  42.5373840  18.7751522  23.6296978  43.1070671
  17.8033123  26.3778133  47.4038467  16.8532448  27.1252937  47.6156235
  18.2106018  25.5649204  48.3693848  18.9370499  24.8949795  48.1606979
  17.6215324  25.5333729  49.7054977  16.5392094  25.6504707  49.6510735
  17.7428150  24.0934505  50.3239975  18.7285576  23.7304707  50.0330353
  17.7138901  24.1877022  51.4095268  16.5454483  23.1538982  49.9370956
  16.8624687  22.2811775  50.5080223  15.6518869  23.6388378  50.3301353
  16.4095211  22.9272785  48.4338531  15.9850807  23.8160686  47.9669380
  17.3907604  22.5806980  48.1095848  15.4609413  21.7717056  48.2572517
  15.8816719  20.9248047  48.7993317  14.4491100  22.0992508  48.4960251
  15.5171394  21.4574871  46.7697296  15.0626001  22.2392426  46.3198814
  16.4489880  21.4496498  46.3802452  15.0318365  20.6217403  46.4762878
  18.2266045  26.5093975  50.6982040  17.7227955  26.6190338  51.8257828
  19.3640308  27.0492249  50.3062782  19.7076340  26.8851223  49.3708076
  20.1502285  27.9966965  51.1676178  20.0757504  27.5928459  52.1772995
  21.6094589  27.8501911  50.7119331  22.2367706  28.0929546  51.5696297
  21.9172077  26.8671074  50.3556480  21.8146057  28.6051884  49.9529877
  19.5396328  29.4661732  51.2377167  20.0362473  30.3119640  51.9253769
  18.5131454  29.6931248  50.3702278  18.2570210  28.9265099  49.7645874
  17.7724037  31.0148201  50.3374977  18.4773674  31.7471066  49.9439468
  16.5728893  30.8900242  49.4076042  16.0893917  31.8668537  49.4191399
  17.0502357  30.5503120  47.9416924  17.3518620  29.5040169  47.9905243
  16.2449627  30.7979336  47.2500877  17.8193932  31.2100945  47.5402145
  15.5485182  29.7824669  49.8940849  14.9051085  29.4523811  49.0785027
  16.1512737  28.9046803  50.1270638  15.0426064  30.1813679  50.7733078
  17.4235706  31.4522800  51.7757225  17.5560780  32.6421967  52.0490112
  16.9974709  30.5024662  52.6323204  17.0731564  29.5256023  52.3871422
  16.4823627  30.7112484  53.9996147  15.6930532  31.4525528  53.8748741
  15.8517227  29.3691425  54.4272995  15.2500086  29.0816345  53.5651054
  16.8649940  28.3075142  54.6461906  16.4084549  27.3180866  54.6728287
  17.6551533  28.1963520  53.9036331  17.3892403  28.5530262  55.5697632
  14.9265070  29.3988743  55.6551666  14.1981087  30.2065792  55.5834236
  14.3703699  28.4617977  55.6286964  15.5096445  29.4728470  56.5730934
  17.5322094  31.2743282  55.0548630  17.1296902  31.5871410  56.2067680
  18.8579750  31.2850227  54.7342224  19.0957851  31.0146370  53.7905922
  19.9674911  31.6739178  55.6908226  19.6690941  31.4655437  56.7182655
  21.1733208  30.7936382  55.4312363  21.6760616  31.0464172  54.4977188
  21.9041290  30.9681587  56.2208977  21.0239697  29.2652702  55.1564903
  20.1514492  28.9589767  54.5794334  22.3113976  28.6728802  54.5150604
  22.4088287  28.8843822  53.4502258  23.2103882  29.0236893  55.0218658
  22.3742294  27.5865688  54.5790253  20.7381248  28.5586681  56.5016632
  19.8306656  29.0054798  56.9078369  20.5620537  27.4930229  56.3550339
  21.5683537  28.7275314  57.1874580  20.3605728  33.1523170  55.5079880
  20.8994827  33.8137779  56.4066734  19.8777447  33.7620049  54.3998146
  19.3318939  33.1402664  53.8205109  20.4874878  34.9396591  53.7451439
  21.5637302  34.7742882  53.7946892  20.0577736  35.0828629  52.2376328
  20.7995777  35.7879257  51.8625107  20.1537743  34.1322861  51.7129517
  18.6344814  35.7787514  52.0483055  17.8517036  35.3100128  52.6446648
  18.7320671  36.8474693  52.2391472  18.1907978  35.5217285  50.5975380
  18.9081192  35.9215164  49.8807945  18.0937157  34.4540443  50.4007492
  16.9050808  36.1809464  50.3204422  16.9185905  37.0979729  49.8973846
  15.6914806  35.6582603  50.5722694  15.5812769  34.4704590  51.1144142
  16.3830585  33.9225464  51.3919678  14.6770935  34.1003799  51.3705292
  14.5944548  36.3843803  50.4918060  13.7123089  35.9137383  50.6346931
  14.5807266  37.3192596  50.1098175  20.3168774  36.1896133  54.5711327
  19.2608719  36.3334770  55.1709709  21.3765240  36.9827347  54.6673317
  22.6373920  37.0548820  53.8932915  22.4700317  36.8958740  52.8280182
  23.4356346  36.3870125  54.2171135  23.1639252  38.4318733  54.0473251
  22.7450581  39.0777779  53.2756653  24.2500992  38.4951057  53.9815102
  22.6351852  38.7350082  55.4629059  22.6302872  39.7979698  55.7041245
  23.2504215  38.1550713  56.1508446  21.2615471  38.1882286  55.5372696
  21.1072159  37.8760834  56.5701599  20.1586952  39.1379433  55.1695671
  19.6013985  39.6109200  56.0784149  19.7719116  39.3066673  53.9207535
  20.1844234  38.7707672  53.1705894  18.5683346  40.0459824  53.5711327
  18.5579224  41.0254059  54.0493813  18.5150185  40.2053757  52.0499763
  18.5988941  39.2548141  51.5232010  17.5960751  40.7422485  51.8145752
  19.5846748  41.1791115  51.5752411  20.5669727  40.7365913  50.9780884
  19.4392872  42.3600044  51.9170952  17.2654953  39.3621902  54.0505600
  16.3262615  40.1435623  54.3623734  17.1273956  38.0390434  54.2498169
  17.8618050  37.3802185  54.0337334  16.0013905  37.6409988  55.0520172
  15.1214781  38.1209908  54.6236839  15.8294973  36.1161003  54.7748756
  15.7954149  35.9795151  53.6940041  16.6601582  35.5256920  55.1615562
  14.5868111  35.4665718  55.3927574  14.7454967  35.6946182  56.4467545
  13.3030510  36.0776711  54.7511368  12.4768085  35.6217575  55.2966347
  13.2319469  37.1518097  54.9222221  13.1387987  35.9668503  53.6792946
  14.7211637  33.9423637  55.0764008  14.7190742  33.8746338  53.9885139
  15.6657896  33.5191307  55.4179497  13.9775333  33.2579613  55.4846992
  16.0952759  38.0266838  56.4701881  15.2324820  38.6645203  56.9921494
  17.2864361  37.8342514  57.0685616  18.0015278  37.5253181  56.4256744
  17.5978603  38.1779175  58.4472961  16.9412041  37.6908760  59.1681976
  19.1396389  38.0613937  58.8322563  19.6740913  38.7829018  58.2142868
  19.3325768  38.3782997  59.8571701  19.6064663  36.7992706  58.6656227
  20.5622425  36.7731552  58.5795517  17.2136879  39.6167564  58.7255821
  16.6160908  39.9413261  59.7138367  17.4679565  40.5906105  57.8199615
  18.1801586  40.3938789  57.1313667  17.1481647  42.0811577  57.9941788
  17.3755074  42.3384514  59.0286903  18.0673923  42.9128342  57.0672455
  17.8209877  42.5474739  56.0703011  17.7160530  43.9445305  57.0839691
  19.5638351  42.8733864  57.3999023  19.7992115  41.8818512  57.7866364
  20.4075222  43.0556374  56.1435242  21.4408188  43.1156654  56.4852829
  20.3104458  42.1166611  55.5985527  20.1746750  43.9546242  55.5728111
  20.0621548  43.8690948  58.4520149  19.7156200  44.8852158  58.2636070
  19.7160492  43.6321449  59.4580803  21.1514263  43.8362808  58.4747620
  15.6709375  42.3977928  57.6773148  15.0443697  43.3151855  58.1315384
  14.9896126  41.5847015  56.9096642  15.5461950  40.9143448  56.3988457
  13.5478153  41.5928497  56.7603340  13.0961237  42.5330925  56.4440804
  13.0465040  40.5491066  55.7429466  13.2970304  39.5254135  56.0211372
  11.5300236  40.4504852  55.5177765  10.9850492  40.2633972  56.4430351
  11.2092352  41.3643456  55.0177269  11.4335546  39.5526085  54.9073563
  13.5610161  40.9276505  54.4710464  14.4328871  40.5310555  54.4066086
  12.9204292  41.1324310  58.0389290  12.0408812  41.8183975  58.5367737
  13.3106308  39.9964485  58.6576271  14.0370779  39.5002594  58.1614723
  12.9940681  39.6237831  59.9856377  11.9232903  39.6670341  60.1848106
  13.2026377  38.0622025  60.1426964  14.1931715  37.8148270  59.7609253
  13.1103764  37.8020859  61.1971779  12.3018045  37.2465935  59.3145409
  11.2442999  37.2978592  59.5736885  12.5239182  37.5762901  58.2996216
  12.5618353  35.6941299  59.2939911  11.7909641  35.3588905  58.6001053
  13.5218773  35.5183601  58.8086815  12.4506111  34.9253654  60.6531296
  12.7412500  33.8809319  60.5400581  13.1344242  35.3144226  61.4075356
  10.9797869  34.8654671  61.0598221  10.4770451  35.7249680  61.2289886
  10.5282059  34.3555794  60.3140373  11.0507326  34.2797127  61.8795547
  13.7236614  40.3220329  61.1540794  13.5769825  39.8960953  62.3395882
  14.4471664  41.4001923  60.9309616  14.5208044  41.6818542  59.9638290
  15.2889843  42.0601158  61.9387894  16.1840725  41.4417191  61.8716736
  15.7313995  43.3726196  61.4199638  16.2387619  43.2099342  60.4690590
  14.8644724  43.9946899  61.1973228  16.6249676  44.2373123  62.2958260
  16.1569366  45.2926598  62.7381630  17.8902378  43.9824028  62.4497032
  18.3209820  43.1105003  62.1770325  18.5146828  44.6846809  62.8198013
  14.6577425  42.1717339  63.3690224  15.3404636  42.0273552  64.3857422
  13.4146204  42.6662445  63.5048637  12.8529930  42.9793205  62.7259827
  12.8127460  42.8842354  64.8358231  13.5098200  43.4625664  65.4422226
  11.4770708  43.6741180  64.6052322  10.9673681  43.0674438  63.8567352
  10.6678677  44.1054459  65.8263550   9.9279423  44.7287903  65.3242950
  10.1706095  43.2458725  66.2757645  11.2319708  44.6092529  66.6112518
  11.7899055  44.8955536  63.9764099  10.9591026  45.2151566  63.6169357
  12.4570761  41.5326195  65.4998856  11.9810066  41.6412010  66.6411438
  12.7166271  40.3477707  64.9919128  13.1674967  40.3890228  64.0890808
  12.6323042  39.0796738  65.6915741  11.8040447  39.0544014  66.3997040
  12.4305096  37.9601326  64.6200867  13.2907915  37.9377365  63.9511223
  12.3768368  37.0046196  65.1418304  11.1221895  38.0827370  63.8439064
  11.1450825  39.0541458  63.3499985  11.1777420  37.3965111  62.9988556
   9.8153448  38.0196724  64.7166901   9.2820120  39.1203804  65.0189285
   9.3588152  36.9016228  64.9979858  13.9366970  38.7433777  66.5051880
  13.9096689  37.8597412  67.3586197  15.1071615  39.3320084  66.2559433
  15.0805483  40.1479034  65.6612091  16.4049702  39.0540733  66.8936768
  16.4410534  37.9684525  66.9843750  17.5066891  39.3051758  65.8365860
  17.5285568  40.3652267  65.5837784  18.4632511  39.0246124  66.2774658
  17.4508953  38.4968719  64.5181580  16.5820885  38.7626801  63.9159737
  18.7189198  38.6981316  63.6389656  18.6591988  38.2257233  62.6584740
  18.7583904  39.7351761  63.3056793  19.6454430  38.4967766  64.1766510
  17.2708817  36.9879951  64.6866837  17.5816460  36.4785881  63.7745209
  17.8582020  36.5994377  65.5186539  16.2418633  36.7249832  64.9317245
  16.7217541  39.7619858  68.1181183  16.4126320  40.9450836  68.3455353
  17.5299339  39.1638107  68.8965836  43.1770859  20.4444866  45.4329491
  42.6810188  19.4769669  45.4697495  44.1891708  20.4333763  45.8318100
  42.6118546  21.6323814  45.1686974  43.3036156  22.9760704  45.3792610
  42.8187065  23.9466934  44.8380814  44.1992340  23.0369415  46.1531830
  41.3275375  21.6975727  44.6995811  40.9625854  21.4125805  43.3399696
  39.9482880  21.8099976  43.2116852  40.9581871  19.9252949  43.1010170
  40.6154633  19.3145256  43.9334984  41.1050758  19.4135075  41.9404221
  41.5322113  20.3053360  40.7971916  41.6327591  19.8731461  39.8034630
  41.7534294  21.6436729  40.9089737  41.9246521  22.3041668  40.0616455
  41.8994942  22.2315178  42.2998238  42.9448357  22.0616455  42.5854721
  41.6724930  23.6752300  42.2959404  41.8587265  24.0229607  43.1853943
  40.8641319  17.9184189  41.6792870  40.5189438  17.2056580  42.6125679
  40.7974701  17.5339813  40.5122566  47.5704803  26.2759781  68.5032425
  47.9353638  25.2901936  68.7836227  48.1547012  27.0890026  68.9289246
  46.4925995  26.5043793  67.7030563  45.9733505  27.8738880  67.3855591
  46.5639038  28.9015121  67.6680832  44.9059105  28.0589237  66.7719727
  45.7874374  25.4588089  67.1257324  46.3058281  24.8663731  65.8450851
  45.8231354  23.8913898  65.7050629  47.8213463  24.6478500  65.9259567
  48.1606216  23.8641624  66.5999451  48.7067261  25.4799976  65.3620148
  48.2392731  26.6340370  64.6538010  48.9385109  27.4181213  64.3697510
  46.9223862  26.7627010  64.3075180  46.6562119  27.6422844  63.7252731
  45.9051094  25.7393875  64.7117462  44.9925537  26.2746601  65.0014267
  45.5824699  24.9940090  63.5529442  44.6728134  25.1634026  63.2520142
  50.2409744  25.3707123  65.5630112  50.6969795  24.3243484  65.9985504
  50.9763412  26.3555164  65.5763321  23.7153873  31.7975254  57.7918434
  23.2942753  32.5228615  57.0989685  23.2710152  31.7341957  58.7828293
  24.8866386  31.1484280  57.5219383  25.5949650  31.3933315  56.1938286
  25.4175358  32.4217720  55.5836182  26.4121857  30.6177635  55.7841530
  25.5502644  30.2622395  58.4301109  26.2073498  30.8003998  59.6715431
  26.8262596  30.0440350  60.1695900  25.0747776  31.1287537  60.6394119
  24.3922215  30.3069248  60.8449402  24.7934990  32.3365517  61.2148094
  25.6283531  33.4844475  60.8406982  25.3378963  34.4947472  61.1223450
  26.6772671  33.3105507  59.9696617  27.2028522  34.1619835  59.5426331
  27.1183434  31.9643383  59.3559532  27.0485706  32.0375824  58.2637291
  28.4982853  31.6955223  59.6923447  28.8536530  31.0756054  59.0319290
  23.6337490  32.5311737  62.1395721  23.3775883  33.6424789  62.6497917
  22.7973919  31.6488953  62.2452164  76.9626617  44.1034317  81.1049881
  36.5761604  54.0909157  21.0661564  43.6951752  32.3785858  85.2532654
  44.9215279  41.3779831   0.8981380  47.3210640  37.0516701  83.9228516
  27.1375504  27.8584423  81.6822662  79.9807968  17.3278217  67.4949341
  78.0827103  50.8190842  17.9997463  28.0970459  35.6070137  30.3794613
  10.8986998  46.6602364  56.2917824  11.8390408  46.7001762  56.1174431
  10.7746954  45.8274841  56.7471733  76.4480286   1.7880770  47.8253822
  76.5898590   2.1437578  48.7026558  76.5914383   0.8466811  47.9225426
  25.0861645  19.3318195  82.4567108  24.2397575  19.4141140  82.0173264
  24.9310741  18.7001133  83.1589355  23.1357708  69.2319107  72.9183121
  22.7151566  68.9010468  72.1246872  22.4344654  69.6783524  73.3927536
   3.8406365  28.4361286   0.4626137   4.1102538  28.2190704  -0.4298123
   2.9433210  28.7564030   0.3705177  35.1171455  21.6295261  86.2681961
  35.2325821  20.7561817  85.8937988  34.2043228  21.6481400  86.5556717
  48.0377769  26.0565491  13.4154072  47.9224815  25.2226677  13.8710175
  48.9837036  26.2029705  13.4195738  45.0630646   5.9676800  58.1200600
  44.1148643   6.0040774  58.2458496  45.3869476   5.4828906  58.8792114
  73.9362946  19.0412235  73.2111816  74.1434860  18.9965496  74.1446228
  74.1862869  18.1829395  72.8690033   3.3045974  59.0904274  23.6342945
   3.7960415  58.2704277  23.6824074   2.8007908  59.1158028  24.4477844
  20.8805523  63.9849930  87.5352859  20.4908142  64.3345261  88.3366318
  20.7593670  63.0379372  87.6033401   3.7702181   9.3272781  63.9261093
   4.6704445   9.3978844  63.6085548   3.4628618   8.4855404  63.5895920
  31.0637932  44.5825119  75.5068817  30.9097958  44.4727287  76.4452133
  30.7092438  43.7862892  75.1112137   9.8683548  68.7120438  43.6116447
   9.1301022  69.3189926  43.6648483   9.6183529  68.0901337  42.9283028
   8.7805910  36.7464447  35.9602585   8.2402802  36.8832054  36.7384567
   8.3146334  36.0765839  35.4598579  82.7450790  46.5511971  65.5938492
  82.8891220  47.2444534  64.9497299  82.7168884  45.7460709  65.0769272
  23.0060043  51.8308525  56.2771187  23.2713757  51.3067169  55.5214119
  23.8149776  52.2453728  56.5770683   3.5034034  59.0515099  29.7771091
   3.5844655  58.5918121  30.6127758   3.5583389  59.9789200  30.0076008
  17.4430962  23.2330456  24.9806957  17.4373474  22.2858429  25.1185608
  16.6959724  23.3958130  24.4048958  68.3059692  66.9849854  40.7081184
  67.6204376  67.4054718  41.2272224  68.3570709  66.0944366  41.0553207
  35.4481773  26.5454693  17.1670990  35.1125565  27.2008553  17.7787037
  36.3862419  26.7276917  17.1117496   9.7194996  48.3631630  38.7093773
   9.5602484  48.8021660  39.5449295   9.7236605  47.4307327  38.9256935
  42.3440018  58.0890388  30.5692520  42.7683411  57.4818954  29.9629993
  43.0433578  58.3628960  31.1626606  76.2377930  43.6830788   6.2657628
  77.1471634  43.4086494   6.1475620  76.1591568  44.4822731   5.7448668
  81.8396149   9.0756826  39.0483551  81.7542572  10.0269737  39.1115189
  81.0410919   8.7926121  38.6028633  69.3986511  33.7040596  55.8851852
  69.4124985  33.0078316  56.5419235  69.4816818  33.2460403  55.0487900
  55.1261215  59.4958801  24.7956409  55.4871712  59.3344040  23.9239769
  54.2309036  59.1601105  24.7500496  12.8780708  20.0365849  80.8147507
  12.9218369  19.7062416  79.9174271  13.2498074  19.3333874  81.3472519
  31.6214008  46.3253021  16.2019329  30.8038330  45.8969803  16.4556198
  31.7663517  46.9853745  16.8798161  79.3361053  45.3523216  43.0816994
  80.2395859  45.5837440  43.2971153  79.3074799  45.3639565  42.1250000
  63.9170418  54.0235748  20.0635948  63.6633072  53.4246292  20.7658157
  63.0912399  54.4012184  19.7608280   7.2011027   8.5092239   0.4959247
   6.8089442   8.9665709   1.2397509   8.0876169   8.8652515   0.4361859
  17.6820774  13.7863750  43.4286690  18.1397972  13.0122099  43.1009560
  17.7318401  14.4162931  42.7096710  55.8598137  58.6072311  44.2660255
  54.9834480  58.9464188  44.0839119  55.9277420  57.8181763  43.7284279
  49.8499718  15.9071093  74.8126831  50.2436066  15.9223547  75.6850662
  48.9196167  15.7485332  74.9724503  16.1371269  58.3811111  48.7770500
  15.9372797  57.5400848  49.1881104  16.0009899  58.2289810  47.8418732
  80.3528748  53.2183151  77.6816940  80.6740952  52.8161278  78.4887238
  81.1078796  53.2107773  77.0933533  27.3229942  47.2000427  13.1447401
  26.6560211  47.7328415  13.5777559  26.9115124  46.3426018  13.0365133
  77.7817230  17.9306946  61.0035439  76.8391266  18.0593624  60.8977318
  78.1298141  18.8117447  61.1406937  76.8013916  16.7737560  76.0728836
  76.9822235  17.5294056  76.6319275  76.0811462  17.0587597  75.5105209
   5.6851511  57.4731941  33.8803444   6.1805873  58.0564117  34.4553528
   6.2926731  56.7609901  33.6805534   7.5163569  21.5267410   8.2407112
   7.0783668  22.0111294   7.5408802   6.9521065  20.7695656   8.3973637
  20.4297447  42.2790985   6.1912374  20.5931854  42.6287804   5.3153138
  20.9844723  42.8057213   6.7667170  77.4986725  26.5685997  84.7099991
  77.8307266  27.1971722  85.3509903  76.7473526  26.1612244  85.1410294
  82.3493042  15.3226223  10.4659786  81.7493515  14.6929007  10.0663042
  82.0172195  16.1773491  10.1914043  71.8417816   1.5709397   5.6357527
  71.9195480   1.4827648   6.5857048  71.0782166   1.0406604   5.4077020
  11.4586592  35.7865753  43.2753220  12.3635855  35.7031288  43.5759506
  11.3964930  35.1854820  42.5329933  73.5829926  41.9184685  38.8571205
  72.7871170  42.2084084  38.4113083  73.2803268  41.6105080  39.7113991
  48.9148254   8.4849806  25.4956207  48.4209671   8.3688269  24.6839275
  48.7429771   9.3907681  25.7530060  56.5837288  69.4767380  58.5745239
  55.9193115  68.8003464  58.7059631  57.2389641  69.3033981  59.2504311
   9.7130604  32.7121735  42.5461731  10.4897738  32.7106056  41.9867554
   9.1875210  33.4445763  42.2242699  12.5374241  34.5057220  69.3084641
  12.7718649  35.2787781  69.8219376  12.2309103  34.8572998  68.4726028
  63.3673286  51.8390007  22.2860699  63.5443649  50.9027824  22.1944942
  62.4183426  51.8934059  22.3987522  81.2272644  53.8212395  30.1581554
  80.4319229  53.6326561  29.6600571  81.8363342  53.1260948  29.9090710
  57.2459106   4.9087996  44.8456879  57.0259476   4.6309867  43.9564934
  56.9392548   5.8141227  44.8965225  68.0078354  54.5529137   8.2842989
  68.0772018  55.0768814   7.4862537  68.8644104  54.1346931   8.3714476
  84.7695999  63.4194221   2.7085209  84.3860779  62.5735550   2.4769027
  85.2538910  63.6849480   1.9267348   5.0559669  68.8607559  70.2334976
   5.9221101  68.5097733  70.4404678   4.4690485  68.4334488  70.8573303
  82.7427673   3.1849861  70.8594437  82.7135773   3.3561099  71.8007736
  82.3100586   2.3373966  70.7565613  21.4514771  47.4812965  65.4313583
  21.2249222  47.5092316  66.3609390  21.8683186  46.6279373  65.3119659
   7.0771003  31.5940990  82.8443527   7.7761602  30.9621639  83.0122910
   7.3636780  32.0661278  82.0625000  80.8858795  54.8661804  59.3344879
  81.2693939  55.7354164  59.4510002  81.5924835  54.3410301  58.9587822
  82.2872543   6.0457964  39.6572037  82.0811310   6.9750304  39.5558586
  81.7333069   5.6058717  39.0123444  46.0302353  15.9684668   0.2837091
  45.3301926  15.3561831   0.0572501  46.7499924  15.4107847   0.5789567
   7.5654516  29.1327019   0.0298465   7.8308158  28.3383293  -0.4336024
   7.8219357  28.9767170   0.9387559  54.0858269  40.7643661  31.5074444
  53.3103828  40.4622574  31.9803581  54.1408615  41.6983643  31.7095642
  37.9891853  50.0069733  10.4321032  38.3701286  50.2951927   9.6026201
  38.7418671  49.8769836  11.0089979  85.9340363  65.2526779  38.9014511
  85.7473068  64.5404892  38.2897758  85.6607666  64.9140015  39.7540092
  40.1276016  54.9326744  58.5558624  39.8542824  54.2209091  57.9771423
  40.6415520  54.5020103  59.2389565   1.5081276  35.9644699   3.4866734
   2.2469027  35.4694672   3.8408101   1.6930012  36.0334435   2.5500324
  78.1469498   1.0579032  63.1291046  78.5326233   1.0272769  64.0046387
  78.5443115   0.3201711  62.6664085  70.4615402  24.8257332  30.9086723
  70.3104401  25.0910435  30.0014725  71.3398132  25.1489677  31.1096306
  83.9260941  26.3527946   4.6123028  83.1545410  26.6871719   5.0696101
  83.6582031  25.4931355   4.2875710  20.9508152  66.9724426  75.0790710
  20.3195057  67.6885376  75.1490479  20.6426373  66.4531708  74.3363647
  65.7651138  35.0769768  31.0549412  65.2378311  34.2783928  31.0764256
  65.5083618  35.5548058  31.8436031  72.2415009  50.9218369  16.5666885
  73.1465759  51.2333946  16.5647221  72.1714401  50.3945312  17.3624725
  32.2865906   3.4604139  60.6847992  31.3524475   3.5170982  60.4838104
  32.3687210   2.6720326  61.2214012  63.9558067   0.5137119   3.2196038
  63.0476189   0.7994058   3.1205759  64.1937485   0.1692742   2.3588042
  37.1478958  40.6567802  14.0096035  38.0114555  40.9666748  14.2824812
  37.1472473  40.7570076  13.0576658  53.5229721  28.2080326  31.3552876
  53.3578224  29.0968342  31.0406628  53.6203270  27.6862144  30.5587578
  71.3490448  20.7559872  39.1906738  71.7442551  19.9474277  38.8646774
  71.4295349  21.3723507  38.4627686  44.3360901  33.4704437  22.7778034
  44.5915565  32.7995605  22.1446533  44.8790855  34.2272072  22.5571270
  79.7480316  11.9566917  41.2862129  79.7255173  11.0093689  41.4215088
  80.5420227  12.1065369  40.7730255  78.4979782  31.3092422  20.1764240
  78.7037277  31.8645191  20.9284649  78.9111786  30.4697666  20.3783588
  14.3044167   9.1320400  74.1061020  15.0436230   8.5437555  74.2601395
  13.5862942   8.7518854  74.6120834  77.0684662  65.2266998  75.9118423
  77.4586639  65.5217438  75.0890884  76.2314453  64.8399506  75.6548386
   5.5567689  66.2412643  37.3268204   6.4097915  65.8171768  37.4202728
   5.6363792  66.7665329  36.5305901   9.5047245   9.7437849  32.1288300
   8.6283550   9.9813461  32.4317703  10.0964680  10.2355585  32.6982422
  17.8030567  51.5259132  13.1252899  17.6239929  50.7079086  12.6615667
  16.9586716  51.7798500  13.4977942  13.7124577  10.3584318   0.0229739
  14.1436405  10.8273354   0.7374272  12.7931108  10.6171103   0.0871492
  67.0166473  49.7019043  36.6859398  67.6775589  49.5698891  37.3656464
  66.1873322  49.4883308  37.1135483  42.8050499  17.6940022  19.3272305
  42.2301979  17.3245716  18.6569328  43.1097603  18.5204029  18.9524708
  21.0731392  49.4838104  11.5544004  20.7494297  49.2201347  12.4157476
  20.6789227  48.8567200  10.9481153  57.2626610   8.6577482   5.1837325
  58.0910645   8.6441832   4.7043643  56.8447952   7.8252287   4.9634295
   8.4745388  29.4166985  15.7100601   8.2599926  28.9528923  16.5194340
   9.2745333  28.9945545  15.3969564   6.3295093  47.7256546  15.6704206
   5.4738035  47.6639900  16.0949173   6.7836037  48.4207764  16.1466904
  83.3558273  69.1861877   2.1523523  82.9269714  68.6629715   1.4751840
  83.1444016  70.0916824   1.9251741  51.4907036  45.8655891  31.0358486
  50.7073135  45.3181648  30.9823093  52.1517372  45.3873749  30.5352726
  28.0853157  13.6226969  10.3460226  27.3731575  14.2612028  10.3830414
  28.8691654  14.1250076  10.5685024  15.4624128  62.9599457  69.4126892
  15.4496698  62.1850967  69.9745407  15.4355812  62.6104164  68.5219955
  75.2113571  14.6931038  88.1827850  76.0696487  14.8473034  88.5774918
  75.3606110  14.7844086  87.2417145  32.9949684   0.3391621  31.6165409
  33.4767418   1.0232884  31.1516781  32.5197258   0.8058425  32.3039894
  67.4085312  63.7299881  52.3089981  68.1454468  64.3343353  52.3982239
  67.8152390  62.8686028  52.2149887  59.1999397  42.3813934  35.0204353
  58.8398323  41.6440735  34.5275688  59.0883560  43.1345825  34.4403610
  10.7159615  58.1392746  50.2947121  11.2405090  58.5397835  50.9880180
  10.6672611  57.2140923  50.5353355   6.8871918  53.9494743  16.3255005
   6.3100948  54.6163750  16.6975727   7.0506425  53.3437958  17.0484600
  55.8564758  47.3442307  24.6267796  56.3348274  47.5243111  25.4360867
  56.0202980  46.4173164  24.4529209  75.5205154  25.7060814   4.0371838
  74.9491425  26.2451611   3.4902282  75.6396179  26.2184334   4.8368979
  14.5680285  30.0013943  68.7123871  14.3807697  30.2076893  67.7966309
  14.5021610  30.8419476  69.1655655  75.2994156  48.9290123  68.3081360
  75.3268204  49.8779564  68.1857147  76.2010727  48.6425934  68.1624832
  78.4440460  13.0913343  69.3941574  78.0440598  13.6217413  70.0832977
  78.8665543  12.3706369  69.8614044  54.5658379  11.1583166  70.7830276
  55.0224037  11.8338070  70.2815399  53.8567162  10.8711500  70.2077789
  80.4130402  19.5897236  35.9035301  81.1656342  19.0327263  35.7045746
  80.4296036  19.6834965  36.8559837  63.2832260   4.4080009  75.5651550
  63.1758919   4.8735590  74.7357101  63.4262733   5.0996170  76.2112427
  15.7473164  24.2453232   9.6562624  16.1994820  24.2507668   8.8126106
  14.8343105  24.4346313   9.4398947  73.3514862  65.1767578  19.9224281
  73.3441238  64.5553665  20.6504707  72.4392548  65.2207718  19.6358700
  22.4143925  56.2130966  82.5878296  21.6797104  55.7966232  82.1372452
  22.0225086  56.6174316  83.3618927   2.0085692  15.2236395  86.0852814
   1.1412902  14.9308062  85.8054428   2.3112142  14.5395298  86.6824646
  36.3770676   4.2950320  35.0015450  36.4914780   4.5772228  35.9090195
  36.8880386   4.9219255  34.4895477  68.2120209  19.6541882  49.6792030
  68.0739594  19.8250065  48.7475433  67.4123535  19.2108974  49.9625053
  76.8317184  26.5219059  11.3916769  77.2406464  27.2309494  11.8879309
  76.0620804  26.2814293  11.9074907  52.3618469  47.9737244  28.1377983
  51.5535011  47.4626198  28.1775856  52.2759094  48.4961243  27.3403378
  61.1351624  61.7256126  29.2823257  60.5965500  61.1250267  28.7671318
  61.9007301  61.8924255  28.7324944  59.0538635  13.8492718  77.0722961
  58.7389412  13.2932014  76.3596649  59.7900848  14.3297777  76.6937180
  58.4151115  54.5638046  84.7093124  58.5678406  55.2798615  84.0927353
  57.6515312  54.1049538  84.3591156  48.4473152   5.4516788  24.5419884
  48.1440811   5.3687015  23.6378880  47.7218590   5.8762288  24.9999199
  66.4462814  34.3907051  50.4214096  66.0730896  35.1667900  50.8393173
  65.6990662  33.8072968  50.2889824  67.4200287  29.8481503  82.7369156
  67.1021957  30.4647617  82.0773697  68.0145264  29.2706203  82.2581024
  40.7055397  61.5523033  31.6153088  40.9395065  61.7238426  30.7031326
  40.0573463  62.2241478  31.8267326  24.6789322  22.7255707  16.9910545
  24.3238430  22.5941734  17.8701897  23.9280205  22.6074581  16.4093227
  60.7111473  66.1809387  64.5663528  61.6053886  66.0159073  64.8652267
  60.1660500  65.6251755  65.1233292  65.7630005  49.0249138  23.5227299
  65.0282059  49.1226921  22.9171257  66.3830414  48.4627686  23.0582180
   9.1358557  59.7390633  35.3708115   8.3695250  60.1587868  34.9799156
   9.0582352  59.9229736  36.3069649  74.1016617  52.6217079  81.0703506
  74.9014130  52.1060715  81.1739807  73.7626572  52.3679886  80.2118988
  25.6416130  58.9219360  50.8352470  25.9289341  59.8322716  50.9057388
  24.9990158  58.9278488  50.1258354  25.8362522  38.8144684  33.1755104
  25.1089058  39.2787590  33.5897942  26.5437775  38.8549461  33.8189430
  55.5316277  28.4897537  15.4548988  55.0025673  29.0971127  14.9377489
  55.1960716  28.5794621  16.3468552   3.0529354  66.7901840  75.1921997
   2.1289015  66.8919296  74.9640732   3.0638335  66.7818222  76.1492996
  73.2586975  66.7853012  55.5214691  72.7407532  67.2590332  56.1722755
  74.1664810  66.9203720  55.7933388  22.5912342  54.2823067  59.5392151
  23.0842171  54.7828293  58.8890800  23.0576172  53.4489174  59.6038971
  17.5418453   1.4465677  81.4334335  16.5967617   1.5452701  81.3180847
  17.6404190   1.1074119  82.3230896  42.9527664  41.7366753   2.3502865
  42.7223358  42.3653564   3.0343118  42.2536354  41.0835495   2.3798835
  62.5571289  58.7213707   8.8118763  62.8279572  57.8048477   8.8654394
  61.9132996  58.7398834   8.1037979   9.8875885  39.5563736  35.3065414
   9.7675772  40.1885300  36.0152092   9.3818560  38.7910881  35.5800476
   3.3050675  68.5340576  53.8978844   4.2061529  68.7759323  54.1118317
   3.2502813  67.6023483  54.1103821   4.3784809  49.8678246   2.0790837
   4.6868272  50.5726051   2.6486797   4.3745208  49.0916061   2.6391723
  19.2261658   3.3861842  86.0297394  19.6721859   3.2359173  86.8632355
  19.7332115   2.8829648  85.3926315  74.9019928  14.3141308  37.8913078
  75.7270584  13.9065399  38.1546745  74.2623596  13.9922915  38.5265427
  65.3069687  61.5213699  16.3682365  65.6331024  62.4050446  16.5384960
  65.9251099  60.9467812  16.8198757  14.9898272  46.5145836  88.3069534
  15.7230291  45.9828453  87.9972687  15.2371674  46.7690392  89.1959457
  46.3745384   1.4024305  38.2583313  46.6160049   1.3369666  37.3344078
  45.9753265   2.2684948  38.3407707  40.9407883  25.3293285  33.2172852
  40.0268936  25.0573921  33.3014183  41.4449081  24.5433769  33.4279366
  37.4667206  63.5032349  14.8565502  37.9541702  64.0277634  15.4917641
  36.7741127  64.0862427  14.5457029   4.4039292  51.3139572  23.9108582
   3.6210451  51.7304268  24.2712460   4.0841055  50.5012665  23.5190945
  26.3308563  16.3387413   4.4384098  25.9130077  17.1693802   4.2110934
  26.8372974  16.5333118   5.2270107  66.9009857  35.6061325  35.1804543
  66.6891251  36.5376244  35.1198807  67.3910828  35.4194069  34.3797226
  12.0254498  64.7093658  22.6177807  12.7581873  65.2096100  22.2584991
  12.0359344  64.9081573  23.5540524  24.6080914  50.5538673  81.9715881
  24.9331665  50.1594734  81.1622620  24.5975456  49.8334084  82.6017151
  74.4501877  22.4039803  76.0250015  73.7444916  21.8862724  75.6374359
  75.2426147  21.8952961  75.8531570  22.5236626  31.9242496   7.7212710
  23.3955765  32.2936630   7.8610187  22.6177292  30.9978085   7.9428291
  70.5568771  66.4663010  72.0307236  70.4355392  65.5335236  71.8534012
  70.7337189  66.8521729  71.1727829  53.9655609  22.9057846  85.7493286
  53.5903664  22.2075596  86.2859344  53.2075195  23.3906269  85.4229279
  45.1004601  22.7609997   1.2708598  44.9041595  23.2598610   2.0638516
  45.3318405  23.4249458   0.6213466  84.6448059  18.2586422  88.2538071
  84.5224380  17.5438690  88.8785934  85.4929428  18.0793819  87.8479004
  21.4165859   9.0639534  86.0712891  21.8012753   9.9095716  86.3018875
  21.7731895   8.8668089  85.2051468  66.6990662  25.9674606  14.9133263
  65.9274521  26.1934605  15.4327154  66.9227371  25.0790749  15.1907682
  24.0777340  30.6045837  82.0716171  24.0644970  31.0393753  81.2189713
  24.7106171  31.1055508  82.5861359   1.0924416  65.4318542  32.4195099
   0.3447120  65.5344086  33.0082474   1.3871334  64.5322113  32.5610847
  69.6933746  62.1285820  37.8985291  70.1745148  62.9548073  37.9442024
  69.5994644  61.9575920  36.9614182  66.5111160  26.9639912  64.0731430
  66.4031525  26.0408287  63.8443489  65.6456985  27.3482647  63.9330635
  60.0416451  37.7207375  75.7756042  60.1023026  38.0021439  76.6884918
  60.7700539  38.1630592  75.3397141  73.5883560   7.9673147  22.4342365
  73.9699631   8.5057058  23.1275902  74.0919571   8.1920843  21.6518726
  79.4209747  20.0027390  75.4442902  80.3196716  19.6895199  75.5466156
  79.5082703  20.9497738  75.3359680  56.5688515  51.2921104  70.8653030
  56.8711700  50.6470528  70.2259827  57.2716064  51.3340950  71.5138474
  79.2014313  49.6448860  10.6368980  80.0787964  49.3644562  10.8973370
  78.7428589  48.8316383  10.4257832  14.0996962  55.2387924  82.1850204
  14.9636898  55.5908661  81.9710236  14.2669725  54.5961151  82.8743744
  51.6229897  32.7368050  15.6244488  51.6345062  33.5259781  15.0828724
  52.5467453  32.5353279  15.7738247  24.8978119  54.6014977  30.5687790
  24.2826424  55.1967239  30.1404057  25.5671272  55.1758156  30.9408112
   6.3444128  65.5469131  31.2419090   6.0769258  66.3158188  30.7384472
   7.1416712  65.8223724  31.6943836   3.0825927  16.7229576  62.6936417
   2.4382443  17.0161591  63.3379097   3.5925891  17.5072079  62.4909477
  68.7163544  51.5813980  35.5246162  68.2529221  50.7446175  35.5602455
  68.3455658  52.0913887  36.2447968  64.8158493  18.5489826  19.5370007
  63.9149284  18.4680328  19.8500881  64.7328110  18.9380894  18.6664085
  63.0023041  36.1397476   7.5972886  63.0823097  36.2210007   6.6469049
  63.3159142  36.9780540   7.9365892   7.4733777  38.7704811  46.8304405
   6.7871046  38.8101921  47.4965363   7.2563663  39.4756508  46.2206268
  72.9925079   7.5665698  49.0440483  72.9488678   7.2883544  48.1292114
  72.1633072   7.2748265  49.4229240  14.2476540  25.0342865  29.7301178
  13.8230734  24.2642136  29.3520317  14.8896704  24.6768494  30.3435383
  17.2240868  49.7615051  30.7701969  17.5481224  49.9559517  31.6496410
  16.3371983  50.1213379  30.7567291  77.5660095   1.6162295  82.9922638
  77.9583664   2.1737077  82.3203201  76.6237793   1.6799493  82.8361435
  63.3130035  36.7374992  79.5965958  63.1973343  36.3861160  80.4794235
  62.4293938  36.9755211  79.3158722  39.2434769   2.0091503  45.2158966
  39.9879532   1.5607914  45.6170921  38.5097351   1.8276564  45.8031921
  74.2109833  47.7764969  66.0921402  74.7448578  48.1826401  66.7749710
  74.4497910  46.8500061  66.1207428  32.7184029  38.0671921  16.9375629
  32.0218277  37.8180885  16.3301392  33.4606133  37.5157814  16.6899815
  61.9071541  34.7146416  69.4306259  62.6832047  34.3874054  69.8854828
  61.5951729  33.9668999  68.9209366   6.3831649  12.3537645  65.8479919
   6.5472579  11.4300556  66.0379105   6.9077687  12.8278122  66.4932022
  85.9346008   0.5546387  16.1580276  85.1671753   0.0510883  15.8865118
  86.6230850   0.2894745  15.5481853  75.4375229  39.7167244  30.6326065
  76.2169876  39.3718109  31.0681534  74.9331512  38.9392242  30.3931484
  72.9706192  47.5296822  62.1764755  73.6952286  48.1152611  61.9567757
  73.3481064  46.9024353  62.7931633  56.9184418  26.1281128  22.4380951
  57.5047493  25.7052383  21.8106766  57.2407303  25.8466873  23.2943439
  47.1930504  66.0598907  75.4596786  46.7829094  65.3864212  76.0023117
  47.6760368  66.6059570  76.0799789  65.0763245  64.8148804  67.3239517
  64.3278961  64.9055176  66.7341461  65.6602402  65.5337830  67.0821838
  44.6608238  55.5270309  61.5529594  44.7290497  56.4754295  61.4428864
  45.5537491  55.2439117  61.7498360  72.1737900  29.1749229  80.9472885
  73.1254272  29.2775841  80.9561081  71.8941803  29.6031609  80.1381760
  27.7025261   9.5581751  43.5590286  27.6476002  10.5109949  43.4858971
  28.0976524   9.2769966  42.7337761  21.5344162  39.4121094  20.3551693
  22.3381615  39.8292236  20.6653996  21.8297882  38.7824364  19.6975250
  84.9417191  29.6363239  86.5139465  85.3565521  28.9777317  87.0710831
  84.4267426  30.1711426  87.1181030  86.4060745  52.6217995  15.7385969
  87.0238190  52.5417862  15.0118113  86.0988998  51.7281837  15.8913288
  43.2541428  66.0867691  52.5423660  42.6003036  65.6318436  53.0731850
  42.7409515  66.6211777  51.9363327  47.9059219  13.3046980  15.0450640
  47.9754715  13.1733847  15.9906597  47.0478668  13.7107172  14.9221067
  50.9682198  49.6049995  40.3714333  50.8911552  50.2587280  39.6764984
  50.1650810  49.0885391  40.3045654  12.8760624  29.2177773  36.4575500
  12.7755308  28.6823730  35.6704865  11.9796247  29.4000912  36.7393188
  84.5195770  11.8015852  22.4135818  85.1918030  12.2297440  21.8834667
  84.4986420  10.9003906  22.0916443   1.5042653  64.6673050   3.1581128
   1.7689104  64.1343613   2.4083388   0.5568891  64.5439377   3.2171872
  15.1511726   9.7289066  65.3186722  14.9197826   8.8632507  64.9820251
  16.1065407   9.7159204  65.3764191  48.3033638  10.6207247  84.3958130
  48.0248642   9.7156038  84.2564316  48.9164772  10.5724173  85.1292953
  77.7489166   6.5770683  81.1024094  77.7256165   7.1970530  80.3734970
  78.6683502   6.5536156  81.3675919  60.3606071  39.1993217  11.9828444
  60.9490509  39.0888634  11.2360086  60.9204941  39.0754700  12.7492800
  57.3288002  48.4456291  34.8272896  56.6911049  48.0798645  34.2142715
  56.8288918  48.6008682  35.6286812  69.9893951  30.3691444  14.3590660
  69.1989975  30.3020821  13.8233261  70.1645279  29.4713306  14.6410065
  55.5455742  61.3904037   7.2038202  56.3802376  61.5355759   6.7582994
  55.5490875  62.0155296   7.9286900  36.7441406  15.4786749  59.5701485
  37.0188255  14.9014292  60.2825890  37.4100609  16.1659241  59.5484428
  51.1067581  12.3999424  30.3879681  50.6024742  12.8002129  31.0962849
  51.3709984  11.5475397  30.7341175  79.6781387  16.2079144  71.6414948
  78.9015884  15.8519592  71.2096405  79.3506470  16.5647850  72.4671021
  67.8407135  40.5644875  23.1624870  68.1857834  41.4332199  22.9564247
  68.5094299  40.1673050  23.7204247  63.0578461  40.6062279  46.9615479
  62.1682777  40.8288651  47.2360115  63.6023674  41.3048553  47.3243866
  64.8321762  30.4796715  58.8321609  65.0283813  29.9257259  58.0765953
  64.7470932  31.3606358  58.4676132  63.5588493  66.8374329  53.8253212
  62.8065910  66.8484344  54.4171143  64.2464066  67.3011551  54.3032990
   4.9296088  24.9662838  29.2922077   4.9359674  25.3449554  30.1712971
   4.1583128  24.3995285  29.2811260  39.5459785   7.7300553   3.0011008
  39.7065620   6.9539447   2.4643548  39.6643982   7.4273143   3.9014101
  60.5968781  10.1346788  46.8921127  61.4817848  10.4434767  47.0865631
  60.5744476  10.0571318  45.9383202  69.6082535  56.9369011  77.2651062
  70.1394958  56.4503098  76.6348343  70.1902390  57.0756569  78.0122757
  72.5177689  65.7286682  11.7539816  71.9114151  66.0603561  12.4162121
  72.5126114  66.3967056  11.0684652  30.0639896  54.1303062  53.3947868
  30.1714516  54.1652718  54.3452950  29.5632439  54.9176331  53.1812401
   5.8611350  54.2609863  67.8589172   5.5979643  53.6243172  68.5234680
   5.8668776  55.0998611  68.3198853  52.4781303  54.5723267  54.3001213
  52.3138351  55.4996529  54.1289330  53.3326607  54.4032516  53.9033508
  35.1538620   6.4648161   3.9340596  35.3800240   7.2451725   4.4401503
  35.8364563   5.8307428   4.1537185  35.3612633  52.2340698  30.7934742
  35.3726234  52.7721481  31.5850391  36.2569046  51.9057846  30.7141514
  86.5242538  18.6121254  13.9287300  86.3448563  19.5511780  13.8815241
  85.6641312  18.1996765  13.8493290  70.5757217  41.0419350   9.2267294
  70.6454620  41.9060097   9.6326170  71.2078781  40.5024796   9.7017059
  80.9497986   4.9392676  28.6625080  80.2803268   4.7426572  29.3177853
  80.9459991   4.1791863  28.0807056  38.2455635  64.0923843  50.4999542
  39.0040169  64.5333328  50.1171494  37.8102798  64.7701111  51.0170975
  69.0826569  36.5296745  70.3873215  68.5229111  36.9275284  69.7205200
  69.1336212  35.6069679  70.1378250  23.9158287  26.3604736  84.2205734
  23.6735687  26.2380829  85.1384811  24.5756645  27.0537014  84.2373886
  59.0259552  42.8574905  17.0645027  58.9948273  41.9575195  16.7399731
  58.3925972  43.3291931  16.5235901  46.7770119  12.1230278  10.8834543
  47.0639229  11.9004126  11.7690926  47.4906998  12.6514740  10.5262117
  33.7049255  49.1536217  38.8842239  33.5967216  48.2510872  38.5842934
  34.5524826  49.1582108  39.3290329  43.9411278  10.7935696  12.6735172
  43.3226547  10.0836830  12.8460913  44.7615128  10.3495922  12.4588413
  38.7975769  68.0818787  39.2874451  38.3965645  68.2866058  38.4427490
  38.2276459  68.5023651  39.9313393  80.4272995  35.5193672  40.1548195
  80.5853882  34.5881004  39.9999542  79.9459763  35.5463257  40.9817581
  66.2853317  33.5781364  70.6062088  65.7410202  32.7908325  70.6168442
  65.7190933  34.2655373  70.9570541  49.1248817  63.2326508  87.5038986
  49.3676910  63.3741150  88.4189148  48.9303627  62.2969971  87.4496155
   9.0572510   3.1054199   4.2798066   9.9844666   3.0171444   4.0591025
   8.7565470   2.2067485   4.4147100  17.0384655  49.1640396  70.5873260
  16.8475437  48.5326271  69.8937149  17.9912148  49.1409798  70.6766052
  55.4538460  43.9731865  50.0285721  54.6853065  43.4091873  49.9420586
  55.3163376  44.4406738  50.8524551  71.4498672  64.1934509  39.4132805
  71.9050980  64.6520386  38.7070999  72.1482925  63.7740936  39.9158401
  10.8344469  44.5251656  70.0088882  11.0999460  43.6100044  69.9182205
  11.3946877  44.9991074  69.3942795   0.0572234  49.0389977  81.6387711
   0.7317807  49.6493874  81.9364777  -0.0916019  49.2745171  80.7230148
  74.5104065   5.6672788  82.0210953  74.3161240   4.7326212  81.9510956
  74.5313492   5.9760551  81.1153107  30.3511829  59.7323837   4.1034994
  30.7599125  59.1882896   3.4303465  29.5482540  60.0559349   3.6950278
  73.1025925  54.7375793  64.1586609  72.3489990  54.2258492  64.4526978
  72.7468491  55.3277321  63.4942818  79.5974960  37.6712608  32.7261353
  79.5169983  37.0037766  32.0447998  79.9954605  38.4200287  32.2820625
  79.5088882  39.2071152  10.9671640  79.1856613  38.5464020  11.5797071
  80.3868637  39.4186897  11.2843924  24.0736713  60.5462723  78.7856140
  23.4648647  59.8523407  79.0386887  24.2517910  60.3826256  77.8594818
  36.5174141  59.9260826  38.8953018  37.2130203  60.2331886  38.3138809
  36.3148994  59.0446587  38.5817642  59.0207939  24.8200150  30.1350670
  59.1400414  23.9531975  30.5231895  59.2305717  25.4300117  30.8422661
  17.5937424  59.0210419  86.0848541  17.6927109  58.0715904  86.1554260
  18.3347492  59.2997627  85.5468445  11.2589436  29.6096210  10.2856321
  11.7431593  30.4318886  10.3607483  10.3620958  29.8772697  10.0849829
  74.0635452  36.8087044  26.8643456  73.7684479  37.6992226  26.6742744
  74.2425842  36.4271545  26.0049286  16.5309601  50.5920830  75.0429077
  16.0040207  51.3427200  75.3169708  17.4199448  50.8078537  75.3246460
  80.7510376  47.6487389  13.4546137  81.2061691  46.8563843  13.1695547
  80.9906616  48.3094864  12.8048248  66.7891006  23.6763191  68.4411621
  66.3758621  22.9284954  68.0096207  66.5712967  23.5689411  69.3670502
  84.6975784  54.3353958  14.5046968  85.2867584  53.7955780  15.0316648
  83.8377380  53.9296036  14.6153078  78.0323563   2.7832658  45.5660439
  77.2185593   2.9957922  45.1090965  77.7926788   2.7792132  46.4927406
  15.0067148  21.0163574  86.9208527  14.6465244  20.7282486  87.7595978
  14.7536516  21.9371567  86.8551331  18.8146553   4.7475734   3.6517682
  18.9520760   4.8519802   2.7102551  19.6973000   4.7216010   4.0212188
  46.4045563   2.3955843   9.8570786  46.8825912   2.4928589  10.6806393
  46.2925377   1.4504192   9.7553596  15.4365845  25.7152157  73.9295883
  16.3645096  25.9425182  73.8702621  15.4253511  24.7583485  73.9521713
  77.9076843  18.3315392  57.9936256  78.7003555  17.8564091  57.7443352
  77.9805984  18.4380779  58.9420815  15.9129629  62.2721481  17.5849094
  15.6770229  61.5279961  18.1388092  15.1863060  62.3505440  16.9668007
   5.9705811  23.8420963  72.3699875   6.8431621  23.4653473  72.2564316
   6.0420198  24.7252464  72.0078125  24.5595074  43.0796776  65.4615326
  24.6590843  42.1997147  65.0982437  24.6076889  42.9543877  66.4092712
  55.6636581  16.0751190  28.4386559  54.7341232  16.1903591  28.6359215
  55.9488983  15.3771343  29.0283070  53.6063232  44.7273407  26.4082260
  53.4766312  43.8159904  26.6706295  54.5256042  44.7723770  26.1453075
  52.5374527  45.4388008  12.3520031  52.8822746  46.1681480  11.8368530
  52.3567619  45.8175430  13.2123146  64.2040558  45.2199974  16.0938091
  64.4054871  44.5031128  16.6952515  63.5872650  44.8410721  15.4675369
   3.2109315  17.3367004  26.9262238   3.6830821  16.9370193  26.1957722
   3.0370560  18.2325974  26.6374893  13.6820412  24.6688652  53.8841743
  13.0406580  25.1849785  54.3725243  14.3166656  24.3890972  54.5438805
  59.9636421  65.6876831   4.3829727  60.8383827  65.5932541   4.7599926
  59.9382973  66.5881119   4.0592194   6.3077536  69.1488266  17.5186157
   6.2170901  68.5683136  16.7629585   7.1453857  68.9023514  17.9108562
   9.6266203  16.0869598  11.4938917   8.7709351  15.6693211  11.5919380
  10.2453985  15.4533768  11.8570957  53.3134995  50.9199677  67.0569077
  52.8063889  51.2918091  66.3352356  53.6886253  51.6796074  67.5023956
  82.7304916  51.8329048  17.3378010  82.7199554  52.7463608  17.6236687
  83.4220352  51.4264488  17.8600883  29.7592602  36.5835609  31.7819366
  29.5177059  37.3125038  32.3533630  30.5416985  36.8884659  31.3225307
  12.0689278   5.6663861  30.9772472  11.9882956   4.7304859  31.1611538
  11.3811226   6.0740247  31.5035419  50.5227776  21.9587078  26.1211414
  50.1889725  21.9025917  27.0164948  49.7905312  21.6741753  25.5742550
  56.4680557   7.0901012  64.1785965  57.3205833   7.5118976  64.0712662
  56.6221352   6.1752143  63.9430656  31.7878170  44.0259094   7.7786851
  31.6605911  43.8351974   8.7080269  32.6555634  43.6748123   7.5787392
  66.5248566  19.5788269  54.4440575  65.7468109  19.5703888  53.8865471
  66.9815216  18.7651978  54.2302895  44.1869545  10.3651266  72.4231262
  43.5398331   9.7655535  72.0516739  44.7908440   9.7983789  72.9030762
  58.6711617  24.2049007  21.6898861  59.4863625  24.0853500  22.1771107
  58.9287376  24.1332073  20.7707863  74.8683472  49.2792702  85.1274490
  74.8785019  48.9916153  84.2145538  74.7258530  50.2245712  85.0791321
  57.8055000  56.0456314  11.4349947  58.6484184  56.3683624  11.7536869
  57.1599884  56.6329842  11.8281422  45.0847702  32.0086594  17.4874001
  44.5950127  32.3423843  18.2390633  45.4374695  31.1699028  17.7845955
  20.1353283  45.9268112  53.6433563  20.6997681  46.6276321  53.3170395
  19.4461155  46.3806190  54.1284103  14.8608561  60.0479622  19.1475029
  14.3674269  59.2825737  18.8526440  15.6968403  59.6923866  19.4490490
   5.8667817  62.1879005  86.2986603   6.2196031  62.1220245  87.1860199
   5.0351276  61.7154617  86.3358994  18.5370750  66.6000595  44.2671585
  19.4303799  66.4345551  44.5685654  18.5138760  66.2431335  43.3792953
  33.0761909  14.6579256  14.8025894  33.5814095  14.7218418  15.6130838
  32.1635628  14.6352644  15.0903931  18.0846996  57.1840401  61.3651352
  17.4113407  56.5056725  61.3138123  17.8626041  57.6829796  62.1512451
  72.9833145  59.5176964  34.2183380  72.9691315  58.6883621  33.7405968
  73.8131943  59.5052528  34.6951828  40.8311119  21.6011868  47.4667587
  41.7581520  21.3629513  47.4752045  40.3768272  20.7879639  47.2464752
  62.9073067  21.2666912  35.2423019  62.7197533  20.4667759  35.7334175
  63.6177063  21.0225067  34.6490593  10.8508139  12.2861500  67.2618713
  11.2616148  11.4828758  67.5815964  10.7607937  12.1501026  66.3186722
  71.9145050  41.2954178  53.3706551  71.0571213  40.9206772  53.1689262
  72.3456726  40.6312332  53.9084167  59.0289764  11.7578058   1.8558719
  58.3195534  11.1630831   2.0992978  59.5104790  11.9023323   2.6704254
  85.1623917  26.2560310  30.9160061  84.5097885  25.7754612  31.4253178
  85.9051056  25.6557064  30.8510876  46.1800041  65.5957565  67.4740372
  46.2290115  65.6809692  68.4261703  47.0237312  65.2194748  67.2234955
  62.3459625  16.0502739  62.7664909  62.4095650  16.1186619  61.8138580
  63.0410004  15.4386969  63.0096512  60.5916252  62.9291878  64.7081146
  59.7116241  63.2731934  64.8613892  61.0386353  63.0319023  65.5482712
  28.4294739  65.5854034  31.6560307  29.2657776  66.0071640  31.4586983
  28.4409771  65.4631653  32.6053238  18.3825703  56.0139961  45.4740105
  17.9229298  55.2223053  45.7536316  19.1195278  55.6923103  44.9547348
  60.6216621  35.7254524   1.1059078  59.9440231  35.6273956   0.4370119
  60.2635384  36.3692245   1.7170849  21.5263519  25.4707565  61.8777771
  21.2796917  26.1804638  61.2847290  20.8810158  24.7838345  61.7107162
  44.3330040  59.3334694  80.5528336  43.6873665  59.3021507  81.2588043
  43.9424362  58.8168640  79.8479843  41.5840302  43.5689621   8.6978321
  41.1752396  43.6573563   7.8368402  40.8741913  43.7349205   9.3181705
  86.5949554  63.1437263  47.7485161  87.2233276  63.8622665  47.8198013
  86.3074722  63.1666183  46.8357925  50.0410957   2.8177655  56.8271179
  50.7465897   3.1956644  56.3020401  49.9636116   1.9173816  56.5116234
  11.8751440  17.2847271  51.1680870  11.5018873  17.7679901  50.4309540
  11.8028202  17.8856125  51.9096680   3.8057342  38.3425331  87.3306427
   3.5469012  37.6987991  86.6712189   4.7624459  38.3120308  87.3325653
  13.9965229  15.4319220   1.7100904  13.5191307  14.9235497   1.0544331
  14.5917816  14.8012905   2.1153097  18.8245983  15.3540945  49.4426727
  18.0830517  15.8124371  49.0473747  18.7274418  15.5072880  50.3825264
  58.0452194  21.6066074  25.3566990  58.2587700  22.2651863  26.0176830
  57.6386147  22.1031246  24.6465054  50.2827110  46.6894150  16.8900433
  50.5436821  47.3424225  17.5394344  50.6814842  45.8747711  17.1959267
  18.6197433  38.7336998  86.2965546  18.4811001  39.5975647  85.9082947
  17.7376556  38.3872337  86.4311447  51.3184013  17.7773533   3.4904332
  51.7512207  17.3854771   4.2489395  50.7756615  17.0738487   3.1344190
  18.8533878  31.9526291  71.1611328  18.0778580  31.8593616  71.7143784
  18.9549217  32.8977280  71.0483932   2.2116320  60.5914154   5.8431683
   2.4042232  61.5221405   5.7296252   1.4146127  60.4477692   5.3329163
  21.9249973  32.4923134  86.9950409  21.2036133  33.0375061  86.6810303
  21.6105804  32.1337967  87.8250046  61.3973885  69.9034500  57.5899696
  61.2354622  70.8108368  57.3317871  61.7827950  69.9681931  58.4637527
  30.8274117  60.2282333  83.0230942  31.2882938  60.0765343  83.8481979
  31.2366085  61.0142479  82.6611862   7.0301285  31.9189663   0.6473051
   7.4727783  31.0737896   0.7245664   6.8105555  32.1575546   1.5479134
  63.7160683  14.0479965  86.6303329  62.8858147  14.3927250  86.9590836
  64.3136292  14.7952318  86.6585312  62.1762199  57.1705017  73.1830215
  61.6317749  57.9571686  73.2140579  62.6646881  57.1846619  74.0060883
  82.7494888  27.7621059  24.5906582  82.5686798  27.9611149  25.5093174
  82.0314102  28.1744175  24.1104527  12.2922716  52.4917297  44.1855736
  12.3792238  53.2243156  43.5756607  11.8017979  51.8304825  43.6972923
  22.1912289   5.8856192  80.0884094  22.5702801   6.5255804  80.6909103
  21.8882675   6.4068069  79.3449020  22.2757492  69.2866287  10.3292742
  23.2119846  69.4087296  10.1718426  22.0288906  70.0230942  10.8886566
  48.0404587  34.3889580   5.1442981  47.7051582  34.1378021   4.2836432
  48.8883476  33.9494362   5.2086129  79.7635422  34.1269875  14.7523022
  79.6977234  34.2287941  13.8028097  78.9514160  34.5042114  15.0905037
  79.2231903   7.1605763  46.8465004  80.0951691   6.8300786  47.0625076
  78.6261902   6.6109347  47.3541565   9.2245522  20.5823116  56.7908630
   9.8570824  20.9710064  56.1866646   9.5896215  19.7223568  56.9992676
  63.1485519  48.8224716  85.8494568  63.2570419  48.6204758  84.9201202
  63.8981476  49.3781624  86.0628738  62.7440643  20.1057129  78.1370544
  62.0391998  20.6704388  77.8200531  63.0354576  20.5195045  78.9495163
  15.0773611  34.7699318   3.3518693  15.2391062  35.3964119   2.6464658
  15.4924431  33.9607124   3.0533707  67.1599655   1.3978655  84.2515030
  67.1669617   1.3097819  85.2046204  67.1089401   0.4983606  83.9282074
  28.2603683  52.9615860  89.4070358  29.0468998  52.9519196  88.8615875
  27.8240376  53.7837296  89.1835938  24.1823120  22.8879662   9.1575327
  24.5273228  22.5399551   8.3352880  23.2318535  22.8213940   9.0657234
  81.7948914  43.5080032  10.9914637  81.6630249  44.2280998  11.6081543
  82.3909454  42.9112206  11.4440117  42.2430344  58.8034782   5.2445006
  41.3825531  59.2095871   5.3488140  42.1330261  58.1931381   4.5153818
  65.8089600  25.0916653  53.7948685  65.1393509  25.7657909  53.6790771
  65.8216095  24.6209984  52.9614716  81.8374405  56.5427589  86.4327316
  82.5064926  55.8886681  86.2308121  81.0249329  56.0412788  86.5003967
  77.8334351  37.6492310  85.4405212  77.5158081  38.2804756  84.7948608
  78.7197800  37.9447899  85.6485291  16.8767929   4.1502786  75.1744919
  17.7231312   3.8773582  75.5286865  16.2711201   3.4589236  75.4417343
  41.7186546   2.0337524  13.7048073  41.5804100   1.4517719  14.4520817
  41.6279678   1.4662979  12.9392986  78.2207947  41.3017654  55.2263794
  78.1462021  40.6752319  55.9461861  79.1624146  41.3790817  55.0727577
  77.4992599  45.1138916  89.0575867  76.6132355  45.2324562  89.3998337
  77.4288788  45.3349533  88.1289291  28.0317535   5.5263524  41.0737305
  28.2840862   4.6610074  40.7516479  28.8625622   5.9740934  41.2334747
  15.7134504  44.0744286  37.0015945  15.1707697  44.5760498  36.3932343
  15.4856949  44.4184761  37.8653030  60.7167740   2.0557191  65.9979477
  60.8343849   2.9273965  66.3755417  60.0961838   2.1869688  65.2810974
  38.4734802  39.5917511   3.9959142  37.6418533  39.9729996   3.7143517
  39.0992012  39.8577080   3.3221388  68.0531082  10.2003736  79.6180115
  68.0806122  11.1534414  79.5335312  67.9893265  10.0451975  80.5603943
   6.1454487  70.6699371  77.7806244   6.5017524  69.9012299  77.3352356
   5.2694492  70.7769165  77.4099350   1.9398317  28.5245647  40.3965454
   2.2762630  29.4145298  40.5014763   1.0112981  28.5917263  40.6191368
  52.2479324   1.6076860  81.2425079  52.2926750   0.9102460  81.8965836
  52.1557846   2.4109650  81.7548447  31.4091244  11.0120068  37.4929352
  32.1266289  11.6249094  37.3324051  30.6183205  11.5086489  37.2826843
  53.4566154  68.6500931  15.4812660  53.9070892  69.4946594  15.4846859
  53.9816284  68.0962677  16.0590801  69.4113998   1.1510216  80.4493484
  69.2348480   1.6302934  81.2588959  69.6498032   0.2705346  80.7394180
  10.5314054  69.1709290  17.4183807  10.1614180  68.2895737  17.4688549
  11.3164148  69.0706787  16.8799191  42.5753784  17.2136211  33.6689262
  42.5219765  16.4234962  33.1312637  41.7915955  17.7128868  33.4394798
  82.8620071  70.6497192  83.3842773  83.4619675  70.5447235  84.1226883
  82.9229813  69.8224487  82.9066315  34.7335701  51.2951927  88.5092468
  35.5767441  51.6760712  88.7546539  34.1995392  52.0448341  88.2464142
  62.7918091  63.5384979  51.7604599  63.0856285  63.4170265  52.6633148
  63.4548759  64.1057892  51.3670692  13.7495241  54.1443977  60.1513100
  14.3010740  53.7912979  59.4532127  13.1038933  54.6850014  59.6961823
  80.7778702  30.1233139  42.4667969  80.1956177  30.4731102  41.7923660
  80.4719620  30.5258293  43.2795906  13.4193869  36.3251457  88.1519089
  13.5882320  36.3663101  89.0932007  13.0516663  37.1823196  87.9368210
  10.6909857   6.1714835  73.0933456  10.8444672   5.2293530  73.0221786
  11.4506588   6.5706177  72.6692963  72.7107010  16.6315403  51.3629265
  73.1426849  17.1662178  50.6967850  72.8814774  15.7290678  51.0934639
  14.6135235  68.2118530  61.9563255  13.9956264  67.6829834  61.4516182
  15.4236498  67.7020340  61.9529877   5.4595308   8.2611990  17.9712105
   4.7853370   8.5022373  17.3359184   5.8602438   7.4717474  17.6073055
  26.9614964  53.0290756  35.6028137  26.5499458  53.8540497  35.3453789
  27.2154121  52.6197281  34.7756538  63.0864105  66.2096939  47.4382324
  63.3949699  65.9814453  46.5613480  62.3395004  65.6300354  47.5877419
  40.9047394  42.8738670  23.5008240  40.0287704  42.5124474  23.6360569
  41.4396400  42.4667397  24.1822643  72.9226990  18.6076736  61.6451302
  72.9575500  19.5555935  61.5168114  71.9891663  18.3972340  61.6236763
  28.1035843  45.5093079   9.1130228  27.8833752  46.0462418   8.3518105
  28.5304585  44.7356415   8.7449932  23.8567448  36.8116760  10.4079628
  23.1802006  36.8307648   9.7310915  24.5578003  36.2800560  10.0309610
  78.0683975  54.7396774  49.5504837  77.5503235  54.9115524  50.3367996
  77.4192734  54.6228600  48.8567772  44.4745979  10.8896637  24.0248890
  43.9312668  10.5378046  24.7300262  45.3728065  10.7069588  24.3006935
   5.0608616  20.5916500  34.9529648   4.2781987  21.1408958  34.9082451
   4.7770534  19.8081665  35.4239578  83.6273651  41.3652039   5.4246182
  83.1491470  40.6026535   5.0989504  84.5460434  41.0969353   5.4077315
  68.0261230  41.9377213  26.5931816  68.4622726  42.6255608  26.0903072
  68.3678894  42.0373116  27.4817238  82.2163086  62.1157761  49.7699242
  82.8768616  62.8064804  49.7167778  82.6742477  61.3241577  49.4873314
  38.9344711  61.3036995  70.7655487  39.4479446  60.8404732  70.1037369
  38.9007759  62.2078056  70.4530029  17.9015522  40.0813217   0.1947961
  18.0574608  40.9407959  -0.1966459  18.7007999  39.5868912   0.0132117
   6.7312284  19.3109856  32.0630379   6.3657417  18.4421501  32.2296944
   6.1487269  19.6940880  31.4071732  43.3611755   2.1806509  44.0432892
  43.1030121   3.0550344  44.3348999  42.7279663   1.5936868  44.4565125
  84.4088287   7.3295255  23.7967319  85.0513077   6.9479446  24.3949375
  84.1090088   6.5921373  23.2651291   4.7588868  63.4580154  32.0192184
   5.3148193  62.6788063  32.0167389   5.3683658  64.1874313  31.9064617
  34.8403625  69.1248093  88.4709473  33.9999199  69.2960587  88.0460205
  34.6498566  68.4388962  89.1108398  19.9906349   7.7071376   1.3448050
  19.0645370   7.8252163   1.5560685  19.9921570   7.0968471   0.6073942
   8.9952831   7.6752543  42.6636772   9.3771515   7.1977286  41.9272156
   8.3690901   7.0617743  43.0480690  85.0249176  17.9763660  18.2767239
  85.0600815  17.2527122  18.9022789  84.1016693  18.2279243  18.2531357
  75.6418457  59.6297951  32.4794273  75.5168381  58.7614632  32.0965424
  75.7445526  59.4656868  33.4168472  43.0160904  59.2893753  77.6736603
  42.1761284  59.6745110  77.9233932  43.0299072  59.3438454  76.7181091
  82.3356247  67.4473724   4.0403757  82.1524582  66.6844406   3.4920831
  82.8789902  68.0122757   3.4909503   7.0115795  57.2801628  81.1975479
   7.6869297  57.9193954  81.4245148   7.4370928  56.4306641  81.3138580
  52.7262230  54.9476318  19.8019657  52.7870903  55.0871277  20.7469883
  52.3103409  54.0901299  19.7127304  36.0431404   7.8340020  15.0595169
  36.8702240   8.1852808  14.7297144  36.3018761   7.2009087  15.7292032
   6.9772267  24.8298569  45.0975800   7.3383622  24.3652248  45.8525162
   6.9330134  24.1678658  44.4076195  79.3909988  63.9165688  78.1447906
  80.0690079  64.4576035  77.7400360  78.5716171  64.3678665  77.9418945
  86.3635330  61.8469543  60.5101509  86.5306549  62.6858025  60.0804596
  86.7964401  61.2012978  59.9516182  43.8866959  68.9627304   9.6513577
  44.2508774  68.6626816   8.8185472  42.9519539  69.0739594   9.4778128
  58.6092567  40.2404900  73.2297287  58.0582047  39.8802185  73.9245529
  58.7286224  39.5141563  72.6178284  20.6614723  28.6692181  14.5739775
  21.2705898  29.4056015  14.6282501  19.8482094  29.0026608  14.9529915
  80.9358673  18.7885571  42.0729408  81.0521698  19.4371529  41.3786545
  81.6676636  18.1821175  41.9592018  33.9376488  60.6715736  18.6614838
  34.1463013  60.4641953  19.5723572  33.0203781  60.4167633  18.5618954
  37.3197517  42.9334869  84.8931885  37.6198883  43.5285149  85.5802765
  38.0288010  42.2971191  84.8008881   3.5320976  32.3474274  65.3513336
   4.2261333  32.7011528  64.7950745   2.7462406  32.8258667  65.0872192
  45.4644012  40.5288200   3.3131037  46.3414116  40.3425560   2.9778585
  45.5646629  41.3425102   3.8071551  76.3414764  15.6894674  15.0444908
  76.8146362  16.5215187  15.0381231  76.8969269  15.0942078  14.5411329
  47.8964500  30.7986507  87.2974472  48.3813438  30.9485302  86.4858780
  47.5316277  29.9191322  87.1995392  37.0817757  50.7482071  72.7550125
  36.1508179  50.9700356  72.7734756  37.0992775  49.7927780  72.6995239
  26.0808640  18.8244915  57.7301331  26.2259502  19.7604275  57.8687210
  25.7877808  18.4989471  58.5812225  23.9799175  62.4016304   5.6649542
  24.6371574  62.6884842   6.2989750  23.1505146  62.4526367   6.1400561
  68.8154373  55.1987648  22.2747707  68.5859604  54.8606834  21.4091663
  69.4309692  54.5561371  22.6274376  75.8096161  18.8574142  23.4498806
  75.5210114  18.5744724  22.5821934  76.6709747  18.4544582  23.5590000
  16.5741272  68.7675476  86.1978989  16.4164467  67.9358902  86.6447983
  17.4777489  68.7055283  85.8883057  71.9664230   6.8644190   8.2667379
  71.6450348   7.5563784   7.6886926  71.2371063   6.6917658   8.8621597
  47.0296326  21.4753113  83.7678452  47.8694305  21.0326691  83.6452103
  46.4815292  21.1513920  83.0530777   2.7192767  31.3273315  87.6120987
   2.3979950  30.5305061  87.1901093   3.6601081  31.3290462  87.4358444
  80.4830093  39.5109024  43.1470108  80.0670166  39.6889648  43.9905014
  80.7892609  38.6067314  43.2171211  70.5883942  10.0432062  53.6578751
  70.5909348   9.5312862  52.8490715  69.8050690   9.7508841  54.1238976
  34.2729530  59.8567009  56.3655205  33.8768959  59.2484894  56.9895782
  35.2128410  59.6870651  56.4293213  32.7089195  58.9854469  58.5043144
  32.4899445  58.0587311  58.4069252  33.4063759  58.9991531  59.1597519
  17.4223270  14.0698376  26.0080757  16.9861965  14.8838615  26.2598438
  16.9017181  13.3813210  26.4217682  18.1693325  27.6671715   7.8645277
  19.0058918  27.2027149   7.8384290  18.3876190  28.5348339   8.2047434
  13.6311731   0.7334554  61.2572289  14.4012356   1.2329459  61.5287857
  13.0514383   1.3837963  60.8607483  69.5274582  60.9356995  54.7449379
  69.9533310  60.0825768  54.8288612  69.1621246  60.9350243  53.8601990
   0.5504476  25.8228321  27.0619621  -0.0660007  26.5551014  27.0595970
   0.2449407  25.2502918  26.3583336   9.8075085  29.8464375  56.6766815
  10.1934681  30.7154770  56.5669594   8.9018087  29.9479218  56.3840370
  18.9265461  45.5347748  69.8094177  18.5503025  45.7572594  70.6609879
  18.5327377  44.6912804  69.5865707  70.9787140  10.6941280  29.2004452
  71.7607117  10.2653046  29.5480461  70.5395813  11.0530071  29.9715481
  33.9242096  21.8115139  27.3293114  34.4934464  22.4029980  26.8370228
  34.4700203  21.4992962  28.0510082  16.1350498  24.4823246  69.1603470
  15.7233553  23.6363316  69.3365173  15.4259844  25.0273228  68.8191147
  61.6246071   5.5240240  57.9263191  62.3498878   5.0238996  57.5520554
  61.4717484   6.2304134  57.2987175  43.5016098   3.0233550  31.7004375
  43.7567329   2.4459722  32.4200020  44.2337952   2.9776807  31.0855827
  44.7568550  61.6329384  88.6239700  45.2939682  61.7264519  89.4107361
  45.1783104  62.1992645  87.9775391  13.2323608   5.5963964  44.2024155
  13.3261776   6.4677238  43.8174210  12.7506456   5.0946064  43.5448494
  20.2060623  64.6698074   7.1508150  20.2233429  65.6188202   7.0270882
  20.5295391  64.5385437   8.0420856   8.9062576  58.6332550  32.8495102
   8.7240458  59.2347908  33.5714417   9.3768997  59.1650085  32.2076607
  18.6487198  17.5296574  29.3778934  19.0890484  18.3353882  29.1074448
  19.3440094  16.9927616  29.7580872  14.3108912  52.3528252  74.6578598
  13.7898102  52.8458405  75.2916107  13.7705250  51.5924110  74.4433594
  14.3890085  50.9786530  83.3991623  14.6940289  50.4879608  84.1623230
  14.1666384  50.3062096  82.7552643  39.9765205  14.5773153   4.1104789
  39.1756516  14.6695366   3.5944009  40.5048447  13.9460297   3.6220307
  45.5731850  26.4005756  25.6034985  45.2264557  25.7938080  26.2575970
  44.9357071  26.3735046  24.8899708  67.8147049  62.2508545  61.8682404
  67.2229385  61.5128632  62.0145798  67.2648697  62.9223442  61.4644966
  74.7916031  49.2786179  71.7504807  74.4915161  48.6945076  71.0540695
  74.2996826  50.0881042  71.6127014  77.1444321  56.7695923  39.2852669
  77.3234329  57.6765213  39.5336037  77.6769714  56.6259117  38.5029678
  76.0219345  70.3441620   6.8245854  76.5354004  71.1505737   6.7767315
  75.9361115  70.0605011   5.9144201  48.9283371  60.2635956  41.9553642
  49.6075668  59.7413521  42.3821373  49.2269630  61.1681099  42.0497475
  34.8506966  52.5419426  21.2550678  34.6757889  52.4243774  22.1887817
  34.3156509  51.8746758  20.8252888  68.7926636  23.7124653   9.6771822
  69.4089050  23.5522461  10.3918905  67.9310303  23.6851730  10.0932112
  82.9818573  58.4692535  16.3216648  83.6492462  57.9796791  15.8408957
  83.4045792  59.2999992  16.5393753  41.0562592   3.0303307  57.3736916
  40.1230965   3.1235855  57.1819954  41.0965424   2.9300771  58.3247757
   1.5874964  26.8288994  17.7481823   0.7755638  26.6848698  18.2342415
   1.3607118  26.6319733  16.8393250  75.9350815  30.4692192   6.5761766
  76.0529938  30.2593575   7.5026150  74.9859695  30.4843445   6.4529314
  42.6649628  23.2495823  33.6352463  43.0403595  23.1955528  34.5141029
  43.3444862  22.8943386  33.0622902   3.5994878  65.7879410  68.9114685
   3.5032127  64.8548355  68.7210083   4.5194283  65.8888168  69.1559372
  83.2181931  22.2835121  69.6512833  82.2754517  22.2006588  69.7948532
  83.4117050  23.1988964  69.8534088  55.6098747  50.4147339  13.1923532
  54.9734802  50.0751495  13.8215733  55.0858536  50.6574593  12.4289951
  81.7374649  30.8683891  57.3270035  81.5024338  31.7885742  57.4463844
  80.8979263  30.4133797  57.2609291  24.7631607  58.3057480  81.8592758
  24.1216507  58.9522934  82.1536865  24.8635826  57.7119942  82.6033249
  59.3218231  42.9704170  60.0861664  58.9787331  42.0960464  60.2705421
  60.2696991  42.8490639  60.0310707  37.2903099  21.6822910  87.8947754
  36.6006012  21.9147243  87.2730789  36.8598137  21.7044373  88.7494202
  64.7720032  12.9393492  52.7548943  65.0566559  13.2763329  51.9053993
  65.5854340  12.7366228  53.2169228  40.7454262  24.2026367  46.5485878
  40.5476723  23.2788105  46.7024422  41.3070869  24.2014866  45.7734947
  25.4887276  -0.2291592  68.6553040  25.3116150   0.2637334  67.8541031
  25.6232529   0.4418686  69.3245239  28.7215958  49.9479256   5.0639267
  28.5166073  49.0234222   5.2035909  29.6770649  49.9765053   5.0139732
  62.0792847  46.0748825  41.7958755  62.1399269  46.5847321  40.9880333
  62.7562332  46.4437180  42.3632660   9.1440220   5.9976964  57.9839706
   8.3698606   5.5233850  57.6807632   8.8442106   6.4763865  58.7567596
  35.6236229  44.2660599  10.6503277  35.8155174  45.0918617  11.0946922
  36.0211296  44.3617859   9.7848463  49.4243431  67.1697235  24.9591770
  50.0262794  66.4445953  25.1268005  49.6536446  67.8279037  25.6152649
  48.8415337  57.7265587  67.8618469  49.3713837  57.8308029  68.6521835
  48.7669945  58.6116219  67.5049973  66.6563721  14.9155912  22.8100529
  65.8343353  14.9068890  23.3003769  66.7065659  14.0468912  22.4112148
  16.3517361  24.6119232  27.1946335  16.6959419  24.0487518  26.5013847
  15.4027090  24.5903091  27.0716915  71.8883362  42.6456680  13.3754892
  71.5382767  41.8834419  13.8366890  71.3647537  42.7033157  12.5762587
  48.0926895  44.6685448  80.8104782  48.9770355  44.9927368  80.6400146
  47.9734612  43.9562645  80.1822510  67.5665054   6.0662580  53.6182632
  67.9818039   5.2222118  53.4412308  68.2952194   6.6556373  53.8127747
  65.8168335  37.5603561  59.9185028  65.0380402  38.1083984  60.0152817
  66.0267944  37.6051254  58.9856911  71.4079666  27.4677658  39.5129814
  71.2881470  27.7935333  38.6209335  70.9653091  26.6190948  39.5195160
  21.7797050  67.0173721  58.7061653  22.0036545  66.0949860  58.8297539
  22.4113274  67.4917145  59.2467995  66.3524628  59.8004684  46.7494392
  66.3978195  59.9621124  45.8070793  67.2667465  59.7408104  47.0264969
  79.5529327  20.1066513  80.9437485  79.6023254  20.5455799  80.0945511
  80.0318298  20.6828957  81.5394211  67.7881241  70.8846817  75.0263062
  67.7336960  71.8315582  74.8971329  67.0213089  70.5364151  74.5713882
  44.9567108  59.5039558   3.2834690  44.2137527  59.5384560   2.6809289
  44.8216553  60.2458992   3.8729708   2.4521139  39.2401161  79.9585419
   2.4857554  40.0684509  79.4800491   3.2015774  39.2762260  80.5528793
  10.5280533  61.7329788  40.9375038   9.8587732  61.0700226  41.1071701
  11.1653280  61.2917099  40.3759003   3.0684552  34.7252159  75.5562363
   3.6263485  35.3348541  75.0731964   3.6459618  33.9937973  75.7747421
  10.7904959  42.1153564  30.7153206  10.2175951  42.3915215  31.4306850
  11.6580973  42.0509758  31.1145134  18.1101627  53.5668945  30.9802189
  18.9543285  53.1341629  31.1081142  17.7061691  53.5650635  31.8479843
  59.1522751  41.4733391  41.0377312  58.7381630  41.4173241  40.1765633
  59.6522484  42.2891273  41.0104675  48.3619080  56.8657341  80.3729782
  47.5672112  57.3832932  80.5026703  48.9653816  57.1807671  81.0458908
  52.0161667  56.6252403  15.0066128  51.2798958  56.0137825  15.0225496
  52.4954033  56.4023209  14.2085724  51.8783379  17.6239662   9.2295074
  51.9269638  18.4139118   8.6911278  51.1614304  17.7942677   9.8404665
  40.0406914   7.5054593  88.2223969  39.3153687   8.1292877  88.1911621
  39.8538780   6.9589639  88.9857254   4.7288756  12.5650339  36.1327095
   5.3672962  13.1601381  36.5257759   3.8973236  13.0359936  36.1870232
  76.5758362  69.1325989  42.0073700  75.6520996  69.2642593  41.7937813
  76.6426697  68.2011566  42.2175560   2.3359485  26.0316315  71.6335678
   2.7955296  26.5138226  70.9461746   2.3219364  25.1264153  71.3227310
   3.4221616   4.2078156  85.5980988   4.3038092   3.9470947  85.8644714
   3.0788803   4.6929436  86.3484573  84.7003403  31.0691853  65.0207901
  84.3421173  31.6171799  65.7190781  85.1531296  30.3617783  65.4799042
  17.7440300  39.7714233  34.3981972  17.9343376  39.2967110  35.2073097
  17.2684040  40.5512810  34.6842651  22.8477802  10.0377598  28.2803326
  23.7321091   9.8052597  27.9972477  22.3239899   9.2585878  28.0938683
  15.4939528   4.8456073   6.8930249  16.3018417   5.2146072   6.5361109
  15.0548124   4.4549885   6.1375089  76.4248886  33.2309799  76.6938553
  76.0274277  33.3996925  77.5481339  75.6825485  33.1645279  76.0932312
  24.5577793  64.0569916  12.2445564  23.9614601  63.9298325  12.9824362
  24.1856861  63.5246658  11.5414133   9.1873369  70.0858078  61.3595276
   8.9410324  69.4379501  60.6993408   9.9989948  70.4694595  61.0274887
  77.7005844   6.7328997  26.0188408  78.5781479   6.6882758  26.3984680
  77.5621109   5.8677711  25.6333427  12.8098717   6.5129476  81.7075043
  12.1929855   5.9316511  82.1522293  12.7830343   7.3240900  82.2150116
  26.1270237  55.7024307  61.7565346  25.2361908  55.7574501  62.1023979
  26.1203480  56.2704468  60.9861183  35.8896255  70.8391876  43.0822601
  35.7507629  70.4651794  43.9523544  35.5868378  71.7439499  43.1593513
  49.8004990  12.0414906  87.2393112  50.7219849  12.2299786  87.4169998
  49.7788353  11.1018324  87.0581970  15.8164339  47.5108795  13.6198416
  15.8808937  46.5841446  13.3891096  14.8976927  47.6350670  13.8580103
  37.2032623  62.6699486  48.3184395  37.5792389  62.8818665  49.1728210
  36.2569199  62.7028160  48.4583969   3.2151098  36.6265297  58.4329453
   3.9395068  36.5320244  57.8144379   2.4849803  36.9418602  57.9002991
  67.9553909  19.8873386  83.5152817  67.9243469  20.7373047  83.9543991
  67.5054855  20.0312881  82.6827545   7.4568052  27.3306408  42.9491348
   7.0635924  26.5497150  43.3387108   6.9704194  28.0604324  43.3326263
   1.6771470  29.7683067  19.1922474   0.7846872  29.8863831  19.5175247
   2.2203984  30.2788715  19.7926083  33.6768837   3.6607757  34.7224464
  34.6065865   3.8684592  34.6288872  33.4518509   3.9609506  35.6030617
   6.4088054  39.1423264  13.6127815   6.4681063  39.8207970  12.9401808
   7.3123951  38.8546143  13.7430811  68.2679977   2.0629818   5.0337276
  67.3725281   2.1625113   4.7105398  68.4174423   2.8423026   5.5690393
  69.8727112  57.4110985  73.6582336  68.9810333  57.6355095  73.9242935
  69.8741302  57.5223122  72.7075195  32.9775505  59.7892990  38.5491486
  32.8699265  60.0844879  37.6449852  33.9235649  59.8025818  38.6944427
  73.1516418  13.5497036   3.6461749  72.3380356  14.0393343   3.7667661
  73.7925034  14.0136833   4.1849232  54.4191895  52.8397713  35.8302422
  53.5443001  52.5730820  35.5479774  54.5434608  52.4010086  36.6718330
  50.9071693  56.8508492  62.1957130  51.0605164  57.7752647  62.0003242
  50.2216034  56.5868683  61.5820808  86.1411057  31.9950237  67.7598343
  87.0720520  31.9609013  67.9798355  85.9029846  31.0847111  67.5841599
  31.8726845   5.4188671  64.7970734  32.0636024   4.4981742  64.6178894
  31.8526306   5.8317409  63.9337311  32.6322174  21.1223354  10.9064827
  33.0132294  20.4083729  11.4176769  31.8583241  20.7365532  10.4960060
  18.3820133  25.6166763  83.4685364  18.1588840  25.7299080  82.5446243
  18.9354687  24.8359299  83.4873352  77.7622452  15.6908846  21.1167030
  78.2783585  15.8175449  20.3205795  78.3697739  15.8874311  21.8297997
  36.2451515  59.1714363  72.3962402  35.6449471  58.4589157  72.1764603
  35.7229805  59.7674217  72.9332352  47.4692612  63.6825867   9.5860586
  46.7136192  64.0405655   9.1201258  47.4169159  62.7384224   9.4375973
   4.6562848  46.8235435   2.8803058   5.2935262  47.0125160   2.1915066
   5.1795979  46.7569427   3.6790171  49.6250954   9.7222853  12.4428329
  48.9126549  10.0751858  12.9758663  49.9682236  10.4802332  11.9695358
  10.2571812  22.5738029  35.4214592   9.6693525  22.4982033  34.6698112
  11.0287819  22.0641193  35.1743011  54.2274055  15.6398954  87.3765488
  55.1632881  15.8341036  87.4279327  54.1863823  14.6935568  87.2387390
  48.9190750  60.4722290   8.5639877  48.3156776  59.8209190   8.2062998
  48.7303429  60.4837570   9.5023260  25.3967457  28.9912701  10.7003174
  25.0085220  29.2069912  11.5482445  26.1104221  28.3888187  10.9099655
  11.9888687  56.3143997  83.4315796  12.9030123  56.1559639  83.1960602
  12.0136938  57.1063843  83.9685898  55.8664322  70.4523697  56.0614281
  56.6743546  70.7147980  55.6202583  56.1558113  69.8735275  56.7667122
   0.5229536  19.4615822  32.8969154   0.8550830  19.7671700  33.7410316
   0.9477946  18.6140347  32.7649879  64.3478851  58.6756096  59.4570808
  64.1578369  58.0992508  58.7168617  64.4432831  58.0836563  60.2032204
  37.7932892   3.1537657  43.1276779  38.3006210   3.9540000  42.9917755
  38.1413002   2.7844760  43.9393082  82.9545212   3.3279078  31.6433907
  83.3163528   2.5745099  31.1768093  83.7163162   3.7563832  32.0336609
   1.0856217  46.0350647  79.0840225   0.9144562  46.2983208  79.9882507
   0.6600593  45.1819649  78.9982910  85.1251526  68.2082825  69.6956940
  85.9258957  68.7299423  69.7496262  85.4014740  67.3866119  69.2898178
  78.8865967  19.9733925  48.8686295  78.1638718  19.5362587  49.3189735
  79.3835144  19.2613163  48.4658241  73.9531326  33.1786346  71.6611099
  74.8925400  32.9978523  71.6284180  73.6175842  32.8542824  70.8253860
   5.7233863  13.0412493  11.8894148   5.4732647  12.6898384  11.0349083
   4.9761891  12.8483725  12.4557419  12.7293291  15.4511547  53.1008339
  12.7094860  15.5856142  52.1533356  11.8928070  15.7991037  53.4096947
  83.8656845   3.7225115  43.5868721  82.9503860   3.5158677  43.7759819
  83.8237305   4.4021344  42.9141273  28.7315979  53.7802391  15.5804520
  28.8568211  53.7028351  14.6346397  28.9747086  54.6840515  15.7810698
  73.9898376  35.5469093  24.5248375  74.2860489  35.3775711  23.6305161
  73.6789017  34.6978645  24.8389683  58.7629509  65.7258835  26.2541370
  58.0208893  65.2389984  26.6126289  58.4684792  66.6365814  26.2419281
  11.3089333   2.9183719   7.1160994  11.9503670   3.0137320   7.8201599
  11.7146273   3.3474517   6.3627501  19.2452774  37.2080727  68.0479355
  19.9501152  37.2551804  68.6938553  18.5866795  37.8252373  68.3666611
  42.5822067  66.3455887  84.7225800  42.8644333  65.9081039  85.5258179
  43.1196365  67.1364822  84.6790924  67.0604248  26.2985096  50.2246361
  67.6689301  26.8934593  50.6627922  67.2476349  26.4082737  49.2923584
  24.8271770  65.2600098  81.4256592  25.4232178  66.0089798  81.4293518
  23.9546108  65.6479797  81.4915161  17.1354694  68.9742813  54.5744057
  17.7102261  68.2456818  54.8089905  16.3273945  68.8077393  55.0596962
  29.5831604  17.2098465  77.2219543  30.2559071  16.5560341  77.4121399
  28.9850521  17.1620178  77.9677505  28.2368698  48.7778053  62.1429634
  27.7931576  47.9349213  62.2372894  27.5955563  49.4211693  62.4446754
  58.0242805   8.6432667  32.5729637  58.3037262   9.2601118  33.2494583
  57.8327751   9.1922579  31.8125896  33.8290253  24.0377464  17.6553345
  33.8770790  24.3077793  16.7382717  33.9280624  24.8511887  18.1500416
  32.5875053  36.9548836  27.6575775  32.5318527  36.0346527  27.4000683
  33.5219231  37.1084061  27.7973042  60.5731964   4.6701078  76.8075409
  61.2721825   4.0254507  76.6976929  60.3372040   4.9219961  75.9147415
  38.4466133  49.5380898  64.2332382  38.3873711  50.0519981  63.4278717
  39.3807411  49.3537750  64.3315811  47.5772591  47.0451622  19.2384071
  47.3227234  47.1200256  18.3187122  46.7942505  46.7127991  19.6773376
   4.4039502  14.7316370  61.3927917   4.0019126  15.4614038  61.8640022
   3.7278383  14.0542154  61.3785248  77.1595764  13.7341347  40.5351944
  78.0502777  13.4190636  40.3814926  76.6371384  12.9378843  40.6314964
  77.0154266   7.1231413  78.0245132  77.7636261   7.2513719  77.4414291
  76.2734222   6.9863110  77.4355011  36.5163040  65.5228806  25.6881714
  37.1762276  65.0534058  26.1983948  36.9210777  65.6472321  24.8297272
  43.4736786   6.5100498  28.8186626  44.3178177   6.3807821  29.2510395
  42.9383965   5.7731886  29.1131763  34.2599449  21.9693623  31.5500603
  34.7243958  21.7560558  32.3593941  34.3837814  22.9126110  31.4443283
  28.3364258  37.7477036   0.4270998  28.2940636  38.0115967   1.3462286
  28.2679386  38.5682106  -0.0610672  60.4527206  69.8121719  63.7673416
  59.8155861  70.0181046  63.0833244  61.1414909  70.4678802  63.6583557
  69.9412079  65.5291138  59.7615433  70.0998230  64.9719849  58.9995193
  70.6725922  65.3433609  60.3504448   0.0652602  24.5016327  88.7966919
   0.0551289  24.2516327  89.7206116   0.7217652  25.1961994  88.7436905
  12.4036303  50.3156853  59.9248810  12.4951992  50.9553642  60.6310387
  12.9706354  49.5895081  60.1845131  63.6539803   8.9686747  20.7136021
  62.7873764   8.9720583  21.1200733  64.1637039   8.3540058  21.2414284
  32.1794243  19.9389858  85.1908264  31.9465389  19.0460358  85.4450684
  32.3911514  19.8753471  84.2595062   7.2268977  12.4553070  29.7668037
   6.4626150  11.9408512  30.0264950   7.7050862  11.8861465  29.1637917
  32.9499626  13.2952824  32.5732651  33.8748245  13.1018858  32.4200935
  32.4869881  12.5220022  32.2508965  14.0668545   9.4937849  49.1630859
  13.8439131  10.3820496  48.8846741  14.4559765   9.0901747  48.3872566
  37.7426186  50.4572754  31.0440483  37.2946892  50.2754974  31.8702126
  37.5375328  49.7043724  30.4896946  60.0565834  41.1273384  49.5327873
  60.1295319  41.4933357  48.6513367  60.0858192  40.1795959  49.4017754
  70.7520142  53.8019562  24.0575352  71.5713120  54.2327042  23.8137264
  70.6920090  53.9203949  25.0054836  53.4096489  48.8635483  43.9130173
  53.6209793  48.7442398  42.9870949  54.2595978  48.9638252  44.3416901
  79.1011124  69.8787079  41.0810051  79.7018585  69.1590271  41.2743835
  78.2673798  69.6038437  41.4625359  44.2922935  67.7819824  45.1938553
  44.8073502  67.7151794  44.3898125  43.3924255  67.6094894  44.9168816
   2.3169541  34.5872192  17.8697681   3.1544542  34.1507454  18.0257072
   1.8085505  33.9553223  17.3613739   9.7375727  25.7880745  47.2328491
  10.2528543  25.0625706  47.5854950   9.4041462  26.2431393  48.0061340
  66.5790558   8.3516502  29.1452465  67.1326294   8.7709599  29.8040085
  67.0961075   8.3866262  28.3404713  61.4395256  51.5063934  58.9095688
  61.8744469  51.5335045  58.0573120  60.6844177  50.9337349  58.7750092
  57.2284012  70.9451981  78.6068878  58.0450668  71.2679214  78.2259216
  56.5413933  71.4138641  78.1329575  33.3574753  45.0153694  29.1705437
  33.2395706  45.9054565  29.5023251  33.5250816  45.1287384  28.2349739
  13.6737280  30.3007240  46.1093636  13.0274639  29.5946255  46.1092033
  14.1643496  30.1765518  45.2968979  67.0106735  21.5195942  31.8787212
  66.3454056  21.7855911  31.2439842  67.0752029  22.2596169  32.4824028
   5.8502469   5.5100636  70.3593521   5.1332912   4.8777204  70.3108902
   6.5738688   5.0876422  69.8965759  73.8248825  57.1327934  33.1171570
  73.4319687  56.9796257  32.2578621  74.5501938  56.5098763  33.1633377
  16.2807884  57.1947823  58.8120155  17.1343937  57.5328712  59.0827332
  15.9604387  56.7142563  59.5753670  72.6656799  13.5320272  14.6738882
  73.0037994  13.7111807  15.5512772  71.7202606  13.4438915  14.7949200
  83.6511688   4.8381829  62.8726768  84.2321854   4.9381332  62.1185837
  83.3251648   5.7219591  63.0426559  46.0381966  60.0484428  78.2557678
  45.6500282  59.3720284  78.8107605  45.4322357  60.1309280  77.5193939
  68.0363464  30.3926849  12.3289804  68.2894287  30.8242855  11.5129528
  67.7291870  29.5277958  12.0572224  86.3967285  30.4072514  40.4189987
  85.9687271  29.6702518  39.9832497  85.6780777  30.9055805  40.8081589
  72.9419632  59.3394585  16.1868172  72.2524185  59.5783882  16.8062267
  73.2139435  60.1710854  15.7986765  45.9024963   3.0344453  58.2339783
  46.4851532   3.7796180  58.3804665  46.4356918   2.4054270  57.7479019
  73.6848450  69.9840622  24.7780590  74.2550278  70.7209930  24.9972687
  73.9769669  69.2761307  25.3522816  25.8523655  62.1341629  71.5559845
  25.5295105  62.7238007  70.8745651  25.4459686  62.4537697  72.3615417
   3.6098073  29.4446564  46.9524422   2.6754935  29.2717495  47.0681686
   3.9984515  28.5803413  46.8177299   8.9499340  69.0287399  29.5024529
   9.6057768  69.3617783  30.1149826   9.2546864  68.1489944  29.2801876
   4.8665905  50.1651497  47.3759270   5.4452033  50.1060410  46.6156998
   4.1988707  49.4969749  47.2212410  14.7549038  51.1889763  64.1471863
  15.0639267  50.3748283  64.5445557  13.8548679  51.2814407  64.4596252
  82.8954849   5.9592948  57.4055977  83.6449051   6.5313797  57.2402878
  82.8724823   5.3706746  56.6511230  14.5202074  34.7735291  41.9961166
  15.0513439  33.9802017  42.0650787  14.3569183  34.8716507  41.0580635
  32.3553123   9.7091751  24.8076458  33.0990410  10.1871290  24.4406796
  31.5974655  10.0370321  24.3234882   5.9598589  31.8214664  39.4161491
   5.2792883  31.9298153  38.7518349   5.4785810  31.6713924  40.2298355
   9.1744614  55.8210754  24.6115837   9.6578512  56.0078278  25.4163761
   9.2761917  54.8778191  24.4844952  67.7806625  20.2803764  89.1977234
  67.3993301  20.5163078  88.3520584  68.1955948  19.4314365  89.0448761
  58.6786575  30.8473625  32.4437180  59.2967110  31.2241020  33.0700684
  59.1255913  30.9091301  31.5995235  21.1763859  49.3890839  27.3844204
  20.4903698  49.3290100  26.7195854  20.7052517  49.3673973  28.2173634
  59.6602097  15.0763798   7.8871965  60.2441330  14.7006044   8.5460272
  60.0795517  15.8996992   7.6371431   1.7801352  65.2930527  48.3232765
   2.6897502  65.2135696  48.6105309   1.2921511  65.4860535  49.1238098
  10.2340937   5.0040469  34.1045227   9.7153025   5.1852345  33.3207741
   9.6507759   4.4921484  34.6648178  13.9237471  67.1115723  70.0292053
  13.5839062  66.3819275  70.5472488  13.4589996  67.0497437  69.1946945
  35.8176498  45.9230614  18.7648220  35.9904709  46.8286896  19.0221233
  36.5948601  45.6619339  18.2708683  61.0292664  30.8797588  33.8353157
  61.6070404  30.1408882  33.6443329  60.5553932  30.6156483  34.6239357
  74.2025223  18.5696888  25.7234726  74.7873688  18.6159897  24.9671364
  74.7897034  18.5064011  26.4767628  38.7184715   2.2332137  19.4527531
  39.1923561   1.4057151  19.3696117  37.7974243   1.9929447  19.3518848
  31.5897675   7.4344954  55.7447968  32.4806404   7.4123278  55.3953896
  31.5836525   6.7639914  56.4278908  50.2669716  58.2329788  21.2369308
  49.4488869  58.2053947  21.7331219  50.0869980  57.7192154  20.4496021
  32.3808517  62.0309181  81.4262619  31.6093063  62.0342140  80.8597488
  33.0693626  62.4316292  80.8955917  56.9626007  25.7112007  28.5098648
  57.7736397  25.5672321  28.9974327  56.7597580  24.8584538  28.1252747
  76.3275452  66.8524246  43.6532745  76.0079422  66.9084930  44.5537949
  76.2141724  65.9321213  43.4157448  70.8519669  14.4157734  77.9420853
  71.5250702  14.8185635  78.4906540  70.4681091  15.1470432  77.4582214
  54.4710808   1.3672370  43.5888062  55.2788429   0.8582290  43.5205498
  53.8746643   0.8048940  44.0830612  71.3302383  12.1339788  72.8724518
  70.8336258  11.5980234  73.4907990  71.2957001  13.0173035  73.2395706
  20.4938583   8.3758440   7.9344206  20.8104553   8.0993433   8.7943888
  21.2109928   8.1657238   7.3362570  10.8272839  51.4101295  73.5985489
  11.0067577  51.0520401  72.7291870  10.4458284  52.2714577  73.4287338
  60.3227119  59.6430206   7.3689971  59.6432228  58.9691811   7.3473983
  60.6703720  59.6612549   6.4773512  30.4937401   1.9765090  41.1136665
  31.0892773   1.3749787  41.5605774  29.6489773   1.5264452  41.1206055
  86.2633667  20.5303040  20.7727814  87.0226212  20.9655590  21.1604900
  86.4980698  19.6023693  20.7635746  35.0839005  29.3831749   4.0167270
  34.3858528  28.7913494   4.2972703  35.8860054  28.9844456   4.3541784
  77.2983551  56.3363533  65.5619431  76.3960266  56.6071663  65.3925629
  77.7299271  56.3946228  64.7095413  75.9787674  29.6102314  34.9794884
  76.8217697  29.4515457  35.4042130  75.4642334  30.0794163  35.6362648
  18.5013657  34.0172081   3.8504367  18.4234867  34.9701195   3.8965554
  19.3876972  33.8649216   3.5226254  49.6428185  54.5021095  40.7766724
  50.4124031  54.2847519  41.3027191  49.7134933  55.4448929  40.6270103
   0.8252944  12.0771770  78.5606918   0.7884766  12.4644566  79.4352722
   0.0680555  11.4927273  78.5254822  82.3491821  52.8496704  14.4164906
  82.6045456  52.0291634  13.9948416  82.4039001  52.6643448  15.3539839
  13.5978537  12.4669676  51.3205490  14.0466881  13.3124132  51.3212051
  13.2079191  12.4034815  50.4486847  55.9828300  11.7781591  34.7144852
  55.4451828  10.9866123  34.6895142  55.9790154  12.0988340  33.8126068
  86.7650299  64.0109863   8.9299603  86.2326965  64.8064041   8.9171858
  86.9338837  63.8506775   9.8584108  53.8410988  47.9474106  55.2124290
  54.2320595  48.7869568  54.9704628  54.2928505  47.3059311  54.6641083
  18.7214184  22.2785568  71.8155746  19.5076313  21.9425983  71.3851852
  18.8630199  23.2237072  71.8691483  55.6466904  53.4689140  65.7189941
  55.7554016  52.6443634  65.2451477  55.5252991  54.1252365  65.0328903
   5.2711420  34.3829346   0.3791976   5.2685804  33.8410263  -0.4098258
   5.8079286  33.8946114   1.0034033  24.8587761   4.1297407  70.2102814
  24.0585213   4.3886023  70.6672440  25.4390049   4.8861699  70.2961884
  28.4943333  23.7293243  87.9887466  28.9477177  23.9440670  88.8039474
  27.7642136  24.3471584  87.9508209  33.4498520   4.5757303  78.1171112
  33.5770912   3.7483871  78.5813828  34.2747459   4.7194133  77.6532822
  59.4633064  70.5128860   1.5861093  59.9507637  69.8573151   2.0849519
  58.6243477  70.0934753   1.3951465  55.0460320   8.6761055  26.3815498
  54.5679893   9.4073524  25.9904175  54.4219360   7.9503841  26.3736897
  84.8923950  65.6227264  42.7671432  84.1987839  66.1658173  42.3927307
  84.4378815  65.0385361  43.3740845   7.6945744  49.4322624  31.2356453
   7.8338981  49.2992249  30.2980309   7.0586815  50.1460533  31.2843914
  66.6360626  36.2755127  76.1007080  67.3224335  36.6505699  76.6524811
  66.4246445  36.9696083  75.4763947  30.3058529  15.8053188  11.1092129
  29.9847469  16.6598320  10.8212385  30.2933273  15.8544445  12.0650692
  40.1929169   4.1965117  70.8207703  40.5742149   3.5345194  71.3974915
  39.7374420   3.6928005  70.1461945   2.6961868  13.8655672  58.7451286
   2.8364131  14.1516695  57.8425140   2.7432845  14.6701756  59.2614822
  45.5343971  67.9833221  62.2320824  45.0454941  67.3794479  62.7911339
  44.9293098  68.1947021  61.5211525  73.5004578  26.1336594  46.0392456
  73.2376404  25.9943905  46.9490585  72.8291168  25.6855373  45.5247345
  54.4957504  22.7825794  10.8853559  53.9929657  22.4747715  10.1312370
  54.1042519  22.3326397  11.6340342  72.5245667  56.5784073  79.4495163
  72.2685776  55.8886108  80.0617905  71.9377289  57.3073082  79.6509018
  86.1547699   0.8699422  21.4580555  85.6307526   1.6408414  21.2404575
  86.5203323   0.5846708  20.6206665  79.0360870  17.9620590  26.7387085
  78.3739319  17.3006573  26.9395218  78.6747437  18.7765846  27.0882950
  77.0364990  39.3841972  88.2141495  76.9774704  40.3371010  88.1454468
  76.8920364  39.0702972  87.3214951  71.1045914  31.9660378  48.7597084
  71.5575562  32.3581161  48.0131645  70.2113266  31.8201866  48.4482117
  12.1837091  56.4540443  35.8803864  13.1313219  56.5813866  35.8351440
  11.8796854  57.1309204  36.4850693  62.6362305  37.7669220   2.3804150
  62.7203636  38.7199516   2.4101927  61.7896309  37.6142159   1.9606789
  37.0546875  50.4434433  37.5852394  36.4840355  51.1801872  37.8038635
  37.7938957  50.8412933  37.1253281  62.6820564   7.5874872  74.0626373
  63.3707466   6.9437547  73.8966751  62.1550560   7.5858288  73.2635727
  47.4396858  47.2600021  52.1006660  47.9789658  47.9962807  52.3892899
  47.9667473  46.4855309  52.2972183  36.8317032  60.5824547  79.5897293
  37.0335159  59.9803276  80.3059311  36.6357498  60.0127678  78.8458939
  13.1039972  48.0359421  68.9251404  12.2061625  47.9214096  68.6136780
  13.1473856  48.9520149  69.1992798  84.3102188  25.0710392  64.5056458
  83.9290161  25.9062691  64.2348938  84.8350220  24.7927608  63.7550621
  22.5498657  56.6856346  74.0779190  23.3484154  56.6098175  74.6002274
  21.8570385  56.3563232  74.6504364   1.4368652  16.2004795  15.4278584
   2.3327930  16.1307240  15.7575235   0.9510151  16.6154060  16.1406116
  29.1233006  64.7377930  28.4658947  29.5725536  65.3910980  27.9296112
  29.2219868  65.0557098  29.3633480   5.6805701  12.0198288  15.8577585
   6.1695747  11.4376307  16.4392662   4.7685432  11.9202366  16.1307411
  40.4943237  55.1169701  66.7418900  40.0487938  55.9611092  66.8137283
  40.7426987  54.8999977  67.6404800  27.4902401  11.9893360  82.8087845
  26.8470783  11.3148317  83.0270004  28.0634785  11.5741491  82.1643829
  18.7749805  61.7303467  10.1121397  18.4279747  62.1091042   9.3044510
  18.3605652  62.2361107  10.8112059  68.7004242   3.8607891  10.2365227
  68.8936157   3.0201082  10.6514482  67.8128662   4.0723391  10.5258703
  85.4219818  20.1096382  50.9057617  85.2600708  19.2214260  50.5878067
  84.5503006  20.4952965  50.9933510  11.9703169  21.1910858  48.9581680
  12.8257694  20.7791271  49.0795097  11.3729134  20.6630783  49.4878349
  67.8830261  62.3116570  75.8513107  67.3624802  61.8772621  76.5270081
  68.0869827  61.6184769  75.2235107  75.9227753   2.6838624  20.3835354
  75.8054810   2.9690528  19.4773674  76.4276886   1.8734597  20.3161297
  17.9027977   9.3811417  65.7610931  17.9980564  10.1272316  66.3531342
  18.1258144   9.7301521  64.8981476  74.6569977  56.6793365  40.3300438
  75.4497833  56.3987427  39.8728905  73.9392929  56.3453217  39.7919273
  82.0254974  53.4359283  42.4442291  82.8590775  52.9703369  42.3764458
  81.7052078  53.2271385  43.3217583  79.1448059  65.7883301  10.6963358
  80.0763016  65.8890152  10.8923044  78.8411484  65.1216049  11.3123693
   7.4209943  12.6267977  44.7959862   8.0139380  13.0005360  44.1440887
   7.0564642  11.8504324  44.3710060  82.5829926  25.5948505  69.6651459
  81.6328201  25.4809361  69.6443634  82.7484818  26.0795174  70.4738159
   2.5808172   2.9958491  88.6679535   1.9147197   2.4501724  88.2498856
   2.3375938   3.8917227  88.4345322  83.7690277   0.5923291  33.6834373
  84.7099915   0.7661410  33.6588020  83.3971252   1.3505484  34.1340179
  67.6441650  49.2754135  60.2410545  68.3963776  49.4537964  60.8054924
  67.4270859  48.3592796  60.4137077  31.7698593  53.1575317  33.8274612
  31.1369991  53.4512711  34.4827728  32.3411102  52.5524483  34.3005142
  72.3862305  37.1565399   5.0804005  72.4716797  36.7982903   5.9639087
  73.1365509  37.7434006   4.9863086  77.3366241  49.9397240  57.6313324
  76.5732346  49.7644043  58.1815338  77.3003311  50.8815536  57.4643936
  50.2116432  46.2793350  36.2252846  49.2968216  46.5167084  36.3768959
  50.1690826  45.5242691  35.6385155  16.8909225  40.5268898   8.6675482
  16.6971130  41.3919678   9.0285339  16.0318642  40.1369247   8.5057545
  68.2352524   6.6693201  80.1365356  67.8320847   5.8316808  80.3646698
  69.1688538   6.5389214  80.3027267  15.1213350  47.9430389  28.4675617
  14.4164124  48.5417404  28.7142811  14.7391052  47.3912849  27.7851391
   0.8237448  61.4255486   3.4412141   1.7723455  61.4418945   3.3142447
   0.4866905  62.0619240   2.8106163  39.6401901  52.2747841   4.3689280
  39.6439552  53.1765060   4.0478158  40.5626793  52.0194588   4.3767147
  27.3625774  54.6407013  63.9225960  28.0242825  55.3286018  63.9944992
  26.7522869  54.9637604  63.2597198  14.8517790  69.0755768  19.4276657
  13.9231205  68.9027481  19.5824413  14.9522896  70.0125351  19.5957222
  50.8697929  15.9569988  80.2122879  50.7165070  16.5562706  80.9427795
  50.1069031  15.3788748  80.2126389   4.7791653  69.0380478  43.3604355
   4.6300521  69.9586639  43.1448784   4.7586970  68.5879593  42.5159035
  42.1996460  71.1876755  35.5308304  41.9479446  71.1521225  34.6080017
  42.4745789  72.0940170  35.6693535  45.4816895   0.1853263  80.9545135
  45.7451019   0.4539207  81.8346863  45.6396332   0.9573790  80.4111710
  83.8788452  53.3226280  59.8215790  83.8269577  54.2633858  59.9904556
  84.6736069  53.2166176  59.2987633  56.2756195  32.8385162  18.9443607
  55.4451981  32.3959389  18.7689724  56.0941391  33.7633438  18.7770576
  25.3943481  27.3835583  28.8607635  24.9675541  27.1092815  29.6724606
  24.8651257  26.9899597  28.1670513  39.6705666  53.7823067  11.8625593
  39.7442970  54.6690598  12.2153549  39.4245110  53.2447281  12.6153507
  76.7843857  54.3843079  52.2584419  76.1358948  54.3417740  52.9612083
  77.2745132  53.5656776  52.3349495  15.9472055  58.6599503  27.9811554
  16.8715286  58.7242355  28.2214146  15.9502678  58.6246185  27.0246124
  66.2707672  66.7364883  72.6577072  65.7038269  66.5427094  73.4041977
  67.1437683  66.4677429  72.9438400  55.0502129   1.6278228  50.7020569
  55.8253403   2.1027417  50.4022865  55.1515846   1.5796583  51.6526566
  27.5724239  52.9882164  82.5391159  26.8792439  53.6450729  82.4737778
  28.3849487  53.4908257  82.4806595  58.2630692  54.4302979  34.4397392
  58.9122200  53.9784164  33.9006271  57.7196617  54.9062576  33.8117218
  46.2597427  69.4911728  32.5017891  45.9601212  69.1694565  33.3520584
  45.7582283  70.2938995  32.3591537  42.8849335  41.6573524  17.3074741
  43.5362320  41.4400291  17.9744167  42.0453262  41.4415131  17.7133102
  43.8474007  71.1502762  52.6229286  43.7087479  70.2615051  52.2956734
  42.9655151  71.4891434  52.7768211  68.9778366  50.3311386  38.4631042
  68.6153641  51.1031914  38.0286179  69.5952377  50.6844864  39.1035652
  54.7733536  53.0675964  31.5592098  55.1137390  53.8796196  31.1837311
  54.5323067  52.5356331  30.8008289   4.0238380   6.7968402  27.0742283
   3.4083269   6.4625616  27.7266350   3.7284479   7.6909313  26.9022484
   3.0688522  58.0240669  48.3631935   2.8102689  57.2697144  48.8926430
   2.4190629  58.6958275  48.5699348  74.9996567  15.0312223  32.3412857
  74.5948486  15.8982668  32.3169899  74.9343262  14.7619724  33.2575073
   5.2109084  39.5571213  34.3571625   5.0196414  38.6639366  34.6432915
   5.4316249  40.0246048  35.1627541  35.9076195  15.3257084  36.2369728
  36.3554306  14.7604923  35.6075096  34.9854431  15.2823067  35.9841080
  83.6533432  35.3944893  58.2150726  84.4675980  34.8951645  58.1526070
  83.9131622  36.2991180  58.0407944  17.1399364  21.9336567  44.6051483
  17.7896347  22.6060333  44.4001274  16.7405491  21.7213745  43.7615509
  16.5221443  52.7718315  36.0592537  16.4213715  51.9580269  35.5654869
  15.8479071  53.3517914  35.7053032  24.8058701  38.3520393  83.0666046
  24.2400665  37.5803375  83.0427246  25.5657063  38.1083794  82.5379181
  45.8864212  53.9197617  64.6610260  46.2739105  54.6879616  64.2415543
  46.1561546  53.1846542  64.1104889  10.7111835  39.5580139  39.3333855
  11.2967710  38.8687172  39.0200310   9.8832808  39.1092720  39.5049667
  70.5422897  59.5177460  17.4441910  70.3692093  60.4461823  17.6000042
  69.7127838  59.1713753  17.1152840  19.6920071  27.5154095  75.2735596
  19.2887802  26.7193890  74.9271698  19.3426018  28.2186165  74.7261581
  12.8804226   4.2892566  18.5396824  12.1111441   4.5947042  19.0204582
  12.5518265   3.5793350  17.9880772  14.8474216  27.5026703  63.5967331
  13.9879007  27.9237385  63.5842285  14.6617613  26.5851440  63.7965012
  59.6111755  51.3537788  67.5764160  59.5664253  50.9410591  66.7139282
  58.8830795  51.9751244  67.5826797  67.0940018  38.4170761  21.5905533
  67.6694946  37.8703423  22.1254578  67.1418457  39.2830353  21.9955883
  77.3692703  51.1037102  34.1931496  77.4278793  50.3262787  34.7484818
  76.9184952  51.7515221  34.7347870  19.0082817   7.0511541  76.4327469
  18.1642342   6.9390635  76.8700714  19.4316616   6.1958461  76.5064240
  28.7098351  18.1953907  29.0420341  28.0985126  18.7951221  29.4696312
  28.3039360  18.0018368  28.1970406  61.6932297  17.5037708  79.5421906
  60.7806664  17.7589378  79.6776581  62.0558167  18.1956997  78.9890213
  17.3900089  29.1859970  22.9057388  17.4118614  28.5700855  22.1733418
  18.3091698  29.3085308  23.1431446  73.7751083  43.1872368  89.1059875
  73.6144333  43.6304703  88.2729416  74.3945923  42.4899979  88.8907318
  21.1186657  18.6828918  24.5405788  20.4197140  18.4491673  25.1513767
  21.8672295  18.8886013  25.1005497  30.1364803  30.2703514  87.6957016
  30.3536186  30.3172264  88.6267700  30.6224518  29.5108719  87.3743668
  17.5678539   4.7008605  61.1967468  17.4194126   4.7424278  60.2520409
  18.4448376   5.0648913  61.3176422  67.5200577  59.5021439  69.1927643
  66.8329468  59.1927338  69.7829971  67.9854202  58.7080841  68.9298172
  19.7762737   7.4032421  23.4642544  19.1630878   8.1382494  23.4638348
  20.0040550   7.2808285  22.5426445  51.3661995  69.9948044   3.9342320
  52.1502647  70.5059738   4.1346712  51.3981743  69.8691330   2.9858568
  70.7371597  68.8906555  50.1446152  71.0528412  68.2061005  49.5547333
  71.4631577  69.0380096  50.7507935  13.1729031   1.9103321  70.3846817
  13.8202600   2.3654218  69.8461151  12.6491327   2.6111345  70.7729797
   5.3874469  28.9218254  26.5185242   5.3553290  27.9658051  26.4835606
   4.4735184  29.1887302  26.6171589  83.6638718   7.3571024  36.1515732
  83.6656647   6.4138746  35.9886284  84.4315033   7.5062599  36.7035942
  17.8097668  20.0190201  77.1219177  18.0195808  20.7040958  77.7566452
  18.5192184  20.0611668  76.4807205  15.4343300  66.7739334  78.7815552
  15.5845661  67.3343811  79.5428467  14.5208435  66.4996872  78.8625717
  64.5856781  17.2672367  25.4483299  65.2331085  17.9293747  25.6904964
  63.8163300  17.7706413  25.1820297  28.4377251  57.4354210  44.2641029
  28.6866722  58.0598717  44.9455147  27.6550751  57.8156128  43.8651772
   6.9700441  12.6981678  52.3622627   7.2916231  12.7504148  53.2623138
   7.4889994  12.0001545  51.9626465  77.0681381  42.4033699  88.7574844
  76.8870392  41.9098549  89.5574036  77.4169159  43.2397346  89.0658417
  87.0372467  35.8918953  26.8126812  86.5989838  36.6676826  27.1624088
  86.7226181  35.8250465  25.9111423  22.9537678  48.3280182  42.0179749
  23.4596939  48.2270355  41.2117043  23.5422707  48.7919731  42.6134949
  14.4348059  13.4620609  73.7250748  14.1169405  14.1843061  74.2668839
  13.7164288  12.8294754  73.7237320  68.6109161  23.1294365  36.1125603
  68.4944077  23.9159508  35.5795898  68.0235291  23.2558708  36.8576965
  84.7813034  17.8889809  33.0637550  85.1010590  17.0307884  32.7853813
  85.5731354  18.3799534  33.2832603  77.0648499   2.2045407  16.1422501
  76.6455841   1.4766649  16.6012096  77.6437759   2.5977945  16.7952633
  57.6013680  15.0044088   0.6210269  57.9638062  15.0330734   1.5064927
  57.9852715  14.2193937   0.2303855  84.7621613  20.5608921   2.9140010
  85.5366287  20.8808651   3.3766544  84.8034821  20.9842472   2.0565073
  84.7721176  45.2682076  28.1010380  83.9946899  45.8264656  28.0876236
  84.4323807  44.3815117  27.9802990  34.9394836  48.5151062  27.3601971
  34.7453079  47.7709122  26.7903709  34.1004028  48.9644203  27.4616547
  75.7664719  21.6738415  18.0403442  74.9517899  21.8559246  18.5087147
  76.4566040  21.8865242  18.6686020  54.4174232  56.5913658  87.6271210
  54.3536644  55.6619759  87.4071198  55.2271576  56.8818550  87.2073822
  77.2858582  56.0240707  25.4354191  77.0141754  56.5654030  26.1766205
  76.9570923  56.4890213  24.6660271  85.1715851  38.0542870   0.1847218
  85.3001862  37.1358376  -0.0522278  85.6907578  38.1713409   0.9803300
  33.5145912  34.5031052  88.3453064  33.8283348  35.3585815  88.0521240
  33.1391487  34.1038513  87.5605316  23.5323009   2.9680943  62.9772530
  22.8724670   2.4741719  63.4639664  24.0265484   3.4355445  63.6506348
  77.8312988  49.8558350   7.8802724  78.0883331  49.7761421   8.7988663
  77.0584564  49.2970314   7.7984667  86.6593323  27.3419514  68.9088974
  87.2780762  26.6120148  68.8847427  85.8787079  27.0089817  68.4661865
  30.6901283  61.8343849  79.1156387  31.4950905  61.5082664  78.7132568
  30.1254234  61.0641861  79.1799316  43.4062691  34.8264542  78.7717972
  43.4586906  34.3732986  77.9302902  43.9400330  35.6122818  78.6543198
   2.4901700  50.3323288  18.9063854   1.6827422  50.8437881  18.9583492
   3.1314318  50.9347267  18.5293789  55.1605186  64.5796738  74.3037338
  54.7110977  65.2699203  73.8160782  54.5953331  63.8129234  74.2094498
  37.3947601  48.1261330   5.6817789  37.3992805  49.0817566   5.7365232
  37.6909943  47.9358177   4.7916913  65.7621765  36.0415039  84.5854187
  65.0091019  36.4898987  84.9701843  65.6256104  35.1182938  84.7981644
  79.7725601  67.6351852  60.0536156  78.9172134  67.2774124  60.2915726
  79.6421661  68.0077286  59.1815834  22.9462528  42.1882782  79.1911545
  23.1444206  41.2851982  78.9433517  23.7194595  42.4791374  79.6746674
  30.5204792  31.9221420  24.6098328  30.4246922  32.8619270  24.7642956
  31.3587093  31.8383293  24.1553268  17.5953827  13.5653410  31.0999374
  17.8642845  13.4981155  30.1837482  18.2047729  12.9968185  31.5707436
   3.9807906  58.0612946  27.3764000   3.4179101  58.5975990  26.8180351
   3.8135872  58.3812866  28.2628994   3.7299654  59.0277443  12.7785540
   4.0838199  59.5388260  12.0506716   3.5323730  58.1724434  12.3969154
  49.6542473  62.8107681  11.2407131  48.9777489  63.3123131  10.7857008
  49.1887474  62.3714790  11.9524479  22.6532383  53.7993507  70.0706253
  22.4709377  54.6506844  70.4684067  23.4271469  53.9494553  69.5277023
  71.3150406  53.6378670  45.8243217  71.1008759  53.9951134  44.9624977
  72.2170029  53.9169159  45.9818764  53.2579842  64.6227493  27.2777596
  52.8260651  63.7826424  27.4323254  53.0449905  65.1471710  28.0496750
  44.1961937  61.7141075  28.6307697  44.2015381  62.6548386  28.8074951
  43.7823524  61.6342049  27.7713623  30.5139790  69.2524338  38.7675858
  30.4030094  69.9113312  38.0821877  31.1642418  68.6457520  38.4135704
  85.0259781  68.0665436  26.7385464  84.3453522  68.7173843  26.5671024
  85.7842102  68.5804214  27.0164623  45.0039673   8.7831631   7.6735821
  45.6743698   9.0828705   8.2875586  44.1838074   8.8515196   8.1623497
  10.8156080  53.8060684  81.9513016  11.3942652  54.2809486  82.5478516
  11.3863344  53.1705742  81.5192642  19.8682289  27.3657398  36.8025627
  20.2129402  26.4935360  36.9940414  18.9861660  27.2062645  36.4667587
  59.3179932  22.5724068  35.5164986  60.2308807  22.3843136  35.7344170
  58.8519058  22.4934883  36.3488235  83.0255737  69.7213669  10.5946817
  82.2262726  69.9032898  10.1004610  83.7323761  69.8460083   9.9613352
  14.8920078   8.1823807  77.0299606  15.6736908   7.6483350  77.1713791
  14.3741465   7.6858792  76.3962860  53.7307167  18.6865902  67.7763062
  53.5480423  17.7704411  67.5676651  52.8839951  19.1249294  67.6917267
  -0.1269395   4.6969519  18.8982182   0.7569868   4.3428888  18.9959202
  -0.4350817   4.3447652  18.0632057  39.1431160   5.9212832  80.8391876
  39.5951805   5.6253662  80.0490646  39.8342934   6.2982640  81.3836136
  32.0609818  41.9115868  81.1583023  32.5834770  42.3815193  81.8082123
  31.5609932  42.5956039  80.7129135  63.8390388  59.3684578   4.1932640
  63.1525726  58.9939880   3.6412060  63.6217422  60.2990875   4.2474837
   1.5408233  71.0675049  75.3571091   0.8968436  70.6167374  74.8109131
   1.0332836  71.7254028  75.8322983  26.2133255  15.3133373  21.8062916
  26.4218616  14.4202967  21.5320244  27.0030231  15.8159084  21.6062107
  59.5373497  12.7298107  69.7514877  60.4771271  12.7502851  69.5708389
  59.4200172  11.9719629  70.3243103  69.1804581  63.8089180  15.2273874
  69.6313705  64.2080841  15.9714165  69.3555222  62.8720245  15.3157864
  35.7611198  70.7174683  29.2397900  36.3083076  69.9349747  29.3069801
  35.7872581  71.1038971  30.1151314  71.3048782  17.9331989  67.2560425
  71.1113510  18.0461464  68.1866455  71.6522293  18.7810421  66.9790192
  10.9021444  56.5739288  22.2022362  10.8343267  57.3948059  22.6898785
  10.4260530  55.9380493  22.7362995  79.0026169  52.6927414  38.5546799
  79.7301941  52.0849648  38.4225044  79.0539551  53.2931519  37.8109741
  52.6019363   4.3669271  82.0572128  53.4411964   4.2583404  82.5045242
  52.7670746   5.0416207  81.3986206  73.3924332  24.0889168  25.1595936
  73.3106689  24.3577976  26.0746059  72.7001724  23.4391041  25.0381317
  20.4366951  46.5005684   4.8042154  21.0058098  47.2437553   5.0042467
  20.1816311  46.1569519   5.6604300   7.6035399   2.5500889  67.2022171
   7.7480574   2.0173128  66.4202347   6.9158769   3.1658249  66.9487991
  66.9931412  70.0677109  25.5554371  67.1711349  70.6496124  26.2943192
  66.4929733  69.3450851  25.9347420  86.6956329  65.3815231  62.3993340
  86.8459396  65.8707733  63.2082062  86.8604889  64.4691086  62.6371460
  40.3553925  71.1461639  22.1408768  40.2911415  71.9043427  22.7216263
  40.4684753  71.5220718  21.2678719  73.6031799  16.0523243  13.7804766
  73.2919464  15.1472664  13.7959185  74.5212173  15.9944572  14.0452166
  44.6511650  21.5971966   9.8622541  44.3594780  21.8679638  10.7327919
  43.8419304  21.4740181   9.3660669  13.9955015  48.1001244  60.8981667
  13.9465179  47.6917381  61.7624893  14.3416967  47.4135170  60.3281212
  40.9134712  70.8102264  72.1589203  41.1360168  69.8925858  72.0019302
  40.2725449  71.0207977  71.4798737  68.9361725  17.6986008  26.9430828
  68.4153900  17.6768761  26.1402454  69.6419983  18.3169174  26.7540627
  32.2262573  32.1436844  19.0466022  33.1340179  31.9534473  19.2832718
  32.1681786  31.9169903  18.1184483  53.3689575  54.0115013  86.4932022
  52.7547760  54.3008728  87.1679459  53.7727242  53.2242813  86.8585587
  56.5514297  48.8639069  37.5685997  56.9980316  48.0307350  37.7189484
  56.6704903  49.3501244  38.3844719  72.4963760  60.1399956  39.6043129
  72.5819168  60.9317589  39.0732536  72.4802170  59.4252663  38.9678154
  16.4381466   3.2979157  48.7176781  15.9630976   3.7370708  48.0121994
  16.5307903   2.3937571  48.4174347   2.6726100  54.7159233  10.8821297
   3.0057869  55.4478836  10.3630352   2.6573319  55.0466080  11.7802649
  41.7355232  59.9393768  39.7311668  41.2780952  60.2352486  40.5182190
  41.9347763  60.7443352  39.2530746  77.6903992  19.1770000  82.5634003
  78.1046753  19.4565983  83.3797531  78.3365326  19.3771343  81.8861313
  22.3390503  22.5728645  35.1081467  22.0968266  22.5259285  34.1832924
  22.8235435  21.7634029  35.2702217   1.2624472  21.2806587  84.2286835
   1.7920949  21.4857769  84.9991608   1.8604445  21.3939056  83.4898987
  19.8200455  58.9812126  69.3844681  19.3414135  58.1731796  69.5694656
  19.7558842  59.4882431  70.1938095   6.4119153  58.9536095  61.9306755
   6.7790861  58.0820580  61.7829742   7.1443291  59.5509262  61.7789612
  54.8429222  35.3960266  18.6974411  54.9091530  36.3315353  18.8889294
  53.9122200  35.1962585  18.7980251  20.3030529  51.8568268  55.8533897
  21.2446003  51.7267609  55.9665527  19.9006386  51.2229309  56.4470863
   5.1336551   5.4931297  77.1297760   5.5710716   6.2307849  76.7046127
   5.2127376   4.7741151  76.5028763   4.5443115  30.7691975  67.3446045
   4.5390697  30.0220718  66.7462692   3.9895809  31.4219704  66.9175262
   3.3600926  22.3798981  31.6616421   2.4445276  22.1055489  31.6096268
   3.4106872  22.8939152  32.4675293  85.6673279  39.3575554  48.1738205
  85.8953247  39.4382324  49.0999641  85.9135208  40.2001953  47.7922707
  40.9076691  19.2370815   0.2453262  41.3933411  20.0152016   0.5189741
  40.0279007  19.3670559   0.5993679  19.2515354  43.7659454  22.4081364
  19.8170052  43.0469742  22.6901951  19.5158844  43.9381943  21.5044308
   2.7588434   6.7042842  64.6289520   3.3106675   6.3290367  65.3151779
   2.5293839   5.9600673  64.0724258  19.8215160   5.5133944  34.0969124
  20.1662045   6.3874736  33.9141350  19.5116405   5.1959395  33.2487183
  16.8844795  50.0780869  21.9194489  16.2927933  50.1666794  22.6666374
  17.7485714  50.2916183  22.2715588  72.5253983  30.0601139  27.9698105
  73.3945923  30.4596386  28.0030918  72.3570709  29.7776031  28.8687458
  78.3537979  48.0977020   3.8316219  78.7208023  48.1406670   2.9486179
  78.5563965  48.9501801   4.2169418  22.0289478  29.1756363  85.6156006
  22.8666077  28.7470741  85.7913589  21.5315495  29.0710297  86.4266968
  63.6249504  32.9228058  51.1444206  63.5664597  33.0363426  52.0930634
  63.2155113  32.0735245  50.9791489  76.9176712  18.7596245   8.8414383
  76.9163513  19.4507008   8.1791363  76.0995560  18.8866959   9.3218212
  29.7694740   3.8048670  59.9168129  29.2976761   3.8352010  60.7491074
  29.4933338   4.5970693  59.4559517  35.8220749  17.2101479  88.9621277
  35.5017815  16.3695545  89.2893066  36.2861595  16.9915104  88.1540070
  28.0557690  33.5918655  86.2418823  27.6505833  32.9101448  86.7779007
  28.2577934  34.2941704  86.8600998  78.8466187  60.2026138   4.8763070
  78.4270554  60.8006134   4.2577643  78.5370941  60.4904060   5.7351437
  83.5487976  48.2281036  56.7502899  83.1761475  48.1576233  57.6291504
  84.4916840  48.1277542  56.8811722  76.1573105  22.4805965  13.7883759
  76.0254898  21.5732956  13.5133142  75.7921677  23.0028629  13.0741377
   4.4373674   4.9521885   6.3051147   5.1461501   4.4217153   6.6690612
   3.7774529   4.3150301   6.0316668  37.4095879   4.8675013   1.4349478
  37.8548470   4.1891398   1.9426911  37.7951889   4.8045125   0.5611187
   4.4602518  51.6193123  62.4300041   3.7362242  51.7441216  61.8164597
   4.0434432  51.5992813  63.2914581   4.9014854  33.3244286  18.2297421
   5.2863846  32.4989510  18.5241394   5.6475158  33.8419037  17.9266109
   3.0841079  22.6666126   7.2302170   4.0321469  22.7781258   7.1593738
   2.9225516  22.5810966   8.1698008  38.1613922  57.8786926  62.3349190
  38.7583618  58.0672989  63.0589943  38.4241676  57.0110703  62.0276451
  82.6765442  28.6011047  27.2648411  82.9115372  29.3074436  27.8665810
  82.8511276  27.7990112  27.7571812  24.2862167  15.0640345   6.1719518
  25.1318169  15.5104399   6.1281838  23.7155991  15.6768265   6.6357536
  40.1644325  49.7915497  12.0338793  41.1087761  49.8802071  11.9050817
  40.0506897  49.7978706  12.9842758   3.7404015  26.6648769  74.0537643
   3.1362944  27.3719997  74.2801819   3.8187931  26.7127113  73.1009750
  71.8706207  40.1793289  73.4551544  72.6971817  40.6362457  73.2994232
  71.8748245  39.4562149  72.8280029  83.6742096  32.3475113  31.7118301
  84.5754547  32.3951073  31.3928833  83.1368484  32.5088043  30.9362926
  66.6367188  47.9971085  10.3115435  67.2769241  48.0426331   9.6014071
  65.7977219  48.1829643   9.8899164  65.4476395  58.5521545  23.8531322
  65.9486465  59.3155937  23.5661144  65.9071503  57.8057137  23.4685459
   2.6884909  19.7031136  56.8690796   3.0466352  19.8143349  57.7497597
   1.8539085  19.2544708  57.0048141  65.9998703  29.9548416  38.4378357
  66.0926285  29.1596069  37.9132118  65.2247086  29.7971573  38.9768066
  10.3420897   9.8346519  49.0238991  10.3398867  10.2445583  49.8888893
   9.4752741   9.4362736  48.9454346  24.5325108  68.6667404  26.6524963
  24.2074394  68.4418182  25.7807350  24.6251507  67.8247147  27.0981922
  16.6666775  35.3298492  31.1129971  17.5168934  35.4775162  30.6987991
  16.0737667  35.1467857  30.3841782  64.6744385  58.4612122  42.5919876
  64.1129990  58.8530731  43.2609177  64.1541138  58.5005341  41.7895203
  28.2991409  12.7284040  19.5940704  27.9978294  12.8917789  20.4877987
  29.2269440  12.9634247  19.6073856   5.8526111  40.6590996  77.5391769
   5.4806161  39.7932892  77.7071686   5.7730079  40.7743721  76.5922852
  76.2627106   8.8413181  20.5472031  77.0535736   8.6267166  21.0418797
  75.8991699   7.9920616  20.2965298  16.6166515  47.9852257  48.0995216
  17.5716724  48.0345955  48.1411095  16.4398861  47.2107887  47.5654449
  58.5888748  65.2623901  19.3507404  59.5239220  65.2835312  19.1470985
  58.1688690  65.6630478  18.5896225  27.3785324  20.2883358  83.5258102
  26.5458927  19.9642773  83.1823959  27.2059784  21.2031269  83.7485504
  64.1790314  34.0372124  11.8802986  63.7983170  33.8537598  11.0214415
  64.7953033  34.7521744  11.7213383  66.4230881  53.7795181  49.4976273
  66.3965149  53.9215851  48.5514030  65.5064468  53.6652184  49.7485008
  49.6148567   3.1396911  37.8000298  48.9815178   2.4381263  37.6486244
  49.1496735   3.7669663  38.3535309  83.7257919  63.4442482  52.4743004
  84.3047791  62.6820221  52.4782028  82.8446808  63.0754204  52.4122963
  69.0138779  64.6906815  43.3202324  69.3950958  63.8495216  43.0685158
  68.2278595  64.4589767  43.8149223  12.0463228  10.3484173  23.6789722
  12.0406923  11.1689167  23.1860428  12.8984261  10.3367271  24.1148796
  82.8732071  36.7400589  26.8305893  83.6967163  36.4592667  27.2296009
  83.1391907  37.2976189  26.0994186  24.7880726  60.2167625  70.1517105
  25.2927952  60.7837143  70.7348557  25.0599251  60.4759483  69.2712860
  81.1131439  19.1984806   2.8854482  81.6381149  18.4372444   2.6381488
  80.7274551  18.9598312   3.7283728  12.3217688  52.5564194  38.6918602
  12.2934504  53.2475471  38.0302124  12.0359087  51.7692337  38.2283363
  18.1027107  19.7303486  32.2820854  18.9303265  19.2530327  32.2232971
  17.4341202  19.0465050  32.3217735   0.8680351   9.7681084  13.7714853
   0.6785245  10.5874882  14.2285805   0.0615144   9.2584715  13.8491096
  72.7429581  48.3760185   2.5816844  72.8779373  49.2388344   2.9735525
  73.2929382  47.7887611   3.1002264  76.0410538  39.9452477  64.7900162
  76.2380447  40.8134613  65.1416245  75.2040329  39.7091675  65.1898804
  12.4096680  20.1129074  64.2864304  11.5263510  20.3989697  64.5191345
  12.3691940  19.9535847  63.3434525  22.0330772  66.4375534   0.6410657
  21.2112694  65.9473495   0.6171829  22.0667114  66.8899155  -0.2018254
  53.0422516  11.0378246  37.7087364  53.6398888  10.3354053  37.9650002
  52.3344917  10.9966640  38.3518639  31.5695400  42.6395721  53.7660561
  31.6586533  41.9089661  53.1540909  30.6481647  42.8917999  53.7053947
  67.7307358  44.7536163  49.4838295  67.9373703  44.3991241  50.3486214
  66.9216309  45.2480392  49.6147270  60.7911339   5.9046679  49.9388084
  60.2500114   6.3951902  49.3200951  60.4159355   6.1049905  50.7963181
  35.2953873  52.8699532  84.2007980  34.9277077  52.3439369  84.9109726
  36.2138481  52.6040497  84.1565399  64.7752914  41.2273140  29.6863747
  63.9782524  40.7361946  29.8857937  65.2829895  41.1994820  30.4973621
  83.7912140  30.1238651  21.8933086  82.8654633  29.9748611  22.0857086
  84.2272873  29.3207130  22.1779404  71.9253082  65.9318390  23.5882206
  71.0615311  66.3378372  23.5155792  72.3823013  66.4569778  24.2451992
  40.0890350  67.1013031  26.6643314  40.3817825  66.6253357  27.4414997
  40.4876442  66.6317520  25.9316216  85.5723419   3.5435965   8.5373068
  85.0620575   3.5495698   7.7274895  86.4256134   3.1942732   8.2801609
  44.5235405  59.0971756  17.2538967  44.5118523  59.9016953  16.7353935
  43.8844681  58.5272369  16.8261299  83.4916153  64.0315018  15.8828745
  84.0149841  63.9721947  16.6821232  82.6372528  63.6770592  16.1291885
  76.3357315  65.2058105  18.9238777  75.8067398  65.8883896  18.5109768
  75.6981659  64.6363220  19.3544922  30.8904686  26.9183426   8.6955624
  30.5853462  27.8206501   8.7902813  30.1439495  26.3834820   8.9655018
  48.6932373  39.4235077  73.0353622  49.2356529  40.2119255  73.0149155
  49.2969055  38.7118835  72.8222656  11.8470335  47.2433586  28.7994328
  11.9447527  46.5888405  29.4910164  11.2574921  46.8354454  28.1651802
  70.9409103   6.8198895  80.0633698  71.3583679   6.0626960  80.4739990
  71.6086960   7.1715612  79.4746246  43.4699440  63.1028900  43.8211708
  42.8190308  63.7736511  44.0276413  43.6266441  63.2022133  42.8821259
  57.3875885   7.6745267   1.5306139  56.7909431   7.2861242   2.1704504
  57.4320183   8.5989637   1.7748975   7.0723066   1.4278963  63.8618660
   7.8903184   1.4146531  64.3587646   6.9876380   0.5393187  63.5161858
  73.7107849  60.8248711  53.3533211  74.0427246  61.6105194  53.7878342
  73.4630280  60.2411728  54.0703583  10.8205070  32.7744331  27.5377178
  11.6929512  32.5312729  27.2279663  10.5026779  31.9954300  27.9941959
   3.5567837  63.0067596  68.6730118   3.7508442  62.0869141  68.8531799
   2.6077251  63.0760498  68.7765427  66.7058792  20.2326393  80.1957855
  66.0636520  20.8950214  80.4507904  66.2820435  19.3982372  80.3967056
  64.2196960  62.4661293  83.8148727  64.6682129  61.9487457  83.1460114
  64.5588913  63.3536301  83.6985779  17.5309391  67.3823013  88.5904465
  18.3268623  67.9086227  88.6661148  17.0110054  67.6227341  89.3573227
  63.0359917  20.6452808  57.3798485  63.7364464  21.1228352  56.9353981
  62.5624199  20.2037163  56.6748772  84.7387619  10.4128819  35.8923340
  84.5700302  10.8250494  36.7396126  84.4759674   9.5004444  36.0132790
  67.8739548  12.5722933  43.3213425  68.5194626  13.2742853  43.4035721
  67.4468079  12.5382214  44.1772728  14.9202318  53.3535957  25.6583042
  15.6267929  53.0081215  25.1127300  14.7583876  54.2315407  25.3129807
  80.6215057  47.7766418  26.5192451  81.2395782  48.2382507  25.9525642
  79.8380508  47.6673470  25.9802742  67.3026657  55.9702530  53.7411385
  66.3793793  55.7318459  53.8243713  67.6685028  55.3097229  53.1528397
  64.3409042   6.4934011   1.7160220  65.2458115   6.1816049   1.7288188
  64.4065781   7.4080215   1.4414524  31.3691578  51.3614311  31.8302402
  31.5970039  51.9597816  32.5417824  30.4184132  51.4369850  31.7489471
  36.9930153   1.3401359  34.1296082  36.5584908   1.6679642  34.9169769
  36.7747841   1.9797096  33.4517059  11.3763866  46.7636032   7.9887071
  12.1267166  46.1733475   7.9191647  11.7557554  47.6407127   7.9339919
  46.4223976  54.0593071  30.0614872  45.7114601  53.6956406  30.5892601
  46.3040466  55.0073013  30.1208916  43.8292847  64.5472336   5.1379743
  43.4347534  65.3316116   5.5191846  43.1130676  63.9133644   5.0995793
  75.8826141  64.2052307  64.6669540  76.3884125  64.2590866  65.4778137
  75.0244827  63.8815956  64.9410019  81.2482300  37.1473618  83.7941666
  81.0285797  36.2203484  83.7012787  81.2053223  37.3104286  84.7363968
  57.7165146   7.8105235  44.1043434  57.8514633   8.7004700  44.4299431
  56.8144760   7.8068533  43.7841187  49.5882339  47.0228653  25.0381660
  49.5995064  47.1239128  25.9899502  50.3876991  47.4577942  24.7416458
  21.1205807  14.9945679   4.0669456  21.8787880  14.4508734   3.8530495
  20.4374084  14.3688211   4.3076687  80.4740601  24.2995510  26.2839451
  80.9293823  24.7774582  26.9771366  80.1781998  24.9795628  25.6787300
  13.0243483  60.1528130  66.9825592  13.1172037  59.6655807  67.8012238
  12.9716482  61.0692329  67.2539062  29.8638458  62.7871170  31.5912991
  29.0503712  63.2814369  31.4906158  29.5839596  61.9259148  31.9015007
  85.7469406   4.6604557  12.4719191  85.9039459   3.7203288  12.5599117
  86.0018921   5.0261755  13.3189621  49.0071716  51.1057968  36.5852242
  49.0957794  51.4909744  37.4570122  49.6728554  50.4185066  36.5582466
   9.9454937  67.7368622  14.2035561   9.4266262  66.9705048  14.4479074
  10.8343439  67.3991241  14.0935020  53.7442284  68.7727585  84.1502075
  53.2313194  68.2287598  84.7478867  54.5274582  68.2540283  83.9666290
  71.5386810  65.1337280  35.0599251  72.0445938  65.1823959  34.2488060
  71.1014023  65.9830322  35.1207848  25.8079720  62.6682320  57.2662926
  26.7531433  62.7543564  57.3906517  25.6470032  63.0307007  56.3951225
  60.2685738  62.4640617   2.8395877  60.6352921  63.3401527   2.7203753
  60.3014908  62.0699844   1.9678931  82.9570236   2.5063045  13.1281691
  82.1241684   2.3403203  12.6865368  83.5721741   2.6899543  12.4181767
  74.6186905  44.7297478  59.3005028  75.5233765  44.4268494  59.3781624
  74.6452789  45.3880196  58.6060944  85.9316025  62.6735992  82.5393372
  86.4479446  61.9983597  82.9794159  86.1037292  62.5375214  81.6076202
  19.8434277   5.4567356  27.7938633  19.2345066   5.2759099  27.0777988
  19.2843094   5.7352271  28.5191631  69.3962555   8.2311897   1.2143886
  70.0587463   8.7155237   0.7216882  69.2420120   7.4414496   0.6959760
  26.5878811  63.1991463  22.0011539  26.1458569  63.2398376  22.8492050
  26.5718002  62.2711754  21.7669601  11.8940563  59.3649979  52.2563400
  11.5588856  60.2331352  52.4804535  12.6424046  59.2392235  52.8397636
   6.6972260  50.9503441  28.2496738   5.7858086  51.2427216  28.2576828
   6.6420970  49.9951210  28.2224121  78.7918625  30.0865707  70.3006821
  79.5525436  29.7990551  69.7957687  79.0221329  30.9657879  70.6009903
  49.2345428  24.7533226   9.7141199  49.9771805  24.5480690  10.2820902
  48.9677238  23.9076519   9.3537321  14.0199938  23.5379238  86.0545425
  14.9717436  23.6325779  86.0925674  13.7648487  24.0016994  85.2570190
   1.6783705  29.3058529  68.1443405   1.0798336  28.5595608  68.1122055
   1.8913147  29.4817333  67.2278519  56.9292374  39.1804428  61.3555794
  56.0070114  39.3552322  61.1680031  57.0435753  38.2524033  61.1508904
  84.4586716  13.9179373  76.9749985  84.8937607  13.0771084  77.1162033
  83.8235626  13.7452450  76.2799911  68.0458908   3.7982442  68.4177933
  68.7265320   4.2377524  68.9274902  67.2270813   4.0479689  68.8460770
  75.9633255  56.6566353  54.5563927  75.3309784  56.0260735  54.2117767
  76.0408707  56.4352684  55.4844131  71.8026962   0.9870526  33.9890404
  71.6074677   0.0500433  33.9775124  72.6009521   1.0589726  34.5123444
  12.1756287  59.8054657  25.9737759  11.6455946  60.4768867  26.4033012
  12.8755283  60.2938194  25.5403194  84.9537888  41.8535233  41.7985840
  85.1735916  42.7028275  42.1814728  84.8197784  41.2785835  42.5520554
   7.1715398  14.1623764  71.2278671   7.4645963  13.6273308  71.9654846
   6.6149826  13.5773668  70.7138290  25.9482708  33.1287689   2.0854518
  26.6338291  32.6347771   1.6357707  26.2506981  33.1876030   2.9917126
  70.0846710  32.2139511  16.3598385  70.1057205  31.3590126  15.9298744
  69.9120026  32.0150490  17.2800865  27.4593849  35.0637321  32.6498947
  26.7659874  35.6479645  32.9566574  28.0068035  34.9160843  33.4211044
  84.5818710  40.3289261  44.3732262  83.6877747  40.1414528  44.6590157
  85.0155106  40.6736984  45.1538200  79.4562225  30.9710674  74.0120010
  79.4129028  31.3337383  74.8967743  78.7482529  31.4083805  73.5389633
  33.7550316  21.4810734   3.7793944  32.9468231  21.0060406   3.9727116
  34.4053535  20.7953682   3.6273277  39.3577766  11.7452555  19.9392052
  39.1597862  12.6384497  20.2206917  39.5295143  11.8224134  19.0007038
  84.5716934  12.9047623  60.8175659  84.2073441  13.1652422  59.9716148
  84.1975861  12.0394125  60.9832458  45.3591728   9.0694847  76.7436218
  45.4373436  10.0051174  76.5573120  45.3304710   9.0170832  77.6989594
  23.8286972  60.8238220  36.1078835  23.0151176  60.3219986  36.0579491
  23.6059208  61.5891151  36.6379128  24.7458534  67.0023117  28.9695301
  25.2892284  67.5707016  29.5153427  24.8350830  66.1347885  29.3640766
   4.6427894  69.1236267  19.6278896   4.9640651  69.1938705  18.7289581
   3.8929393  69.7176285  19.6613483  48.9064636  21.0405140  80.1118927
  48.5934029  21.7306099  80.6966934  49.6834450  21.4135914  79.6955490
  10.4843702   3.2283828  13.3060694   9.5568647   3.2245255  13.5426073
  10.9231939   3.6149697  14.0638399  63.0139465  42.7483444  80.9852142
  62.7053413  43.5357552  81.4335251  63.5134430  43.0782166  80.2382736
  62.9577789  37.4786720  83.4719467  62.9639244  38.3591766  83.0965729
  62.6014595  37.5961952  84.3525467  29.7080250  12.1284399  31.1280899
  30.6616116  12.0453825  31.1301098  29.5340900  12.9047022  31.6604385
  82.1337280  43.0113792  46.5194664  81.2953415  42.8420029  46.0897522
  82.0783997  42.5358620  47.3483543  83.9202271  26.5595951  71.8281860
  83.8843079  25.8115864  72.4243622  84.8453979  26.6355839  71.5947113
  63.9204292  54.1322823  75.9240341  63.4394302  53.6788292  75.2317581
  63.9753761  53.4939194  76.6351624   1.1132212  29.4466972  79.5270233
   0.8872125  29.2851238  78.6110306   0.4595224  28.9560070  80.0251541
   0.3888816  51.6836548  33.4994736   1.3019793  51.8372459  33.7421570
  -0.1129492  52.2535172  34.0822716  60.3229294  34.9235497  81.7376328
  61.2127457  35.1457443  82.0116577  60.1951599  35.4087448  80.9224701
  49.6623573  67.1180725  12.2579670  49.9190674  67.7510834  11.5874262
  48.8387566  66.7503967  11.9374609  27.4728832  26.7188835  83.5822983
  27.4933262  25.9142532  84.1003571  26.9947147  27.3430977  84.1281433
  19.7249413  22.0718365  22.8157978  20.5503311  22.3194561  23.2325096
  19.9872036  21.5647373  22.0474892  46.4689636  68.6945114  39.0218468
  46.0628128  69.3629990  38.4701233  45.8858910  67.9387207  38.9508705
  47.9017220  51.1707573  13.1271420  48.0444374  51.3990707  14.0456934
  48.7328606  51.3738136  12.6979465   5.0568614  64.6453323  21.6511669
   5.3936524  64.8932266  22.5121841   5.2368488  65.4040680  21.0960484
  62.8352203  25.4207649  74.8723831  63.7720146  25.5591488  74.7327347
  62.6420174  24.6052685  74.4099274  32.0167923  61.5237465  30.3480568
  32.0935364  62.0992126  29.5870190  31.1697464  61.7479248  30.7334003
  47.1858673   9.3405190  45.7402229  46.9240799   9.8659172  44.9841461
  47.4357224   9.9835558  46.4037819  57.5309906  62.5989189  45.7570419
  56.6901207  62.9921875  45.9905090  57.9758301  63.2724953  45.2426071
  69.9001236  26.4663792   2.1172626  69.2748413  26.0435677   2.7058980
  69.9386520  27.3735256   2.4203041  22.8639927  70.7917786  39.0920486
  22.8657742  71.0317383  38.1654129  22.9624081  71.6237259  39.5550880
   3.0968587   6.5797338  19.8847485   2.7511644   7.3318262  19.4040356
   2.7502749   5.8183064  19.4196243  75.3614731  30.2893543  15.3320532
  74.7779160  30.9820538  15.6416540  76.2409286  30.6523685  15.4370070
  63.9495354  54.9415436  72.1431885  63.1967049  54.6161537  71.6496277
  64.7101974  54.6340637  71.6501541  80.6871490  65.5456009   7.8919106
  81.3458481  65.2684860   8.5287447  80.0171356  64.8629379   7.9278769
  74.7081757  71.0013275  83.9202042  75.0734253  70.8369751  84.7895813
  73.9884338  71.6131973  84.0745544  84.4256439  49.7998314   5.8975964
  83.8842087  49.0271225   5.7363558  85.2081757  49.4579735   6.3300409
  82.0701599  33.7026749  36.4801598  82.4079666  33.7131500  35.5846100
  81.8076782  34.6077995  36.6477356  47.0481453  49.8721886  69.0454254
  46.3872833  49.7581367  68.3624268  47.0387917  49.0456848  69.5281601
  18.7500801  68.5381317  33.8496628  18.3357716  69.3636856  33.5985794
  19.0016098  68.1340790  33.0191803   1.1449755  62.1419907  54.6519623
   0.7411526  62.2931900  53.7973862   1.9540268  62.6529770  54.6283340
   4.4674058  55.6665993  13.5512104   4.9142599  55.3450241  12.7681761
   5.0972362  56.2606277  13.9594669   7.7500982  28.2042198  78.1918259
   7.3412743  28.9434605  77.7416992   7.9363303  28.5326729  79.0714111
  36.4616508  54.1284065  67.7934418  35.5624275  54.4269218  67.6573715
  36.3692360  53.2479553  68.1574402  78.3703842  37.7127495  50.5982323
  79.2965012  37.5685577  50.7924957  78.1887360  37.1361580  49.8560867
   3.6754167  64.5880737   7.8641000   3.5951519  65.5267029   7.6944923
   3.2677877  64.4638443   8.7212095  15.0239601   8.8360453  82.9604340
  15.1810551   8.2709837  83.7169113  14.2195721   9.3076620  83.1766891
  69.7172089  20.4578152   9.6059189  69.2025299  21.1624260   9.2123880
  69.4615784  20.4609051  10.5283480  43.6038055  70.9888229  32.1187515
  44.0555153  71.7046738  32.5656815  42.6741600  71.1642380  32.2644043
  80.2475052  66.5309830  46.9151344  79.5448456  65.8946152  47.0475731
  79.8104172  67.2960434  46.5411530  34.6536026  26.2082539   4.1479025
  33.7711105  26.0455151   4.4810019  34.6436882  25.8522320   3.2594314
  55.6834679  67.2684937  50.5988350  55.7469940  67.5542526  51.5101738
  56.4607582  66.7266464  50.4629898  54.1028175  20.4520893  74.9482727
  53.7354965  20.5662231  74.0717545  53.5456161  20.9875927  75.5130692
  84.0501328  39.1460037  72.3575516  84.9635162  39.3203392  72.5846405
  84.0958557  38.4631920  71.6882858  64.7710648  26.6061840  16.6588726
  64.1609039  25.8687019  16.6517258  64.5651855  27.0795784  17.4649410
  57.4678802  63.9736290  59.6280594  58.2369919  63.5330467  59.9894218
  56.7344246  63.4041443  59.8603554  36.2891350  18.4034176  14.7923117
  36.2369576  17.8200550  14.0352144  37.2120743  18.3853245  15.0454636
  25.0709095  55.6256752   9.7119570  24.4491596  55.9641075  10.3562584
  25.9253750  55.7141762  10.1341991  67.0356216  44.2400360  35.1413498
  67.2571411  45.1704025  35.1016731  67.8650894  43.8044930  35.3376198
  20.2872105  41.6855888  48.3624992  20.5553093  41.3630257  49.2229080
  20.5330868  42.6106644  48.3662338  74.4204025  31.2756214  86.4819489
  73.7882690  30.6984158  86.9102936  73.9598160  31.6042919  85.7098999
  84.0803680   8.4073477  65.7122421  83.6347733   8.4234657  64.8652344
  84.7721100   7.7542291  65.6065674  83.5882263  62.2289772  88.4961166
  82.8932419  61.9891891  87.8831482  83.5078735  61.5953903  89.2090988
   6.9816804  67.4934998  73.5948334   6.6330118  68.3789597  73.4917297
   7.8676887  67.5416641  73.2358017  67.6956940  19.3474960  16.2181606
  66.8872757  18.8419151  16.1339931  68.3259659  18.8851242  15.6657133
  81.4887161  46.3885880  51.7993622  80.7119980  46.0661354  51.3422318
  81.3340530  46.1694794  52.7182236  25.8965969  60.9157333  83.8960114
  25.4797935  61.3184319  83.1342087  26.7899857  60.7273788  83.6085968
  41.2734528  20.5307903  18.5241833  41.6090965  20.6075897  19.4173126
  42.0190468  20.2135963  18.0145664  10.9511900  23.1731167  47.3651237
  11.4792700  22.6241646  47.9447937  11.4416990  23.1949539  46.5434456
  33.9014015  39.2460709  88.2299347  33.8688698  38.3106728  88.0294266
  33.0815010  39.5946922  87.8799973  56.3484268  30.8796501   2.8339458
  56.4753036  30.8887959   3.7826557  56.3681602  29.9520454   2.5985947
  29.7309170   1.6914996   5.4685273  30.2736835   0.9333181   5.2522020
  29.7100868   2.2087023   4.6633568  51.4094048  59.3516998   4.4188094
  51.9390488  59.5878563   3.6572688  52.0035133  59.4484673   5.1630578
  70.8119354  26.6672268  68.6752243  70.3571091  27.3962555  68.2534637
  70.3040314  25.8938999  68.4298096   9.6824837  45.9734192  76.1009445
  10.1979551  46.5167160  76.6970596  10.1634731  45.1472054  76.0534439
  77.3526917  32.7103996  24.4361706  77.1819763  33.5033417  24.9444313
  78.3023148  32.5981445  24.4792061  47.9681320  47.4590454  70.2255936
  48.4688606  46.7626076  69.8007584  48.6308784  48.0136986  70.6371307
  65.9823532  60.9630127  65.1515961  66.7045364  61.0823174  65.7684097
  65.4742050  60.2378502  65.5151291  75.2661819  27.4567966  72.0786285
  74.3772125  27.1348019  71.9293671  75.5295029  27.8314552  71.2380753
  17.1520672  11.1594000   9.4595966  17.6301346  11.6417208  10.1341715
  16.9230213  10.3285646   9.8761091   7.4039783  49.9385414  46.3799019
   7.8308601  49.1781807  45.9851151   8.0644722  50.3058891  46.9672966
  46.9183121  10.9879417  21.9042377  47.0606995  10.0495358  22.0281448
  47.3664398  11.3979311  22.6440506   9.2142487  30.8075390   3.4459581
   9.6821175  31.6338501   3.5665455   8.9759302  30.5356865   4.3322601
  74.8053589  39.0195389  21.7454624  74.6202316  38.6560020  20.8795528
  75.7211914  38.7942657  21.9089966  12.5738497  33.6142120  78.0552750
  13.4088144  34.0357361  78.2587051  12.0393648  34.3119774  77.6762238
  75.6968155  35.4643669  86.0797729  75.2732468  36.2115860  85.6572952
  76.4785004  35.8331985  86.4910660   4.0932145  56.8567810   9.8413696
   3.6148891  57.5730362  10.2590017   4.8230000  57.2849998   9.3938494
  51.2160301   2.1228490  67.0073090  51.3579369   2.2958236  67.9379959
  50.2770805   2.2576184  66.8790894  66.4146194  53.3843498  19.3890057
  66.7262878  52.9766464  20.1970119  65.4610214  53.3820076  19.4719124
  49.3924026   9.7508678  36.5496254  49.4407806   9.4734144  37.4644547
  48.9249039   9.0415154  36.1086082  74.8960495  38.3453102   8.2753391
  75.4811554  39.0799637   8.4601908  74.2619247  38.3578911   8.9922504
  85.3685608  19.8520107  30.6690750  86.0947800  20.3066559  31.0958481
  85.0654602  19.2200012  31.3209381  77.7320023  31.8150368  42.9174080
  78.5744858  31.9585571  43.3485107  77.8886948  32.0471840  42.0021019
  76.3208618  56.3058395  22.7917938  75.4970093  56.7586975  22.6117458
  76.3825073  55.6395950  22.1072865  17.4868069  60.0249596  54.3532066
  17.1599998  59.5877686  55.1395187  17.5534019  59.3271828  53.7013550
  34.0059128  11.7303524  67.9908295  33.2937317  12.0601454  67.4428558
  33.5905190  11.5330172  68.8303146  35.7592239  27.3874855  26.0932293
  35.5934181  27.0960178  26.9897709  35.4907837  28.3062496  26.0865593
  65.2489777  48.8520927  19.0144196  64.4451675  48.8293533  18.4951839
  65.7349472  49.6017532  18.6708031  84.8752213  12.5066271   8.1201735
  84.3610382  12.6657658   7.3286371  84.6713715  11.6027937   8.3605146
   8.8116541  47.7146721  27.0901985   8.8385887  46.9913750  26.4638233
   9.1082897  48.4753456  26.5905895  83.8535919  49.3032799  18.7107906
  83.8864746  48.3664665  18.5170650  84.7708588  49.5615234  18.8011246
  64.9454651  33.0547447   0.1205515  65.4587479  33.8625832   0.1076657
  64.0594559  33.3375168   0.3469644  81.9667206  52.1409531  53.2836952
  82.2434998  51.7759895  52.4432030  82.4357681  51.6213379  53.9365578
   3.6765933  24.0506306  33.8328896   2.8113196  24.4569416  33.8823471
   3.9703617  24.0012569  34.7425575  60.8367386  48.0883980  52.4427910
  61.6990013  47.6746597  52.4822388  60.3810081  47.7669106  53.2207298
  39.0008774   2.6889250  68.6197891  39.3014259   1.7868916  68.5091629
  39.5585098   3.2007420  68.0338516  61.8022156  68.1622696  33.3746414
  61.7456360  68.8815689  34.0036354  62.4157829  67.5443192  33.7720184
  18.7800426  33.3216820  14.0140657  17.8624077  33.2345848  13.7560158
  19.2728481  33.1137238  13.2202606  35.7103157  62.7055588   5.1868200
  35.4804726  62.5359421   4.2732368  34.9882011  62.3285217   5.6894398
   9.9593554   1.2482774  68.8147964   9.1576967   1.7316420  68.6149597
  10.6662884   1.8501828  68.5820160  55.4258080  34.7781296  16.0174084
  55.3158417  34.7262077  16.9668522  55.2605095  33.8874931  15.7080889
  63.0719795  66.1537170  34.7333641  62.4098778  65.4771500  34.8751488
  63.9005508  65.7277603  34.9530487  79.4024200  56.2167206  55.4832268
  78.5743332  55.9955750  55.9093742  79.3044357  55.8940544  54.5873947
  53.4977188  22.9652672  28.2659988  53.5280685  23.4899406  27.4659805
  53.0545692  22.1576214  28.0060825  30.8767891  26.5772057  88.4512558
  30.0869007  26.8491192  88.9185562  30.6845684  26.7572136  87.5309982
  49.3815804  19.9885387  82.6316833  49.6822777  19.0944366  82.7941437
  49.4122925  20.0822868  81.6795807  27.6470413  48.4887581   2.6558840
  28.0299664  49.3167191   2.9458449  27.9547119  48.3849068   1.7554475
   2.5866601  63.6097450  73.8876877   1.6747044  63.6751328  74.1710510
   2.5797694  63.9246025  72.9837799  31.7943115  26.8631229  18.4263802
  31.4847946  25.9631367  18.5286217  31.0691605  27.4029846  18.7409191
  10.0228033  26.9484997  18.0519962   9.1781120  26.6548805  17.7106514
  10.0709982  26.5700741  18.9298916  11.7046394  47.9115181  45.6065636
  11.4788265  47.4513397  44.7981834  12.4773006  48.4289970  45.3797531
  85.8772583  24.8566990  45.5225563  86.6745682  24.3314762  45.5908127
  86.1374283  25.7272854  45.8235855  52.5037651  12.3754902  33.1634369
  52.0768166  12.0839539  33.9690094  52.4287834  11.6290274  32.5689583
   1.4934475  58.2446289  55.9822464   1.8985407  58.8121529  55.3264656
   2.0348384  58.3570633  56.7635803  86.1349258  33.3706207  19.2044659
  85.3389511  33.7906494  18.8785439  86.5110245  32.9412766  18.4360600
  65.5369186  37.1523399  17.1405468  65.8517532  36.6873131  17.9156971
  66.2661438  37.1081123  16.5220718  33.4095726  36.9172287  80.7466583
  33.6902924  37.8026314  80.9779510  33.8952065  36.7130966  79.9474564
  23.9083786   1.1234186  79.5794601  23.1497879   0.7306355  80.0113068
  23.8143349   2.0627463  79.7377319  77.1843567  59.5893059  43.4109230
  78.0569992  59.8480568  43.7071838  76.6197128  59.7394257  44.1691284
  45.6870232  14.4337311  74.5957565  44.9226723  13.9187813  74.3372421
  45.4519997  15.3361664  74.3798752  11.5074930  62.8306618  57.5706673
  10.6372108  62.4332275  57.5408974  11.8649311  62.6904945  56.6938438
  16.8337955  53.7679977  46.0250130  16.6035061  53.9562569  46.9348259
  16.5457783  52.8656731  45.8868370  13.5763493  17.3525047  38.2834930
  12.9065332  18.0207405  38.1384468  14.3591948  17.8468437  38.5264168
  68.6845093  67.5139771  70.1567230  67.7368011  67.4778442  70.0271988
  68.8163605  67.1972427  71.0503235  66.3577118  67.9830093  29.9764709
  66.9635773  68.2142258  29.2724075  66.0506058  68.8243790  30.3141289
   5.2247791  59.6383858  59.0500793   6.0639553  59.1803970  59.0976219
   5.4054880  60.5073013  59.4086342  21.2942371  49.2740364  54.6295128
  21.5131168  48.6639671  53.9251404  22.0281582  49.8881378  54.6511688
  24.2844963  15.5183382  23.6685944  24.9377880  15.3871727  22.9813976
  23.4545650  15.5969963  23.1982136  77.1512146  67.1228943  85.3181229
  76.3372879  67.5228653  85.0118637  77.8415298  67.6098099  84.8679886
  71.7437668  46.7385902  46.3206444  72.2920914  46.0454712  46.6882858
  70.9042358  46.6438675  46.7705994  68.0201797  35.0113716  52.8971825
  67.8852921  34.9589920  51.9509850  68.5025635  34.2137794  53.1148643
  81.7200012  45.5952263  56.2447090  82.3603058  44.9646187  55.9151840
  82.0242615  45.8064957  57.1273308  86.3630753  50.3010559  51.7740211
  85.9451752  51.1243896  52.0264397  87.2715302  50.3959465  52.0602646
  11.0664654  12.8147144   8.0626020  11.0062132  12.0409870   7.5022931
  10.7980080  12.5054092   8.9277573  21.7344036  11.9533768  55.9438972
  21.9769936  11.8366480  55.0253334  20.8365612  12.2838869  55.9143639
  50.4487267  50.5911446   4.9469995  49.8684883  49.8311043   4.9905543
  50.8554153  50.6319084   5.8125482  43.2219086  27.2568779  10.8887157
  43.6294403  26.6343918  11.4909306  42.9111099  27.9660931  11.4514313
  29.9022884  34.0378075   2.5152018  30.1280994  33.1293831   2.7152243
  30.5989838  34.3344307   1.9296571  55.6965752  13.1044502  11.3859949
  56.4433098  13.5096617  11.8269262  55.7947807  12.1683378  11.5600119
  26.1527939  55.2481766  50.0189552  25.2814045  55.5887260  49.8166237
  26.7523918  55.9324036  49.7213860   2.4190257  49.6995392   7.2505693
   2.9594841  48.9147339   7.1599431   1.8512803  49.6896706   6.4799852
  16.3693714   2.0596621  61.4797211  16.7043915   2.9404452  61.6476936
  16.2003021   2.0433273  60.5377121  31.0822525  63.8375320  85.2372971
  31.1128063  64.0210419  84.2983475  30.2964706  64.2897873  85.5442810
  82.8744507  20.6784229  82.9500275  83.8225403  20.8100662  82.9445267
  82.7647781  19.7279301  82.9776917  51.1854553  60.3709450  14.5145874
  51.3522530  59.5122452  14.1259403  50.2840271  60.5754013  14.2658806
  56.7703400  17.8471928  15.3990135  56.6752815  17.1543884  16.0526333
  56.9109993  17.3812199  14.5748072  72.3370209  38.9489098  86.1837463
  72.3097382  38.1581001  85.6451263  72.8213348  39.5825920  85.6544800
  33.3574867  20.3568230  21.0095825  32.5677452  20.0274315  21.4385815
  33.0726128  20.5825577  20.1240749   7.9825387   6.9068828  83.8083038
   7.3350077   6.9386382  84.5125275   7.7160578   7.6018028  83.2063904
  66.2512665  64.3047638  79.2604141  66.5366058  64.0515823  80.1383209
  65.3046112  64.1631851  79.2661362   1.2578110  11.4078121  41.9807205
   0.7871364  10.8983107  42.6403465   2.0958979  10.9560003  41.8821907
  33.1233788  47.6197662  32.8225670  33.7112656  48.1759148  32.3113708
  33.3633499  47.7909470  33.7332497  78.9204483  61.5268822  79.6614532
  79.1869888  62.2802238  79.1345139  79.7031708  61.2953110  80.1613922
  11.0329494  62.5240440  72.1396103  11.5223732  63.3408012  72.0416031
  10.4851656  62.4775734  71.3560257  43.0029526  27.0207348   6.9260945
  42.1420746  26.8399448   6.5486894  43.3755684  26.1559334   7.0978785
  74.4828949   8.5756817  11.7808723  74.1322861   7.7812743  12.1836424
  75.4214630   8.5439692  11.9661245  69.8731766  54.1468010  26.8039093
  69.4328690  54.9734764  26.6065083  69.9378738  54.1319466  27.7588043
  49.4983864  50.7166481  84.2178955  49.4611206  51.6383438  84.4734726
  50.2580643  50.6593170  83.6383820  24.3982372  13.7839508  12.9532738
  25.2557449  13.6042471  13.3387852  23.8497887  14.0362148  13.6961060
  23.2814445  10.9581108  71.8438950  23.7852459  10.8537579  71.0367203
  22.4380493  11.3077011  71.5563202  13.9941559  10.6478558  25.4803257
  13.4369917  10.3429565  26.1964512  14.8412495  10.2326822  25.6424809
  51.2231140  19.9328136  30.2233963  50.4413414  20.3444500  30.5916595
  51.2266350  20.2038422  29.3053741  40.1683235  66.7987137   0.1542099
  41.0668488  66.5590286   0.3810064  39.6249046  66.1810150   0.6434733
  70.6109772  56.5122910  17.0886574  71.1686249  56.8054276  16.3680077
  69.7529297  56.3753510  16.6871185   7.0940962  37.5264244  71.1458054
   7.8005586  38.0322380  71.5474167   7.4265909  36.6291962  71.1200943
   2.5362813  33.8321304  81.5708389   2.5648129  32.9691429  81.9839630
   2.8953750  33.6903572  80.6949463  71.8136826  58.7298965  13.0064011
  71.2292328  59.3670807  13.4170647  71.5075226  58.6726112  12.1012955
  78.8625565  31.3319111  79.6642075  78.1516037  30.7559242  79.3831024
  79.1008911  31.0112476  80.5340347  55.8668900   0.8433620  32.3087807
  56.6856956   0.3476368  32.3022957  55.2677002   0.3231311  31.7734642
  19.7131329  48.4122353  22.7016563  19.7065639  48.9334183  21.8988132
  20.2137432  47.6286583  22.4744415  53.0869102   5.1543317  79.3686523
  53.8626213   4.6556592  79.1120758  52.7302208   5.4836798  78.5437012
  63.5852165  69.4589081  21.6953583  64.0917969  69.9856415  22.3135509
  62.7535019  69.2997818  22.1416378  81.5783920  52.8773804  45.0094566
  81.2746429  52.1444664  45.5449982  82.2357483  53.3137436  45.5513954
   8.4811449   9.3756027   3.9036667   8.7808228   8.9934015   4.7284980
   7.6198854   8.9843807   3.7573504  58.4261131  31.4305668  10.8333626
  57.9918442  30.9828167  10.1073017  58.0253029  32.2995911  10.8529396
  79.4482422  55.7243500  26.7401180  78.6373978  55.6514587  26.2366810
  79.7516861  56.6174889  26.5774612   4.2723274  64.2302322   2.8763070
   3.3885384  64.3063812   3.2359583   4.8087559  63.9474525   3.6169238
  62.6174583  33.3353157  22.1144905  61.8453140  32.8599663  22.4212036
  62.5655670  33.2860107  21.1599712  86.0677032  68.3626480  63.5575943
  85.3170547  67.7916183  63.3942451  85.7001419  69.2464600  63.5605392
  15.1882181  71.4975586  57.2312546  14.9989471  70.7029724  57.7302933
  14.6864204  71.3975449  56.4222870  75.8621826   0.2710886  10.3197517
  75.3105087   1.0403795  10.4614639  75.5344315  -0.3768505  10.9434414
  32.3420029   4.1825438  86.0180740  32.2431679   3.4770226  85.3787766
  33.2751732   4.1836376  86.2312088  76.3678818  17.0299454  84.5918961
  75.9833298  16.1557178  84.6557693  76.5439453  17.1465302  83.6582794
  23.7578735   5.8476429  67.2857437  23.5648861   6.5307546  67.9278870
  23.2001095   5.1132708  67.5423203  61.9910812  63.3533401  67.0802307
  62.3031120  64.1267242  67.5500717  61.5938225  62.8057747  67.7574234
  73.8959885  66.4382553  39.7732811  73.2210312  66.5382767  39.1019707
  74.6770325  66.1696701  39.2894821  39.3380394  21.7800179  29.9322357
  39.1028557  21.7887344  30.8600521  39.6989555  22.6513062  29.7684383
  50.4083366  11.9727726  11.0299797  50.8077354  11.9544420  10.1602812
  49.5398712  12.3489418  10.8868256  47.4116096  44.4542122  15.7851400
  46.5756531  44.6047249  15.3438272  48.0234375  44.2529564  15.0770473
   5.8481355   9.7467213  36.5607986   6.2946873   8.9989386  36.1637535
   4.9842782   9.7562923  36.1486206  79.1174622   0.8993665  49.2137871
  78.9407196   0.4199623  48.4043655  78.5759811   0.4647548  49.8726768
  39.0786171  64.2729111  27.6721420  39.1305084  63.4056206  28.0738125
  39.9909096  64.5414734  27.5633888  14.7056103  38.7271767  10.9696903
  14.2681980  39.0029945  11.7751894  14.9773951  37.8255768  11.1413813
  73.2026672  41.4799728  85.0198212  73.6356888  42.0247879  85.6770172
  73.8569870  41.3716812  84.3296280  25.6590824  71.5549088   6.5549121
  25.4134769  70.6481018   6.3715816  26.5821247  71.5074005   6.8038440
  20.2073765  67.8867416  12.1243916  19.5740929  68.4254608  11.6500902
  19.9737053  66.9866714  11.8974361  73.6765366  38.2320633  61.8932304
  72.9006958  38.7914772  61.8564262  74.2931290  38.6372566  61.2834206
  73.0129776   0.7379920  20.6494980  73.1785126   1.5000752  21.2045288
  73.1508865  -0.0131117  21.2266064   9.5745831  16.7579823   1.7738266
   8.8986120  17.4116650   1.9526933  10.2882690  16.9818401   2.3711305
  44.2653465  59.0232506  32.2697449  44.9673157  58.9081917  32.9102364
  44.7170677  59.0877266  31.4283047  74.2750168  33.5661278   9.1254168
  73.7001114  33.7612152   9.8654547  74.9561691  34.2372932   9.1678514
  65.5735474  10.7618046   9.1699562  65.8628006  10.4053345   8.3300190
  65.0445480  10.0641470   9.5568190  74.7860336  59.3824425  28.6615314
  74.8828735  60.0633659  29.3272610  73.8415222  59.3184319  28.5200195
  39.9670067  54.7438736   3.1211758  40.6443253  55.3854942   3.3351698
  40.2158356  54.4115410   2.2586982  72.5757751  67.9742355  81.7771835
  72.2885361  68.5772247  82.4628525  73.0578308  68.5250473  81.1603699
  69.2059250  41.5065002  77.4401932  69.5866318  41.0281410  76.7036743
  69.9609680  41.8270454  77.9335556  61.8850746  12.8791533  46.6539268
  60.9415703  12.8188658  46.8036003  62.0209122  13.7725630  46.3383331
  38.0051575   3.2226703  61.5088844  38.4551582   4.0667253  61.5449638
  38.0899925   2.8679953  62.3938942  79.5645676   1.5832597  22.0290680
  79.8849640   1.1844622  22.8381023  80.3485794   1.9384856  21.6103020
  77.0527725  18.2469978  42.6169739  76.5364838  17.4681149  42.8243828
  77.3047714  18.1303768  41.7009354  85.8194809  57.6939278  61.1885643
  85.8427505  57.7559967  60.2336655  86.6544266  58.0655479  61.4731560
  78.9688110  58.2923050  78.8329468  79.0591965  59.0065079  79.4637985
  79.3576660  58.6334686  78.0275726  56.1297226  19.7019978  49.6126480
  57.0022430  19.5397034  49.2540359  56.2907333  20.0080338  50.5051994
  72.7362747  12.9761505  39.0950813  72.5425110  12.0472136  39.2206306
  72.0910187  13.2706766  38.4523354  70.8845367  28.4054546  20.8137817
  70.9002686  27.5865250  21.3090954  70.1993637  28.2756729  20.1581001
  40.9236679  64.0303345  86.7222137  40.6951599  64.9071884  86.4137497
  41.5097084  64.1824112  87.4636078  78.0093307  30.5360527  36.6101570
  78.5541916  31.1994381  36.1867409  77.5436325  31.0118923  37.2978592
  75.3561630  66.9779739  36.3028183  75.4747467  66.8470993  37.2435837
  74.7414780  67.7088852  36.2382889  17.7133026  46.9555206   9.1018410
  16.9032383  47.3667374   9.4033852  17.4243851  46.2732925   8.4957685
  56.8063240  25.5381927  74.5087738  57.5243225  26.1196537  74.2585526
  56.6268158  25.0262089  73.7201767  79.4677429  23.4443436  43.4913330
  80.1066589  23.3714695  44.2003555  78.7654037  22.8430309  43.7390747
  12.6531525  57.8410606  45.7930183  11.9846048  57.4074783  45.2626572
  12.1611700  58.2783051  46.4880028   6.6881027  45.6668663  20.8021851
   6.5241165  46.4452057  21.3346539   7.3355098  45.1679268  21.3003368
  64.0030212  37.9015198  76.4794540  64.2756882  37.2109070  75.8753510
  63.2769241  38.3372078  76.0331497  73.1256104  18.8203259  28.6209908
  72.2119064  18.7603092  28.8998661  73.1721039  18.2770214  27.8342953
  77.7562943  11.0163822   6.6107154  77.7571487  10.1315727   6.9758768
  76.8812408  11.3537273   6.8023305  32.7185822  17.9812469  25.8892670
  32.7439232  18.7330017  25.2972755  32.3355293  18.3247986  26.6964073
  50.2444305  63.3756027  69.8992996  50.3794098  62.5051346  69.5247345
  50.3929176  63.9762650  69.1689606  60.0148163  63.9966393  77.7326584
  60.5749626  63.5315475  77.1112442  60.6082649  64.5911636  78.1915588
  44.6572342  39.6575546  34.8258896  44.7925873  39.0560799  34.0936737
  44.0146255  39.2170944  35.3820190  13.8907518  54.5710602  33.4111481
  13.9947691  53.7096863  33.8154373  13.0275364  54.5394058  32.9987297
  22.3933163  63.0482674   1.0974839  23.3454876  63.1156158   1.0263075
  22.0758667  63.1896858   0.2055997  64.5995331   9.6682749   1.1696912
  63.8026314   9.9882812   0.7468798  65.3073044  10.1523743   0.7443216
  10.9697762  51.1298866  68.2238541  11.1434565  52.0026588  68.5764694
  11.3490210  51.1467438  67.3451462  17.6512222   3.9227111  72.6206589
  17.4879761   4.2983222  73.4858170  18.5650673   4.1382785  72.4345169
  82.7898560  40.2866745  23.2078419  82.7031174  41.1703796  23.5652943
  83.6190414  40.3019676  22.7298717   9.9944143  42.2324142   1.7442825
  10.2048731  43.0037117   2.2706306   9.2247972  42.4911232   1.2373394
  38.3453979  65.1018600  80.0148544  37.9818497  64.2912216  79.6585846
  39.2792854  65.0558929  79.8099823  78.9924774  18.2087364  11.8800831
  78.8556213  19.0356674  11.4178190  79.0882645  17.5583954  11.1843004
  60.3391304  11.0777788  64.9919968  60.6426964  10.8701000  64.1082840
  60.0984154  12.0033197  64.9512253  26.8165703   2.9437013  21.1247845
  27.6010628   2.8147309  20.5917072  26.5162716   3.8243089  20.8998775
   7.5164361  26.2075291  65.4232178   6.7336521  25.6906719  65.6138458
   7.7400541  26.6201210  66.2574768  80.3710632  65.4916992  50.0322037
  80.4510803  66.4380875  49.9131279  81.0844040  65.1235352  49.5108261
  49.9176979   9.9886084  78.7983246  49.6190681   9.3860598  79.4794922
  49.1563110  10.5388908  78.6147232   9.9044523   3.4238386  65.6840439
  10.6405478   3.4386210  66.2957382   9.2193031   3.9292274  66.1215134
  82.6898804  23.0597496  13.6111145  83.6413116  23.1588440  13.6455555
  82.5496902  22.2777367  13.0772285  15.3048353  37.6899071  83.0336838
  15.3069363  37.6010399  82.0806198  16.0382710  37.1489067  83.3262939
  12.8198919  36.2739677  74.0853424  12.9732542  36.4777946  73.1627579
  13.5977135  35.7857475  74.3552780   8.1133699  57.0443192  74.5464630
   8.2216206  56.1769638  74.9365921   9.0061045  57.3392639  74.3668289
  41.8183174  49.7925797  24.6434231  42.1890335  50.5534401  24.1963329
  41.1846046  49.4346886  24.0216866  41.0040398  56.7309685  72.3048553
  40.2397499  57.2814064  72.1342316  40.6556091  55.9792480  72.7841721
  48.3219566  68.5663605  83.1888351  48.7979507  68.0192795  83.8136292
  47.4656944  68.1464996  83.1065903  84.0197983  57.2289391  77.3202515
  84.4194183  56.5942459  77.9149780  84.5276489  57.1529808  76.5124512
   4.2652483  52.4673462  81.0928116   4.2199349  53.2777100  80.5853729
   4.8049302  51.8819313  80.5615234  45.0766945  23.5608788  16.5124512
  44.8190155  23.7338295  15.6069555  44.3370934  23.0803242  16.8843231
  84.6096954  52.3901978   1.3155214  85.3264084  52.0750885   1.8662140
  84.5808563  53.3333397   1.4764165   8.1402321  48.8744278  36.5542145
   8.8694401  48.5579529  37.0874405   7.3672585  48.4555168  36.9327087
  35.7285652  67.6387024  36.9070854  36.0043030  68.5154037  37.1746712
  35.2620316  67.2918396  37.6675186   3.4839804  18.9500866  32.2014160
   3.7302060  19.8420925  31.9566116   3.4255023  18.4808121  31.3691959
   9.6597900  42.6548424  43.0037193  10.1195526  42.6675034  42.1642609
   9.6299534  43.5725098  43.2743263  60.4484291   2.7521186  17.0632114
  61.0403442   2.7143660  17.8145046  59.9956932   1.9088053  17.0723724
  15.5637846  20.3431454   8.4040461  14.7477989  20.5311241   8.8677950
  15.8017826  21.1736069   7.9918284   4.5765967   9.7625141  78.5085373
   5.5323267   9.7230082  78.5439148   4.3887916  10.4714155  77.8933792
   5.9246006   6.8171554  38.5155258   5.7543192   7.6343560  38.9839478
   6.8403678   6.8826361  38.2447586  17.4514122  23.2724209  19.7153263
  16.9352608  24.0175552  20.0228920  16.9916306  22.9694386  18.9323616
   8.9572449  21.7602196  38.0380135   9.2649050  21.7644768  37.1316147
   8.4761229  20.9371758  38.1237755  46.8993378   4.2376037  83.6423111
  46.1881981   4.6199193  84.1564560  47.3500671   4.9905224  83.2599716
  83.3676910  26.7962227  42.4350204  82.4913940  26.8031807  42.8201027
  83.3121872  27.4096069  41.7022820  29.2956905  23.7046356  53.5175781
  28.8001194  23.8112850  54.3295326  28.6878872  23.2666473  52.9217834
  16.7515564  43.6282158  78.6274948  17.3743248  42.9957352  78.2692108
  16.2260113  43.8995438  77.8748856  28.0800171  55.5110741  56.9590988
  28.8407917  56.0850716  56.8697624  28.0280952  55.3264389  57.8968887
  61.1122437  37.4607735  85.7022400  60.3932457  36.9093323  85.3937149
  60.7038536  38.3071060  85.8843613  41.3139229  12.4695911   6.2437706
  41.0589752  13.2897348   5.8211613  40.5223541  11.9319105   6.2203269
  50.8288002  53.9552765  81.7868118  51.3725166  54.3489952  82.4691544
  49.9324875  54.0545883  82.1077271  23.4459705  53.3815269  82.4231491
  24.2761917  53.7259674  82.7522736  23.6478462  52.4848976  82.1556931
  25.0159073   5.1742129   1.5634813  25.2426529   5.3079734   0.6431956
  25.6648922   5.6855183   2.0468190  73.9987411  32.1793404  12.4992199
  73.5698624  31.8919849  13.3052711  73.8340836  31.4724483  11.8751802
  77.2887497  25.2269554   8.2092066  76.6987915  25.7040653   8.7927704
  77.4412994  25.8274746   7.4795909  11.0489826  10.6606178  15.4703989
  10.2317228  10.1821232  15.6095381  11.5240812  10.5684299  16.2962418
  56.9090996  61.5785789  54.2924080  57.1196136  62.4491234  53.9546738
  56.2052460  61.7301369  54.9231644  21.3476505  48.0838661  16.8374653
  22.2281437  47.8687668  16.5297413  20.8191662  48.1265106  16.0405216
  79.4514923  56.9785194  34.4677505  79.9496918  56.5449982  33.7748680
  79.7772217  57.8785896  34.4696846  34.8356018  36.7843094  29.2600479
  34.3561897  36.8522568  30.0857468  34.6464577  35.9003448  28.9453106
  12.6861353  21.5503387  31.9864292  13.0677433  20.6751633  31.9180412
  13.2351427  22.0015755  32.6276855  65.3258743  71.3692627  35.2165260
  66.2127304  71.0115356  35.2583542  64.8296967  70.7215271  34.7160530
  56.2901421  60.5909424  18.3218231  56.5121422  61.1130676  17.5508938
  55.5668983  60.0340195  18.0337486  45.0660820  17.5766106  80.9309235
  45.3052559  17.4959126  81.8542404  45.0949020  18.5175095  80.7573929
  51.8265648  46.1522255  72.1678467  52.2602119  45.8655968  72.9716110
  52.4820404  46.0220375  71.4825516  79.5648880  15.0377760  85.6396408
  79.5423431  14.6611853  86.5193558  80.4060135  14.7560301  85.2799759
  63.6248779  37.9564476  72.4159393  62.7914162  37.6354523  72.0716476
  63.7662239  38.7883453  71.9640579   3.5390337  11.6146336  60.2654495
   2.6675162  11.2194958  60.2890053   3.4398189  12.3799047  59.6991043
  63.0816154  62.5558586  80.9101257  63.4036369  63.1735077  80.2535858
  63.2923203  62.9663010  81.7487946  55.4265175  25.1283817   9.6041250
  56.2971725  25.1046181  10.0011539  55.0244331  24.2978764   9.8587179
  81.4245300  26.0534744  52.9006195  80.8312912  26.4109058  52.2399025
  81.5478745  26.7692394  53.5240746  67.8736343  25.5454674  82.9621658
  68.7037354  25.2581997  83.3424759  67.6398926  26.3283405  83.4608688
  47.7313004  64.6701279  51.6297836  47.0171356  65.0185852  51.0961380
  48.5088425  64.7626419  51.0792427  63.3178635  34.2858963  86.9035797
  64.0834274  33.8597794  87.2890244  63.3516579  35.1835899  87.2340851
  68.7497253  24.7961941  64.8855133  67.9146500  24.5490952  64.4882507
  69.4072723  24.5441608  64.2371750  13.2268181  70.4542847  63.0583267
  13.4397373  71.1411896  62.4266167  13.6328402  69.6650391  62.6998940
  28.9418678  54.0077477  69.7304306  28.4235229  54.5044022  70.3635788
  28.8412514  54.4884949  68.9088516  76.8637161  64.4141541  67.2806396
  77.3928604  65.1999054  67.4178696  76.7389297  64.0531311  68.1583176
  55.6438522  45.1879807  15.7078552  55.7716255  46.0974464  15.4380836
  56.0058441  45.1476135  16.5930462   4.6404028   4.5770988  31.3499146
   4.3520260   4.6605616  30.4410133   5.1018152   3.7389481  31.3787918
  38.9111061   1.3736464  63.6244049  38.8925781   0.7971720  62.8604889
  39.5252113   0.9535870  64.2266159   2.8360457  14.5098734  36.6614456
   2.2620068  14.0106621  36.0805016   2.5259709  15.4123888  36.5869293
  42.3043404  29.9551353   6.0191054  42.5747795  29.0597954   6.2227283
  41.7414818  30.2076321   6.7510004  42.0428963  65.8682861  70.1315994
  41.5188637  66.1571198  70.8787231  41.4032784  65.7101440  69.4372482
  42.9897881  52.6786232  69.5911102  43.9345894  52.5999908  69.7230225
  42.8337021  52.2814255  68.7343063  45.3764343  21.4870510  21.2770271
  46.0488396  20.8610229  21.5457115  45.4712448  22.2174759  21.8883553
  74.7520447  38.9110222  19.0999718  74.9425354  39.4254341  18.3155460
  73.8816376  38.5457115  18.9413052  19.5792046  19.7873974  56.1189804
  19.7952442  20.5828133  56.6056747  18.9700508  19.3165970  56.6877594
  72.6731644  37.0525894  20.0520248  71.7389374  37.1980324  20.2013168
  72.7374496  36.8463860  19.1195107  43.4627113  62.8580780  57.3401146
  42.5158501  62.7193260  57.3609467  43.6528130  63.3344231  58.1483154
   5.8771830   7.3025436   6.2858515   6.7561255   7.6093640   6.0632477
   5.8550029   6.3961668   5.9788971  71.0877838   4.2488065  64.5038834
  71.3165970   3.8500159  63.6643372  71.6255035   5.0394683  64.5479431
  83.5103760  30.1467495  13.1792192  82.6982269  30.0859203  13.6821508
  83.2422562  30.5072079  12.3339911  17.8065701  49.5040588  11.4136477
  17.1368771  49.5142746  10.7298050  17.6401196  48.6965065  11.8998423
  24.6472511   2.2085726  53.8316154  24.9373131   3.0431025  53.4632988
  24.3654957   2.4241533  54.7206421  53.1354675  10.0915203  81.7643051
  53.9232979  10.5533085  82.0511856  52.9407158  10.4620838  80.9034958
  31.4290257  13.9021778  63.4559746  31.7496376  14.2671432  62.6312065
  31.3552990  12.9624615  63.2894554  42.8952293  49.8157196  11.6900549
  42.6866837  50.7018661  11.3942652  43.8106041  49.6891174  11.4404745
  53.4649582  51.5049171   6.0073147  52.7361336  51.4609032   6.6262741
  53.3422165  50.7450142   5.4383574  34.6956940  46.5497818  25.1259308
  34.5968857  46.4676476  24.1773949  35.4348259  45.9804688  25.3399334
   7.5506144  63.1067352  25.9157257   8.0380125  63.9305496  25.9176807
   7.8328142  62.6633835  25.1157055  22.7440090  58.7486305  39.9073677
  22.0507793  59.2268105  39.4523811  23.3984509  59.4155693  40.1150551
  59.4899940  56.3412666  73.1475754  60.3195686  56.3531952  72.6701889
  58.9325867  56.9592056  72.6746292  10.2951107  70.0650482   9.0567684
  11.0858593  70.2706757   8.5581017   9.5811367  70.4328766   8.5360203
  75.3443222  28.3128204  43.2647324  74.6650009  27.8461246  42.7779503
  74.8616104  28.9019814  43.8444862  67.8730621  62.8972130  26.9357529
  68.7678452  62.6291275  27.1448784  67.3628616  62.6515007  27.7074699
  27.7839718  71.6792984  57.4954681  27.3154163  70.9578934  57.9153099
  28.3372250  72.0407486  58.1879234   2.8208489  59.9729538  54.1088600
   2.1053061  60.6038361  54.1876869   3.3136699  60.2643547  53.3417587
  85.2491150  64.4660492  27.4853077  85.6022034  63.5798950  27.5645752
  85.4981461  64.8971252  28.3028603  32.2936325  20.5995655  23.9888420
  32.1825104  21.2239189  23.2718582  31.4218044  20.5222111  24.3763542
  58.9064255  47.6958580  63.1680641  59.6661568  48.2722282  63.0853615
  59.2261276  46.9493980  63.6748428  67.2906494  60.0031471  59.6825676
  67.1738052  59.2631226  59.0867996  67.3071365  59.6084328  60.5544395
  35.1865692  54.7217712  37.7682915  36.1084290  54.5743637  37.5569191
  34.7713814  53.8694191  37.6365891   2.1621907  44.2278938  42.4614487
   3.0874763  44.4138985  42.3018188   1.7950405  44.0745888  41.5908546
  61.1170425  24.0799198  37.8509216  61.2766037  24.9540443  37.4949989
  60.3057022  24.1693172  38.3508835  14.8967972  32.8516884  45.6221199
  14.3415136  32.1650543  45.9914780  15.3658752  32.4216118  44.9071121
  65.5991669  34.1314774  14.4576864  65.0790176  33.6075211  13.8484669
  65.2758789  35.0249252  14.3416147  62.5439911  18.4787712  40.7451134
  62.1656303  18.1993599  41.5787811  62.1355591  17.9086571  40.0936661
  69.6249008  54.0715408  57.6256065  68.7107162  54.2159157  57.3813553
  69.8949203  54.8918266  58.0384674  59.0099297  58.8324471  21.0402031
  59.1793365  58.9750671  20.1089725  59.7034149  59.3179932  21.4869156
  41.8301315  68.3211975  76.8707581  42.1033325  67.5451431  77.3599777
  41.9922104  69.0507278  77.4688797  27.3078918  61.0631294  51.8915710
  27.4108849  60.5623627  52.7008057  28.2011719  61.2966537  51.6390877
  13.4957981  10.3865547   3.6537592  14.1340151  10.7573462   3.0443130
  13.9811211  10.2769480   4.4714870  51.4797630  12.2828693   8.4840946
  52.3207512  12.0654526   8.0819778  51.5720863  13.1968231   8.7531586
   5.1901064  53.3185196  59.6196938   5.0999465  54.0673752  59.0303574
   4.5357709  53.4702682  60.3016396  25.7565994  55.9211769  20.1488113
  26.3425674  55.1657791  20.1014347  24.9734764  55.5896454  20.5881710
  64.6885834   0.6463320  17.4808140  63.7527542   0.8386411  17.4219074
  64.9370728   0.9326158  18.3597507  69.5855789  46.8026848   0.2581264
  69.5690994  47.0932617  -0.6537537  68.9420013  47.3580475   0.6981422
  44.1935692  21.2098255  85.0064087  43.8947449  21.6343956  85.8105698
  45.0704193  21.5646248  84.8598251   2.6286972   3.7122440  35.4201393
   3.5746040   3.5682976  35.4479103   2.4261820   3.7943463  34.4882164
  85.9159241  30.7047653  27.0445671  86.4039612  31.2253342  26.4065552
  86.4815674  30.6799793  27.8163605  41.2420502  68.7155533  44.4187469
  41.3907700  69.6297531  44.1771812  40.3238144  68.6851273  44.6873550
  77.4074707  51.9258575  54.5067215  76.5858917  51.7212143  54.0602188
  77.9969635  52.2066612  53.8068047  27.1669788  69.4595108  78.9934998
  27.3092327  68.5328217  78.8004990  28.0449047  69.8106689  79.1423798
  57.5669098  48.0120049  68.7090225  57.4189415  47.1525955  68.3143768
  57.0227089  48.6085243  68.1949768  63.5248566   3.4170103   1.4746040
  62.6987648   3.6327465   1.9073423  64.0991058   4.1568933   1.6721915
  12.7043123  11.2327585  71.1544647  12.9457197  10.8206587  71.9840012
  13.5391188  11.4889545  70.7624283  72.8915863  47.3086548  43.6583557
  73.7633362  46.9254951  43.5610466  72.6240005  47.0726242  44.5465660
  27.1490383  20.3767147  29.8409996  27.8854485  20.5907917  29.2681961
  27.0468693  21.1482544  30.3982430  71.4495926  21.6053905  52.4545555
  71.2890015  21.1832218  51.6106262  72.1763306  22.2055836  52.2876816
  22.8400879  14.8144541   9.7047796  21.9684601  14.6137886  10.0457039
  23.3220043  13.9908113   9.7796164  33.2337151  48.7932434  79.3003540
  33.2011299  47.8393173  79.3724289  32.7802353  48.9870872  78.4799805
  75.5893250  20.5225906  42.8452988  74.7360992  20.1859093  43.1189384
  76.0789566  19.7449532  42.5773888  76.5816727  21.8047619  82.2187805
  76.8817978  20.9996529  82.6406250  75.9501190  21.5102501  81.5625534
  32.6424103  51.7867622  67.1558075  32.9999352  51.0791855  67.6922226
  31.9599991  51.3681679  66.6310883  10.7562332  47.7216377  67.6546173
  10.8328724  48.3829155  66.9668198   9.8156176  47.5599861  67.7277145
  40.9620247  63.8368835  67.5518570  40.5609627  64.5134964  67.0063553
  41.8779144  64.1038666  67.6299133  27.1321640  52.6422005  21.6746578
  27.2066669  51.7720146  21.2829227  27.2007771  53.2448769  20.9341812
   3.6071920  35.6504440  22.7706776   3.0856795  35.4827499  21.9857349
   4.4975295  35.3992119  22.5248871  37.8317642  52.6601753  85.2940750
  38.5538826  52.1590385  84.9150772  38.2544937  53.2678947  85.9008713
  58.1160698  15.0108004   3.2566650  58.9003029  15.5556297   3.3227923
  58.3371544  14.2133808   3.7377839  10.0406389  12.4056005  19.3832588
   9.1507931  12.4414101  19.0323677   9.9727583  12.8067236  20.2497025
  68.6659393  50.8381462  86.2132187  67.9770660  51.2988739  86.6921997
  68.8262634  51.3820076  85.4420242  82.0224838   1.2152188  48.6897202
  81.8368225   0.6154300  47.9672165  81.1860123   1.6468109  48.8637047
  60.2240295  16.9644642  11.1783600  60.4700699  16.9128017  12.1019545
  60.9773827  16.6056595  10.7093725  13.6857853  71.2866898  74.8603745
  14.0915432  71.7617569  74.1351852  14.1988792  70.4822311  74.9365997
  86.0588226  12.4906282  37.0903625  86.5956802  12.1066437  37.7835922
  86.5061264  12.2489119  36.2793579  50.5684013  58.4178810  12.2061090
  50.2317314  58.2166061  13.0792503  51.3018417  57.8144188  12.0872335
  17.0406094  54.0378494  48.7328110  16.8617115  54.5679016  49.5095139
  16.4921112  53.2609482  48.8414917  54.0664673  23.1761818   2.7062416
  54.7191162  23.8720379   2.6283648  54.1601601  22.6686211   1.9001181
  84.1625900  67.0105743  66.7757034  84.8355789  67.0579681  67.4547272
  84.3304214  66.1804352  66.3296738  75.5662613  26.6431751  38.0912514
  76.0355606  27.1422977  38.7597275  75.5114288  25.7568588  38.4485588
  44.4542465  64.5424728  39.4418678  44.2190819  65.2761917  38.8739014
  43.8819962  63.8286705  39.1603432  85.6772995  69.5957108  34.2601242
  85.1802292  68.7911682  34.1122780  86.0145340  69.5084763  35.1516953
   4.0025458  18.4892864  59.5457649   3.5629685  18.9901028  60.2329216
   4.7889738  18.1430683  59.9675407  63.3828850  21.9825344   6.8718171
  63.0732956  21.6788902   6.0184784  63.5750427  21.1797466   7.3564215
  51.4123268  60.2988052  68.1326981  50.9654541  59.8950653  68.8766937
  52.3191605  60.3974915  68.4227829  38.9583130  41.2759857  80.1397400
  38.8115692  42.0384598  79.5799866  38.1910515  40.7220421  79.9959030
  77.7313080  10.4087048  34.1805305  77.4051208   9.6112823  33.7634544
  78.1458817  10.1043777  34.9878387  39.3393402   9.7436914  68.7497559
  38.5410156  10.1418228  69.0967407  39.5468216  10.2617006  67.9720306
  12.2572021  64.8686523  25.2953091  11.8119307  64.0578308  25.0492630
  12.2930145  64.8415909  26.2514572  52.5623245  10.5692339  16.7563553
  51.8726387  10.3988304  17.3978596  53.2017860  11.1027975  17.2281933
  52.8125420  50.8990898  16.4808369  53.2696991  51.4184494  17.1422806
  51.9398537  51.2891884  16.4310875  12.3927870  19.0737438  28.4960346
  11.9224510  18.8103428  29.2870064  12.6047945  19.9960938  28.6394062
  18.4119415  36.6836967  73.6208801  18.2070446  35.7675438  73.4340210
  18.2133102  37.1446075  72.8058167  48.9320831  40.1136436  77.0793686
  48.5261192  40.8756866  77.4925461  49.8582573  40.1801987  77.3117599
  34.7936516  56.5747337  34.4694176  34.7488708  57.4583473  34.1041069
  35.7200432  56.3399391  34.4155083  26.8989296  68.3761520  23.6378345
  27.0550003  67.4682770  23.8979111  26.6285725  68.3196564  22.7213478
  12.2856951  51.2909737  71.0926590  12.2744522  52.1493988  70.6693268
  13.1153984  50.8998489  70.8190765  57.9668274  29.7970428  83.7162247
  58.7741241  30.1859665  84.0527420  57.7096710  29.1625385  84.3851852
  79.4062881  26.2063484  83.0029831  78.5770569  26.2743397  83.4762497
  79.3216476  25.4056950  82.4852753   7.7996478  71.3355255  18.9394360
   7.5575809  70.4686584  19.2652931   8.2274857  71.1650925  18.1003056
  71.5037613  26.5450268  12.9045401  71.1179199  27.0671062  13.6079521
  72.4097519  26.8490562  12.8499231  33.8146667  53.1088600  55.6674767
  33.1417923  53.2260895  56.3380966  34.4342041  52.4907875  56.0552750
  81.3428116  20.7433186  44.1684494  80.5547409  20.7382927  43.6251717
  81.6175919  19.8269596  44.2003326  28.9663754  29.5124874  25.1874523
  29.1440964  29.4478226  26.1257839  29.6363411  30.1112385  24.8574944
  74.1310654  70.2966614  11.8164864  73.6964035  69.7227173  11.1857080
  73.5707779  70.2680817  12.5920420  84.7441254  37.4976540  13.7897987
  84.7565155  37.2105446  14.7028408  84.4846039  36.7189484  13.2973576
  74.3873978  54.1784172  58.4397812  75.2096939  53.7267761  58.6297302
  74.0912399  53.7988777  57.6124535  39.2585373  67.0670471  55.9227943
  40.0761986  67.2533951  56.3842468  38.6558151  67.7493744  56.2184143
  14.4652662  17.6431961  48.8498764  13.8676481  18.1583462  48.3079300
  15.3240623  18.0394077  48.7025108  29.4279556   1.5817505  45.0862274
  29.2715511   2.4258964  44.6629219  30.1336060   1.7535726  45.7097397
  45.3175430  25.6517715  20.8043003  44.6846352  25.6311798  20.0865021
  45.8953209  24.9074955  20.6355991  24.6888256  36.6175652  16.2098522
  25.3026199  37.3409042  16.0823021  23.9943676  36.7772026  15.5707331
  58.3810196  54.6395798  16.6201572  57.7872162  54.8839760  15.9102993
  58.3373489  55.3739929  17.2325020  57.8068275   1.9513465  11.8835411
  58.2488327   1.1023530  11.8921127  57.0711060   1.8322867  11.2829018
  28.9810104   3.8872235  47.9542198  29.1471691   4.6701341  48.4792633
  28.3699856   4.1780720  47.2772484   8.8062649  18.7816448  28.9278965
   8.9793911  19.6769028  28.6367397   8.0668879  18.4943161  28.3921776
  48.7228851  31.1007385  18.7866001  48.1832047  31.0945778  19.5771313
  48.2651329  30.5191898  18.1795597  27.2211170  49.1034050  72.3087234
  27.6991730  48.2852631  72.1733017  27.8235722  49.7849693  72.0108109
  36.6744766  10.8958921  33.7338791  37.2296257  10.1693478  33.4507332
  35.7896996  10.5308332  33.7455597  48.2868576   2.2864389  66.1868896
  48.5424500   1.3987644  65.9360123  48.0185165   2.6994128  65.3661118
  67.5035400  29.1685753  57.2338219  67.7410660  28.4602413  56.6354256
  66.8689499  28.7740574  57.8320541  86.3568268  39.8060570  40.0149879
  85.9232407  40.3735390  40.6523247  85.7435379  39.0833588  39.8815269
  33.7742729  60.9343033  26.0439796  33.6121712  61.8772392  26.0153236
  33.8039932  60.7246475  26.9774647  19.0986900  35.9136658  45.0573235
  19.7294254  36.6325951  45.0179710  18.4031429  36.1718941  44.4525414
  41.0522766  48.5300217  42.0798645  40.1014671  48.5888596  42.1733055
  41.2027359  47.6629562  41.7033195   1.9546990  14.3884449  48.6140594
   1.7525738  14.0089321  49.4692459   2.3504372  15.2363415  48.8157883
  10.2866964  28.6984520  69.1852341   9.7155161  27.9379005  69.2926941
  10.4898186  28.7152004  68.2499847  14.2714062  49.2283020  16.1873569
  13.7675619  48.7099876  15.5598831  14.8899336  49.7216225  15.6485710
   9.9758310  67.0921478  82.3125610   9.4674444  66.4239426  81.8529129
  10.0162039  67.8262024  81.6995621   6.0918970  15.6484241  88.6724472
   5.2356286  15.2305937  88.5805054   5.8972087  16.5840034  88.7274017
  29.1450768  47.7740936  22.2652225  29.0397377  47.1781082  21.5236454
  28.6589966  47.3584938  22.9774284  39.6573677   5.2603812  76.9393845
  40.2714157   5.2209759  77.6726151  40.0962639   5.8081636  76.2885895
   5.0433273  51.7025528  53.2805443   5.6431394  51.1530380  53.7850151
   4.4645982  51.0817375  52.8379440  15.0335321  64.8254929  24.6478786
  14.1479807  64.9582825  24.9861012  15.5416765  64.5470886  25.4097939
   9.2785740  33.4053497  50.6050949   9.1138563  33.7147408  49.7143784
   8.4860239  33.6367149  51.0894165  35.9950714  51.5510559  55.9091682
  36.2805672  51.6934433  56.8116379  36.3212395  50.6783295  55.6896439
  63.9060440  39.4918671  44.3563805  64.6111908  39.2285881  44.9477196
  63.1489143  39.6188927  44.9280891  37.3013954  41.3291016  11.2975130
  37.9431839  41.1719551  10.6049480  36.9914398  42.2207451  11.1389971
  10.3715067  54.3324165  64.5973434  10.9404745  53.5628662  64.5800476
  10.4921856  54.6998787  65.4729233  69.0836258  46.3809204  73.4036102
  69.1318436  46.7941475  74.2656708  68.5016556  45.6314583  73.5294647
  27.4457798  61.0536537  14.3692751  27.3582478  61.7745552  13.7456818
  26.5836506  60.9859009  14.7796106  31.7955570  24.2251816  20.2296429
  32.7117691  24.0543804  20.4478474  31.6412144  23.7198563  19.4314861
  74.8363342  58.5943985  11.6659107  75.2568588  59.1237831  10.9883108
  74.4785538  57.8420944  11.1944609  36.1330795  59.5322266  62.0054131
  36.9700584  59.0678215  62.0101242  35.7135429  59.2781219  62.8273926
  20.5504837   5.7545223  61.0717506  20.3405075   6.6123343  60.7025604
  20.5255203   5.8888931  62.0191422   1.3116888  38.9539413  68.8914413
   2.0785544  38.4461288  69.1565399   1.6205366  39.4908371  68.1616592
  23.9904041  35.1319809  20.0394936  23.9854565  36.0847130  20.1317501
  24.7315369  34.8436089  20.5722198  27.3228569  10.0261946  22.2893753
  27.3172760   9.2920351  22.9035492  26.9573097   9.6654911  21.4816017
  31.5049515  44.9111404  44.5258713  32.1413002  45.5827522  44.7712784
  31.9869213  44.0871849  44.5968437  49.1553154   4.8984852  29.0353298
  48.4777298   5.2121868  28.4364166  49.3505859   5.6522708  29.5920238
   6.6508508  62.1917038  22.0649681   6.4182601  63.0624580  21.7426014
   7.2041516  61.8215714  21.3771534  67.5217972  51.3460693  53.0971527
  68.4055099  51.0291023  53.2837563  67.4146805  52.1068420  53.6680984
  50.4656181  25.7183399   5.7420106  50.7480469  25.4073696   4.8819156
  49.5260353  25.8727608   5.6442018   5.4785447  28.2370319  54.7886505
   6.2468739  27.8097763  55.1672707   5.8337598  28.8108749  54.1098595
  54.5729141  15.5830994  36.7468529  55.0693512  16.2454567  37.2275429
  54.5923233  14.8115387  37.3130226  43.7296181  47.8551369  74.2989655
  42.8605347  47.9724808  74.6825714  43.6559486  47.0546875  73.7792664
  22.6152306  58.6444893  23.9277763  22.8394222  57.7215233  23.8090096
  21.7545357  58.7364006  23.5191345  33.0505104  16.9017487  18.8896580
  32.3680038  17.5000801  18.5856590  33.6563263  17.4582748  19.3790417
  39.7119026  13.8011389  34.8970985  38.9693985  13.3548946  35.3042641
  39.3305893  14.5805054  34.4928436   5.0352654  19.9786205   9.5349627
   4.3507729  20.5801315   9.8280306   4.7005835  19.6163082   8.7146282
   9.3114138  25.5846004  58.8357964   9.0783157  26.4687176  58.5525398
   8.9408884  25.0123329  58.1638947  46.0798302  10.5189533  82.6747894
  45.6773796  11.3279743  82.9906235  47.0008469  10.5965862  82.9236450
  43.8030777  63.9980431  70.3318787  44.5745354  64.0337219  69.7663651
  43.1923714  64.6246185  69.9437103  65.6867599  60.8593788  40.6504707
  64.8217392  61.0678329  41.0033493  65.5101395  60.2759323  39.9124870
  72.2241592   3.6135221   3.9536548  71.9962387   2.9464695   4.6012058
  71.9587860   4.4398355   4.3574028  22.1798077  70.9419479  25.2742558
  22.9670467  71.4722977  25.3976173  21.6727619  71.4156723  24.6149254
  59.2727089  52.9838676  55.8180656  59.3661804  53.2400513  56.7355995
  59.8109856  52.1969337  55.7330818  15.4376478  23.2617798  17.1751137
  15.2335072  24.1738548  16.9685287  14.6475029  22.9301815  17.6016636
  27.6377697   5.0724721  23.5972805  26.9262714   4.6787243  23.0923424
  27.3827038   4.9440274  24.5108852   7.0790467  32.0276375  85.5981293
   7.2272792  31.9406071  84.6564941   7.8494568  31.6261234  85.9999847
  21.9482651  50.7053986  67.8571167  22.4408283  51.4421921  67.4955292
  21.8716011  50.9035301  68.7904434  55.6026115  70.7118759  52.9706345
  55.2314301  69.8966751  53.3081398  56.5341606  70.5225067  52.8584557
  83.2390366  11.8131599  80.1258926  84.1355667  11.6842413  79.8162994
  82.6954498  11.6732111  79.3505554  64.5510406  47.7364769  66.4703217
  64.9037704  48.3205643  67.1416321  63.7661705  47.3601952  66.8686066
  86.3588943  22.1668415  87.9100571  85.6167831  21.7652416  88.3619614
  86.5350342  22.9677620  88.4037476  70.2941208  14.1510792  24.5766010
  70.9246826  13.4310093  24.5653381  70.3268051  14.4840612  25.4734211
   1.5370653  43.1929855  54.6513443   1.0841278  43.8959923  54.1856613
   1.8736781  43.6093445  55.4447975  72.0880890  27.7605515  76.3752289
  71.7386780  28.2105713  75.6060562  71.3255997  27.3419800  76.7747803
   7.7111449  44.5204735  22.8750153   7.4512072  44.0590668  23.6723652
   7.7853575  45.4367142  23.1418877  78.7874298  22.8214169  14.4102440
  77.9281235  22.9884930  14.0230484  78.9203186  21.8797894  14.3011036
   6.1010704  17.3839779  21.8486347   5.7230291  18.0829449  22.3822651
   6.4312968  16.7491894  22.4844227  57.2299652  35.6234818  86.7060165
  57.2636223  35.1101990  85.8987732  56.7740936  36.4281921  86.4593430
  48.6958351  15.3242111  30.5786285  48.8889771  14.3967476  30.7155247
  48.1450081  15.3411732  29.7959843  20.6965427  50.7502403  60.6223145
  21.4679031  50.4712219  60.1289787  20.6125374  50.1024895  61.3220253
  54.5086479  55.5736389  30.5741596  54.0945129  56.0745125  31.2769032
  54.7036209  56.2239037  29.8993492  65.9435730  35.3385201  45.0195236
  65.4468384  35.9900322  44.5245247  65.4549942  35.2344971  45.8360405
  23.3997803  18.3684216  69.6483078  23.2845535  18.5624065  68.7180786
  22.8691540  19.0262508  70.0976715   2.4465976  27.2835064  25.9008865
   1.9101870  26.6671581  26.3994942   3.3467541  26.9969349  26.0552464
  10.9754629  18.4400387  66.1743546  11.6340647  19.0444489  65.8320618
  11.4784212  17.6836643  66.4762878  47.6966095  67.9162750  72.0581360
  46.8626366  67.6444931  72.4413452  48.0852776  68.4936829  72.7152252
  28.1416111  59.9764442  17.6195602  27.8222046  60.0912399  16.7245541
  27.7007561  59.1862221  17.9316921   1.9121368  47.4659271  61.0072365
   2.7850225  47.5077934  61.3978119   1.3137506  47.5061646  61.7532578
  26.0198460  38.8238068  15.6520910  26.9035645  38.9581299  15.3097000
  25.5433388  39.6155319  15.4024010  13.1481848  10.7930107  12.6687975
  12.9222002  11.5750856  12.1652889  12.4785156  10.7456322  13.3510952
  19.4269505  29.2304878  80.3824692  19.2918301  28.8969593  79.4954910
  18.5833569  29.1044292  80.8168564  27.9535027  27.6461735  58.4297600
  28.2184620  27.1849327  57.6339684  27.7152691  26.9500294  59.0420189
  26.5432625  38.1436844  12.8214045  27.0636368  37.3966293  13.1169491
  25.9396610  38.3160057  13.5440407  68.1485977  38.2360764  87.4183044
  68.7373047  37.4994011  87.5825195  68.6915665  38.8797455  86.9632111
  13.0719957  62.6779709  35.3436699  12.4046164  62.3036499  34.7685890
  12.8792391  63.6154861  35.3557930   0.9916075  35.9809875  87.4668808
   1.4943490  35.3747292  88.0108795   1.6136034  36.2796173  86.8034286
  37.3818779  41.6911163  26.7114754  38.0538063  42.3585014  26.8505573
  37.7768288  40.8821564  27.0367889  72.4824142  63.5957146  85.1272125
  72.9845734  63.5267792  84.3152237  72.0749207  62.7357712  85.2305603
  51.3509560  59.2000198  73.6063385  50.6083641  59.1095467  74.2034988
  51.5106049  60.1428528  73.5637970  29.9605942   3.3114097  11.4276171
  29.2897358   2.6456044  11.5788927  30.3436108   3.0777135  10.5820894
   2.6894276  11.5699549  28.0286636   2.4559159  11.6672478  28.9518318
   2.4805338  10.6586294  27.8235283   6.8552780   3.3000152  61.9245338
   6.9601984   4.1208329  62.4056587   7.1567874   2.6254721  62.5330696
  63.4114494  52.4675369  78.2889633  62.6469727  52.7369080  78.7981262
  63.1290741  51.6737328  77.8346863  14.7876539  19.7138386  73.2686844
  13.8836422  19.8303051  73.5609665  15.0252390  20.5571156  72.8831100
  66.0564117  70.0740967  60.8074837  65.5282288  70.5449982  61.4520798
  66.3540268  70.7518311  60.2005768  29.1861324  53.2315254  65.5758286
  28.6778641  53.7558250  64.9569550  29.5606995  53.8716469  66.1809540
  12.8481302  67.2440720  27.6248608  13.3273163  67.6808090  28.3290424
  13.4081678  66.5095444  27.3737545  61.0080681  59.4803734  72.7255402
  60.6462440  60.1848526  73.2631454  60.5099831  59.5220909  71.9092026
  78.9713364  17.3999081  74.3019104  79.1659393  18.2725391  74.6437759
  78.5592346  16.9420586  75.0345612  26.7194614  31.4478779  13.3675833
  27.3329239  30.8851662  12.8950863  27.2682991  31.9429131  13.9758177
  59.6983528  37.5565720  32.8247566  59.9848900  36.6440544  32.7867661
  59.9153366  37.8389549  33.7132454  50.1653023   9.3982592  87.3395081
  50.7149887   8.6149101  87.3184357  49.8822746   9.4677887  88.2512589
   9.1647530   5.5753765  67.7097549   8.6804132   5.0683045  68.3613129
  10.0002832   5.7731037  68.1328659   7.4064107  55.0972633   6.8957129
   7.4528260  54.1991196   6.5679722   6.5570951  55.1486320   7.3341832
  35.2005043  54.4311790  71.8171768  36.0684166  54.7844505  71.6218414
  34.9588814  53.9412270  71.0311813  15.2546062  55.8284378  28.9482422
  16.0371819  55.3493805  28.6756363  15.1492434  56.5116463  28.2861557
  84.3899536   2.5641935   0.4792273  85.1960526   2.2315474   0.0845225
  84.0107422   3.1312261  -0.1922661   9.2521439  61.3946037  64.8859711
   9.9147329  60.7530060  64.6299210   8.7103100  60.9360809  65.5281601
  54.2678452  39.4338341  74.7163696  55.2198257  39.3885040  74.6274338
  54.0465393  38.7054062  75.2965851   5.2503581  25.0640221  66.4486313
   4.4000163  25.0756454  66.0093002   5.1198235  24.4962177  67.2080994
  12.7021465  19.8134212  61.6044464  13.5665989  19.4342823  61.7632141
  12.8486156  20.7591953  61.6214828  81.5176392  42.5591049  21.0638065
  82.2692337  42.2939491  20.5336914  81.0097885  43.1322937  20.4895458
  15.4265842  38.9362068  49.8063126  15.2217741  39.1865311  50.7072105
  16.0977364  39.5606537  49.5308990  66.3628845  60.8676529  77.9030991
  65.6441803  61.1815224  78.4519043  65.9341888  60.5326157  77.1155701
  81.2235107   3.4237001  62.7500229  81.3727646   2.6517236  62.2041206
  82.0067825   3.9597578  62.6260872   2.4485126  17.9474049   9.7463989
   3.2778289  18.0869350  10.2035608   1.8270108  17.7260361  10.4399147
  81.5224686  27.2359905  84.5496216  80.7977448  27.0068455  83.9678116
  81.6836395  26.4400902  85.0563736  14.8687820  15.1769619  50.3429260
  15.7337170  14.9605589  49.9946594  14.6674681  16.0345287  49.9683800
  64.2624054  14.7322483   4.7076468  65.0119629  14.1983881   4.9710708
  63.8475418  14.9860201   5.5320988  77.1605377  57.6741562  81.5575943
  76.9245300  57.3045387  80.7067642  78.1035004  57.8277626  81.4987640
  79.9416885  61.2520714  27.6410961  80.1049194  61.7621346  26.8477345
  79.1723099  61.6626205  28.0357227  18.7729244  16.0874748  83.0299911
  19.6747379  16.3969479  83.1147919  18.3837166  16.6615791  82.3703308
  49.0515327   2.6166272  87.2154236  48.7351913   3.3636813  86.7074203
  49.7251663   2.9840982  87.7876282  68.9323959  55.2331047   5.7847505
  68.3694382  54.8309441   5.1232543  69.8106079  54.9130440   5.5785198
  70.4068527  11.9125767   0.5432364  70.8606873  11.2963829  -0.0317169
  70.5165253  12.7627764   0.1173677  54.8872604  55.1563225   8.5427666
  54.8039742  55.4095230   7.6234269  54.5536041  55.9097366   9.0298710
   2.2718983  38.1221313  44.8411064   3.0657127  38.5033226  45.2163162
   2.3137121  38.3482170  43.9119301  33.8955116  19.5171642  82.7678146
  34.5302200  19.8480434  82.1322861  33.9699440  18.5647984  82.7070541
  81.2980652  14.4732666  76.9104462  81.7724228  15.3033571  76.9569702
  80.3898849  14.7254162  76.7434845  58.9017525  54.5522690  87.6899414
  58.6086349  53.6610794  87.4999695  59.1810989  54.5225830  88.6049881
   2.3585129  43.4376450  81.4617538   2.9035726  42.8974228  80.8896484
   2.9763541  43.8365898  82.0744095  66.5762100   4.2786055  80.9318924
  66.0946579   3.7087579  80.3322144  66.3360443   3.9659765  81.8041382
  74.3872375  36.5523224  73.3666687  74.4449387  35.8349190  72.7356110
  73.5554123  36.4081612  73.8177948  32.7526474  62.1738701  42.7020645
  33.1904488  61.5921555  43.3234940  32.6724625  63.0058899  43.1684761
  78.1938553  39.7045746  20.8787861  77.9780045  38.9528847  21.4306965
  79.1497192  39.7504807  20.8997421  83.6601334   4.3604660  28.9955139
  83.0333405   4.4614997  29.7118626  83.3164749   3.6326425  28.4774342
   1.6145370   7.3282266  51.5490036   1.1237589   6.6256819  51.1226234
   2.4783185   6.9505482  51.7147484  44.7503052  24.9358253  30.7826786
  45.3558311  24.1944962  30.7844715  45.2812195  25.6780376  30.4937439
  34.3868103  65.9011078  38.6784058  33.6810532  65.6819229  39.2867622
  35.1369362  65.3941650  38.9891281  67.1977081  32.2334099   1.9634761
  67.9493484  32.4010429   1.3949972  66.5419464  31.8441830   1.3849382
  79.9498672  61.3626060  42.2298927  79.2467728  61.9853897  42.0454063
  80.4276886  61.7510147  42.9627342  73.5384903  63.1951370  21.8295765
  73.0505829  62.4477501  21.4837646  73.8071289  62.9208145  22.7063961
  85.4334030  28.6398735  16.9689827  85.5147934  27.9622440  17.6401215
  84.9480438  29.3446655  17.3978519  12.2065210   9.5002804  27.3681698
  11.8053741   8.8679914  26.7719116  11.8049259   9.3167696  28.2174511
  51.2975998   2.4755754  78.1354904  50.6999207   2.0164881  78.7256165
  52.0407372   2.7177665  78.6880569  10.6607943  35.4722939  66.9679565
  10.2798023  35.9725494  66.2462769  10.6011171  34.5599136  66.6847000
  36.7103653  66.2716293  23.0793228  36.3161049  66.8165207  22.3982296
  37.2683220  65.6577148  22.6018028  56.4126282  19.6858711  11.0558176
  56.2852325  19.5582714  11.9958820  55.8133202  19.0620518  10.6460495
  48.6170502  64.9407272  65.8660812  48.3836517  64.0490036  65.6080551
  49.5442924  64.8880844  66.0977859  44.2153206  48.5710106  24.8087864
  44.2431602  48.1929054  25.6877022  43.3963737  49.0660591  24.7868462
  46.2209244  58.0431252  53.1927223  46.5243263  58.6551399  52.5221863
  45.8260689  57.3239937  52.6995964  59.1361809  18.8552799  74.7606125
  58.3021164  19.0831032  75.1712952  58.9230843  18.1322079  74.1707077
  50.3840675  30.6370182  16.6873417  49.9230423  30.9992008  17.4439869
  50.9230118  31.3601303  16.3665943  48.4788132  36.7322083  71.9308167
  47.6086502  36.9794044  72.2437744  48.6792564  37.3734894  71.2490463
  58.1034698   8.7501421  28.5930099  57.4123688   9.0002632  29.2062378
  58.8291206   8.4704027  29.1510506  63.3313675  47.3868523  35.1950226
  63.0256157  47.7881126  36.0084953  62.9678459  46.5015564  35.2132492
  19.8923588  47.7477684  59.6062050  18.9469872  47.7799454  59.4596901
  20.2733994  48.0267868  58.7736244  26.1716919  69.3303299  14.9963465
  25.9225712  68.8991470  15.8138113  26.1223164  68.6389771  14.3361788
  46.0433273  20.0809574  79.5388947  45.6991882  20.9501629  79.7445221
  46.9878654  20.1595078  79.6727142  85.3935699  51.7099571  87.6247406
  86.1693039  52.2460556  87.4602356  85.2639084  51.7605286  88.5717697
  79.2091904  49.2620583  31.2875786  78.4756622  49.8358955  31.0665207
  79.7256622  49.2128601  30.4831715  74.5081558  48.3681908  34.8917313
  74.4364243  47.5648422  34.3762550  75.4458466  48.4622726  35.0593834
  66.3752289  10.0713625  64.8776855  65.9217300  10.2802925  65.6943359
  66.5943527  10.9234495  64.5006409  70.4221725  31.7343044   6.6075788
  69.4827957  31.5582447   6.6606236  70.5371933  32.5629196   7.0727615
  37.0970345  63.5409966  38.0873642  37.3615990  62.6796722  37.7643166
  36.8953934  64.0417099  37.2968864  59.4037056  41.2741623  23.6312962
  58.5649300  41.6234550  23.9324284  59.3460579  41.3027267  22.6762619
  16.5166512  40.6709633  37.2504997  15.8451462  40.0960999  37.6177101
  17.0827408  40.8826637  37.9927635  40.1926193  13.0386887   9.8469982
  40.5710754  13.5305872   9.1182747  40.9463806  12.6492949  10.2902203
   5.5032935  28.6802902  65.3644562   5.8036213  27.8670120  65.7701797
   5.4520907  28.4773140  64.4304276  56.6538162  53.0005951  13.1146326
  56.3865280  53.8035164  13.5619659  56.0295029  52.3400078  13.4147844
  73.3763962  68.2932358  14.0517626  72.8467560  67.8001556  14.6783228
  73.9327240  67.6338043  13.6371784   3.5971394  26.2954292  80.7206802
   4.3177376  25.7948647  81.1033096   2.8232298  26.0109806  81.2068787
  32.2612610  42.7517014  20.3415565  32.5401382  42.0368195  19.7693615
  32.3288155  42.3911095  21.2256603  83.6257477  45.3327522   1.3220439
  83.0651703  45.8387032   0.7338273  84.1374741  44.7704811   0.7404813
  16.6145020  31.5263233  72.4678650  15.8821869  32.1346703  72.5671692
  16.2096748  30.7100048  72.1746597  81.5567474  41.4330063  37.5847092
  81.9593811  41.0081253  38.3420677  82.1885757  42.1021271  37.3214722
  84.0112991   5.4467473  80.5236435  84.7876282   4.9927163  80.1959229
  83.2947464   5.1185513  79.9804459  59.4143181  47.6218185  43.5799942
  60.0905266  47.5353928  42.9080544  59.0989990  46.7287598  43.7187347
  70.7322922  33.6941452  22.5749626  69.9401169  33.4223824  23.0384617
  70.6134491  34.6323967  22.4273396  25.0842152  36.1936302  33.4366837
  24.7943115  35.6204529  34.1463661  24.9930840  37.0782166  33.7908516
  54.5245819  51.5197220  47.2652893  53.9139328  51.6141319  46.5342445
  55.3910370  51.5671921  46.8612709  86.6302567   5.6557713  65.7584839
  85.8465118   5.1638522  66.0034256  87.2987900   4.9857154  65.6159286
   1.2813661  25.1227131  37.1884651   0.9780163  24.6496830  37.9633560
   2.2332768  25.0235462  37.2047157  15.2389412  29.8507214  44.0852089
  15.7038498  29.1057625  43.7042542  15.0852766  30.4401550  43.3468399
  74.9175491  63.6988182  88.6180496  75.5883636  63.9868088  87.9989319
  74.7127457  62.8030930  88.3497849  67.2766037  39.5027046  26.7562466
  67.6059189  40.3421173  26.4350586  68.0484390  38.9372368  26.7835789
  74.7836914  56.8978271  64.7479630  74.2030487  56.1487961  64.6136398
  74.1922073  57.6388931  64.8791351  81.4453964  49.1011429  20.2012157
  82.2089081  49.0974045  19.6239204  81.7558975  48.6973228  21.0116177
  30.4486675  36.2516556  23.9487782  31.2545414  35.8720512  24.2990608
  30.0181923  35.5254402  23.4976330  68.8844070  51.0278053  17.9818802
  67.9471512  51.0138245  18.1757622  69.0288010  51.8740196  17.5584393
  32.0214348  51.1146851  19.5764542  32.0362663  50.8604698  20.4991589
  31.2282715  50.7072105  19.2284756  46.5522156  15.6026974  28.4499817
  45.7362328  15.1511755  28.2342625  46.3936119  15.9846439  29.3132286
  37.4698372  67.0653381  67.3571701  37.0410614  66.2238083  67.2015686
  37.3942261  67.2016602  68.3015900  41.0459557  18.1711273   5.6864219
  40.5894432  17.3861275   5.9890852  40.6425858  18.3721676   4.8419642
   3.2832873  54.7078705   2.4678538   2.9934239  53.8000069   2.5572524
   2.5526495  55.1512260   2.0367675  51.6500282   5.3869233  40.2609558
  52.5869293   5.5193195  40.1163216  51.4402542   5.9520311  41.0045128
  79.5690231  21.8605976  27.4964867  79.2018204  22.5334129  28.0698242
  79.8752441  22.3419476  26.7278786  42.0558434  56.1524582  86.4058762
  41.8153152  56.4014587  85.5134811  42.3311081  56.9717751  86.8171921
  34.7766647   4.5920167  60.2184181  33.8948898   4.2196455  60.2116661
  34.7279892   5.3115492  60.8478088  13.7980976  43.9533348  11.6434984
  13.3148079  44.5979881  11.1266947  13.1389723  43.5645065  12.2184772
  62.2960281  28.9661350  71.7469711  62.6356735  28.6076660  70.9269867
  62.6965027  28.4262829  72.4284439  36.4121170   9.3499441  75.9589462
  36.3619118  10.1991739  76.3977127  37.2741127   9.0082169  76.1964798
   7.4594469  54.6939201   1.3620192   8.3313704  55.0414810   1.1744531
   7.2356815  55.0578995   2.2185705   9.0656404  18.6901455   9.8631153
   9.1518764  17.7669296  10.1007423   8.3361235  19.0073566  10.3954811
   7.6977038  64.4052658  19.1653214   7.1904669  64.8840485  18.5097980
   7.8167028  63.5341949  18.7867641  54.5812111  21.2751732  16.1709404
  54.9895706  21.0342159  17.0024548  53.9796448  20.5550060  15.9819670
  84.4032364  57.5986786  49.2524986  85.0831070  56.9985886  48.9460678
  84.1645813  57.2681122  50.1185265  16.1670780  66.5452957  20.8760910
  15.4576406  66.6701431  21.5064430  16.2474384  67.3911591  20.4353046
   7.8051291  70.8192749  41.5832443   7.9863887  71.7459641  41.7401657
   7.6792240  70.4485931  42.4567299  82.3207092  27.3453121  80.5304108
  82.7705994  27.7148857  81.2901764  81.4489288  27.7399292  80.5529327
  26.8457737   7.8044868   7.7675085  26.1055660   8.3146782   8.0961857
  27.0167961   8.1640263   6.8970404  34.5680161  51.3695564  79.8933411
  34.9275246  51.3354912  79.0068741  34.0188446  50.5883408  79.9592667
   5.0592556  52.6861458  77.3900452   5.2319345  52.0662079  78.0986252
   5.4555779  52.2833023  76.6174622  66.2504501  17.0333843  53.0278893
  66.6225128  16.3352413  53.5667763  65.4769974  16.6386929  52.6251259
  73.2441559  25.7421589  21.6202259  73.9702301  26.3567715  21.7265186
  72.9422073  25.8810902  20.7225838   4.5195117  51.5781631  39.2715988
   5.2027392  52.0666351  39.7307549   4.6948614  51.7356186  38.3438644
  43.3685532  41.8450089  14.7598276  43.4134026  41.9183846  15.7131567
  43.0371323  40.9608192  14.6029863  65.8334503  38.7906952  46.2077637
  66.5231018  39.3885498  46.4961739  65.6814957  38.2193527  46.9605637
  35.7753830  61.2528458  85.5344620  35.8216934  61.8459396  84.7845688
  36.3121948  60.5023766  85.2797852  62.1773224  53.7515182  63.3272209
  62.1310539  52.9321594  62.8345261  63.1111946  53.8775673  63.4952202
  10.3802366  18.0452271  78.6890182  10.3328533  18.9206581  78.3048248
  10.9623299  17.5586929  78.1053391  63.2592468   8.4123688  60.6052589
  63.7640877   8.7481346  61.3459549  62.3589134   8.6815901  60.7873421
  84.5341568  47.7749939  13.8960876  84.2742538  47.6100960  12.9897251
  85.3654480  47.3108940  13.9950962  35.3888054  56.1907158  54.0743408
  34.7669296  56.0115623  54.7796135  34.9942703  56.9124069  53.5847168
  15.6263390   8.2130547   9.7520294  15.5531530   7.8342195   8.8760386
  16.4340515   7.8416767  10.1068716  86.1282120  63.5835037  23.4968586
  86.4419098  62.8265800  23.9917183  86.8844986  63.8623009  22.9805889
  27.2333336   5.2092228  36.6496582  28.1163540   5.2229953  36.2804451
  26.9014301   4.3352308  36.4442062   6.2957268  64.0537109  62.5373230
   6.3012929  63.2363892  63.0355034   7.0412273  64.5474777  62.8788757
   8.0360098  66.4975586   3.8651841   8.3388348  65.6327972   3.5882134
   7.3472457  66.3166199   4.5047917  49.6652641  57.2214622  40.2032700
  50.1176872  57.8467255  39.6370621  48.8433723  57.6559296  40.4312286
  53.2482224  30.4391537   7.6377878  53.6376915  29.6719799   8.0572987
  53.7635498  31.1773796   7.9628882   6.5658145  45.8424721  31.7065392
   6.0468254  45.0928917  31.4149704   7.2904062  45.8892441  31.0828323
  56.9401321  50.2210770   1.1523149  56.5249329  50.3584938   0.3008710
  57.8772087  50.1898956   0.9595832  82.4591217  14.2838840   2.0283735
  82.0744324  13.8165340   1.2868688  82.3975906  13.6674051   2.7580304
  21.1363506  61.0815811  11.5648584  20.7682705  61.2308350  12.4357624
  20.4475098  61.3622208  10.9623871  85.1967850  63.0666428  36.8008575
  84.3521652  62.8040848  37.1668053  85.2700348  62.5690613  35.9864388
  23.7866898  46.2273788   0.9071544  24.0045662  47.1391296   1.1007288
  22.9018631  46.1137047   1.2541292  81.1813507  63.7117882  69.3821182
  80.8892288  63.8452682  68.4804077  81.6830292  64.4999008  69.5905075
  24.9080658  69.2277527  70.4446716  24.8410072  68.9572983  71.3604202
  25.4032230  70.0464630  70.4723740  58.1522408  12.8852682  67.2563400
  57.3450890  13.3662872  67.4389801  58.6796951  12.9932222  68.0477753
  50.4792824  63.3653717  85.1575241  50.1114235  63.4457741  86.0375519
  49.8178825  62.8794327  84.6649399   8.9800282  42.7080002  73.1476746
   9.6996021  42.1729202  73.4825439   8.6840172  42.2471275  72.3626938
  46.7329216  13.1238346   7.2639771  45.8735542  13.0433540   7.6777897
  46.5493965  13.4951839   6.4010463  71.0307007  66.5721054  40.5000420
  70.6904984  65.7364426  40.1804085  70.2499542  67.0984497  40.6721725
  69.6959763  19.5317879   2.6157262  68.9486694  19.9073830   2.1502273
  70.3119278  20.2588921   2.7060692   9.9280310  42.7964287  25.3791122
   9.5296383  42.5499535  26.2138367   9.2657871  42.5772324  24.7236614
  75.3707047  11.7462416  40.7908821  75.2281265  10.9828844  41.3505173
  74.9652634  11.5105524  39.9564400  74.4858398  18.1224785  75.8903046
  73.9727478  18.5230293  76.5921021  74.0931168  17.2578869  75.7699661
  48.8419914  19.8992386  19.8258286  48.5760384  19.0291538  20.1232376
  49.6575279  19.7499352  19.3474560  76.5308380  16.4686756  18.1670341
  76.2496796  16.1426525  17.3121147  77.4214554  16.1334076  18.2701511
  39.2075539  62.1189232  82.5762787  39.6444817  62.9493370  82.3872299
  38.2857628  62.3526764  82.6853256  16.5579033  45.7543831  55.6715050
  17.1609917  46.4614487  55.9007874  17.0624123  45.1896858  55.0859947
  70.0653305  34.1468124  60.9880028  69.1885986  33.8052673  60.8121681
  69.9141769  35.0208855  61.3476944  73.7107925  20.1683903   7.8707585
  73.5517654  20.5032787   6.9882665  72.8657608  19.8149757   8.1487064
  19.4563160  70.3975143  46.9714165  19.9621582  69.7164383  46.5281448
  18.6559219  69.9554138  47.2545204   8.2181301  45.3465271  -0.0043533
   9.1250639  45.1510544  -0.2399256   7.9254251  44.5755959   0.4816679
  69.4738541  54.2204895  19.8168659  68.7235870  54.8032646  19.6998234
  69.7346420  53.9840660  18.9267387  61.4869728  14.2656469   4.6281824
  61.0596924  15.0950985   4.4144721  62.4066963  14.4966221   4.7585568
  21.7542057  57.1732407  67.9450836  22.1218796  57.5448799  68.7469177
  21.8020267  57.8853111  67.3071976  70.2930069  62.9747925  63.0442886
  70.5329666  63.8485985  62.7358856  69.3806610  62.8679657  62.7751236
  62.8594704  49.9462891  65.2748108  63.2479820  49.9519539  64.4000168
  63.5894966  49.7435799  65.8597946  43.8229866  15.6077900  84.7363968
  43.4392929  15.1782827  83.9718475  43.1381340  15.5653858  85.4037857
  33.1011467  42.6934586  30.1697998  33.2487373  42.1734085  29.3798637
  33.3559456  43.5823441  29.9224415  75.6382065  65.7962036  57.1566124
  76.5055542  65.5432587  57.4727783  75.1649857  66.0643768  57.9442520
  48.3540192  28.7916603  89.4264069  48.3228951  28.5803871  88.4933319
  47.4427109  28.9633274  89.6636353  83.1275482  18.6089993  10.5015354
  82.3748245  18.3410015   9.9744549  83.8814850  18.4776249   9.9265995
  64.2958069  33.5773849  80.2876663  63.6672363  33.8668365  80.9489899
  64.3058777  34.2835083  79.6415024  18.4676895  44.6228752  43.4152412
  19.3865051  44.4072876  43.2554550  17.9780617  43.9769630  42.9060364
  34.9160538   3.2733016  11.5947990  34.2756844   3.3716054  10.8901749
  34.9300575   2.3335776  11.7763329  78.0067062   4.6196852  42.8211403
  78.2070847   3.7069421  42.6138229  78.5001678   5.1257958  42.1757126
  83.3124466  40.3982887  58.0722046  84.0960541  40.8488617  57.7572823
  83.4478989  39.4828644  57.8274956  60.0004082  32.5568390  83.7499771
  59.9834824  31.9489841  84.4892120  60.9201164  32.8092804  83.6684799
  28.5021725  40.8185577  86.1904907  29.0322151  40.0337868  86.0511322
  28.1875496  41.0532265  85.3174667  56.2919807  35.1088715  37.7357063
  55.9512520  35.0010986  36.8477173  55.5566978  35.4677925  38.2324600
   1.6803325  70.0205002  17.3410320   2.3803134  69.3722382  17.2634583
   1.0048805  69.5828171  17.8591328  23.1358356  66.4275055  70.8094635
  23.0147686  66.4544144  71.7585907  23.5233231  67.2756577  70.5932922
  80.9145050  55.4089279  32.4865227  80.5360260  55.0033112  31.7064819
  81.4173279  56.1509361  32.1506233  62.2838135  54.6720886  46.7202568
  63.0122757  55.0048256  47.2445259  62.6922989  54.3626099  45.9118004
  22.5219936  63.8140640  55.7698135  22.6311512  64.3798141  55.0054512
  22.6577206  62.9282379  55.4334793  20.3527794  23.6605759  18.9935722
  19.5500946  23.6017628  19.5117130  20.0488796  23.7839050  18.0943127
  48.6804123  25.0427532  89.0680847  49.3618813  25.7046928  88.9511642
  49.1572342  24.2142391  89.1174469   2.6316576  24.7955990   2.1285892
   2.6888654  24.7966518   1.1731008   1.6933621  24.8408375   2.3124013
  79.4980011  32.3687782  17.9363174  78.8679352  32.1696815  17.2437763
  79.0602264  32.0982513  18.7434120  73.2998199  23.3060684  35.3578377
  74.1026382  23.2851028  35.8786774  73.5885773  23.1172829  34.4649696
  36.4001160  53.1228256  28.3751087  35.7555161  52.7286530  27.7874413
  37.0395126  52.4275932  28.5302124  85.0723495  40.9519653  78.4540634
  85.3432159  40.1887016  78.9642563  84.4549408  40.6033859  77.8110046
   5.6641364  70.7818832  30.7594738   6.0970306  70.5981445  29.9257622
   5.8763728  70.0286484  31.3106709  31.7168884  65.1304398   5.2222595
  30.8019562  65.3927841   5.1207318  31.6740894  64.2179565   5.5082040
  59.0093536  67.4888306   2.2489901  58.5042572  66.6766052   2.2115386
  58.8986206  67.7985001   3.1479180  59.5823860  51.3779297  48.2471962
  59.7008324  52.1494217  48.8012733  59.5307808  50.6466599  48.8626747
  60.7849045  47.9180336  17.7569389  61.6664886  47.7962456  17.4045086
  60.8802223  47.7684746  18.6975651  24.1699600  50.8528938  32.8877220
  24.6833096  50.2495995  33.4250641  23.7123947  51.4068642  33.5201607
  71.5586777  42.7007904  61.8338737  71.7917404  42.4947395  60.9286346
  70.6455917  42.9842567  61.7875252  59.0142212   1.8959491   8.5958223
  58.8162575   2.8322668   8.6145477  58.1661415   1.4693372   8.7182760
  61.7145386   4.0670624   7.2301092  62.2344017   4.4911609   6.5473843
  61.6978493   3.1434157   6.9794502  24.0209122  61.2817917  39.9781075
  24.8396797  61.4464149  40.4458122  24.1015091  61.7869110  39.1690407
  46.0285339   5.5972824  73.5402451  46.3509026   5.0797849  72.8023376
  45.4371986   5.0066381  74.0068207  82.0214996  31.5410309   5.7350869
  82.1385803  31.8552322   4.8385367  81.0892181  31.3328209   5.7960877
  18.6711559  46.3485184  31.6582947  19.5514584  46.2318649  32.0156326
  18.6809273  45.8622169  30.8338890  20.0993443  56.2204895   2.2090056
  20.6662083  56.8578110   1.7745895  19.6400299  56.7262688   2.8794165
  15.5029287  45.0334244  73.6685791  14.8531647  45.1608582  72.9773483
  16.2776699  45.5022621  73.3584213  11.4902000  18.9690609  84.4751434
  10.8988342  19.6982574  84.2886276  11.9460106  18.8127651  83.6480789
  47.9915085  52.2760506  46.3243217  47.0742493  52.2761841  46.5979347
  47.9883308  52.7185478  45.4755478  41.7467384  27.5020065  82.2064896
  40.9945717  27.0199642  82.5501633  41.4806709  27.7645206  81.3252869
  21.9537125  42.3160515  69.8540802  22.4112377  41.8277283  69.1696548
  21.0666351  41.9564362  69.8526382   6.5082951  47.2925415   5.0988216
   7.2073202  47.8401108   4.7413850   6.6019392  47.3738708   6.0479522
  11.6403017  54.9316902  31.4472046  11.1525927  55.4510384  32.0864601
  11.2390432  54.0635986  31.4876919  66.4921646  53.5817642  71.0692825
  67.4056015  53.6116638  71.3538361  66.5383911  53.5992851  70.1133575
  42.1967735  37.8402939  19.0532436  41.6144447  37.1021652  19.2329426
  42.0691528  38.4320755  19.7946873  34.8806610  68.9132156  75.2698898
  34.1125298  69.4843063  75.2620773  35.5046844  69.3589401  75.8427429
  73.8425980  55.0410271  17.9067326  73.2683029  55.4649849  18.5444489
  74.6217575  55.5963669  17.8797054  16.4099274  62.9495583  48.6893997
  16.9568253  63.7301865  48.6013489  15.7921009  63.0064964  47.9605103
  26.1772232   1.5122687  70.6748734  25.7167091   1.2548108  71.4735489
  25.9733639   2.4415929  70.5698547   2.6909585  30.7433510  24.3240528
   3.1115294  31.6007862  24.2595863   3.2944236  30.1466827  23.8812790
   9.5405912  63.5923653  37.0196762  10.4673309  63.3673553  37.1018829
   9.0873871  62.9396019  37.5532837   7.6206145  42.9676933  75.6315002
   8.2097731  42.5799789  76.2786484   7.9592810  42.6664238  74.7884293
  48.6103668  54.9320679  50.1634674  48.0084648  54.2888260  49.7890511
  49.2032928  54.4158249  50.7095108  20.5850906  11.5788822  15.6063843
  20.1099243  12.2794952  15.1596298  20.9756374  11.0655451  14.8991432
  13.0226755  56.1022530   1.5806223  12.1263018  56.3131523   1.3193429
  13.0884600  55.1540947   1.4670472  23.9874630  61.8680267  59.0383911
  24.6081009  62.0506592  58.3329239  23.7727718  62.7289963  59.3973808
  48.0080147  40.8713875  32.6820259  48.4561234  40.0498276  32.8831902
  48.2537537  41.4593620  33.3962631  76.8771057  43.1558914  39.8645592
  76.5023651  44.0317764  39.9574127  77.8031845  43.2675896  40.0793686
  18.1997280   6.4057698   6.1762414  18.8486233   5.7706680   6.4792490
  18.4030342   6.5323148   5.2494807  52.7168655   6.3300190  10.5933895
  53.3848152   6.7640586  11.1241283  51.8881950   6.6887541  10.9109545
  19.4220295  40.2380638  81.4711533  19.4157829  40.5759125  80.5755768
  18.6299667  39.7039604  81.5311813  21.4816151  50.1319695  35.3140450
  20.5822144  50.4567337  35.3569260  21.7316799  50.2397461  34.3963928
  40.4600639  23.9939632  87.8911972  40.5536194  23.5264778  88.7212143
  39.8615837  23.4519196  87.3771515  39.5751762  16.2075577  12.8818464
  39.1238518  15.9487629  12.0783768  40.4854774  15.9481344  12.7394104
  80.7258072  35.0230370  55.0966759  81.6709290  34.8714561  55.0965118
  80.3531799  34.2125320  54.7495956  22.0914192  13.7181435  31.0553131
  21.7444077  12.9440231  30.6119709  22.9850426  13.8039312  30.7231884
  15.3400078  55.3966484   3.3259866  16.1860733  55.3303680   3.7687204
  15.5580053  55.6533890   2.4299991  30.4872665  38.4231529  76.8358459
  29.6138973  38.0612488  76.9857864  30.3879948  38.9747124  76.0598602
  77.9181595   6.6772037  73.5704956  78.0845261   6.3724298  72.6784973
  78.7867966   6.8687086  73.9240875  13.6471758  35.9291611   7.5086002
  13.5298548  35.3072624   8.2267303  14.3148451  35.5287743   6.9516978
  25.1058083  61.0169449   3.5067759  24.5520000  61.4749870   4.1390142
  24.8676434  60.0949097   3.6035304  82.0652008  46.3406944  46.7450523
  81.1160507  46.4564209  46.7893066  82.2912903  45.9006195  47.5644722
  69.5578232  58.9373589  85.5436249  70.1252365  58.2196045  85.8248749
  68.9668732  58.5391693  84.9045258  39.8344345  61.6968651  14.8410797
  40.5934830  62.1454544  15.2137032  39.1036987  62.2962227  14.9928169
   2.0859485  64.0435867  58.8137360   2.5240316  63.2591057  59.1437340
   1.5469190  63.7294464  58.0877914  76.1284790   2.4949372  70.2700653
  75.8206329   2.5239766  69.3641815  75.3409042   2.3199751  70.7851791
  21.6119156  47.8408661  68.8475876  22.4240036  47.3381729  68.7839966
  21.8141346  48.6767654  68.4273376  68.0104141  63.9899826  84.9499359
  68.7077866  64.4717331  85.3947067  68.1976395  63.0701485  85.1372375
  71.7643967  31.2636337  43.9038506  71.5900574  31.2415104  42.9629211
  72.1968307  30.4295483  44.0869942  49.7331810   2.1150818  44.9888458
  50.0399857   1.5777869  44.2584915  48.8904533   1.7312294  45.2311211
  76.4358978  31.7115326  59.4486504  76.4511032  31.6940670  60.4055710
  77.3443832  31.8785782  59.1976814  76.1497650  64.1619339  16.3896599
  76.6137695  63.3857880  16.0757599  76.4054184  64.2383728  17.3089161
  74.7189026  33.4065247  61.7791023  74.2189713  33.4626465  60.9647598
  74.0772781  33.1359825  62.4358826  80.5224686  36.8228760   5.6095037
  81.2982330  37.2672920   5.9514360  80.5005798  37.0587769   4.6820865
  17.7601643  41.7708092  76.9163742  16.8445759  41.6224823  76.6798859
  18.1849651  42.0083580  76.0921478  75.2015076  21.6841316  63.6829453
  75.8867340  22.2346516  63.3039665  75.6321869  20.8454399  63.8482857
  77.6302338  33.9260063  56.8768463  77.6876373  33.6275024  57.7845001
  76.9132996  33.4147949  56.5014763  74.3474274  46.3166122  24.9747429
  74.5268555  46.0168190  24.0835857  74.3768539  47.2715950  24.9166641
  36.0590286  15.7665319  55.3667946  35.9366684  16.0594311  56.2698288
  36.9409103  16.0595741  55.1373596  54.9804955  18.1571293  21.7293472
  54.4581146  18.8900032  22.0552959  55.2464523  17.6833763  22.5174179
  35.0436058  14.0451345  77.3734589  34.1450348  13.7761612  77.5643845
  35.1372185  14.8930082  77.8077164  18.4242611  41.4107056  27.0336742
  19.0555305  40.6912270  27.0425835  18.3318272  41.6367950  26.1081619
  79.7798080  60.8978691  15.8169107  79.8469086  60.1389771  15.2374182
  80.4583588  61.4972420  15.5061731   3.5344663   1.8281235  16.3321056
   4.2097888   1.1567054  16.4288998   2.7295046   1.3364559  16.1692219
  51.7898712  62.7075768   9.6055403  51.5626945  63.5221901   9.1571722
  51.0662460  62.5594368  10.2143517  80.1913681  59.1207619   2.4632049
  80.5309830  59.9333801   2.0883205  79.6482697  59.4048042   3.1984572
  53.1728020   5.3018794  67.0644455  53.5206833   6.1740303  67.2503586
  52.3456078   5.2665658  67.5447998   4.9799242   1.2482904  67.4109192
   5.8730769   0.9091377  67.3518829   4.5401874   0.9013476  66.6347122
  22.4132004  30.7694244  11.4135170  22.7893353  30.8288841  10.5353270
  23.1419868  30.4904308  11.9678316  14.2262506  49.5287476  36.9885254
  13.7910948  50.3176880  36.6653557  14.3841448  49.7051544  37.9159851
  33.3580589  57.8733368  77.4724579  33.2471275  56.9289780  77.5825043
  33.6432610  57.9768105  76.5646057  35.4046211  19.1186218  85.0997467
  35.4730988  19.6260262  84.2909927  34.8608284  18.3665733  84.8653488
  52.0517845   7.6444969  62.8571548  52.6783142   7.5940623  63.5790634
  52.3545074   8.3827639  62.3284302  17.9183426  15.5638742  59.1514206
  18.6374836  15.3673658  59.7517967  17.8799610  14.8063221  58.5675774
  38.3158989  56.9015083  16.1450939  37.8075714  56.9041519  15.3340282
  38.1138763  56.0588036  16.5516262   5.5965180  39.6163597  43.3712959
   6.0850949  40.2720490  43.8688812   5.5893588  39.9522324  42.4749870
  57.8543625  18.5165730  66.2346268  58.5461693  19.0519943  65.8460922
  58.3145714  17.7652855  66.6088028  52.9637947  44.7725410  15.4571018
  53.8818512  44.5292282  15.5762844  52.6046524  44.7941742  16.3441086
  76.7000046  69.3482895  12.4714222  76.4211349  68.4917526  12.7951651
  75.8832855  69.8186874  12.3042974  42.8743706  46.1226540  29.6202011
  43.7869987  45.9870491  29.8750553  42.3691139  45.8568077  30.3884926
  32.4733238  51.1317368  22.3894100  32.7817497  51.6003952  23.1649513
  32.5887794  50.2067413  22.6068516  47.2539482   7.8369823  87.1171646
  47.1629219   7.5307026  88.0194626  46.8954506   8.7244453  87.1281586
  38.5127182  68.9207458  36.3861351  38.0648155  68.5636215  35.6192703
  37.9355316  69.6179733  36.6975174  81.3969269  10.5070925  33.6675568
  81.1513596   9.5963440  33.5048790  81.7758179  10.8044147  32.8403473
   8.0983334  51.7995071  68.5987167   8.0001335  52.6757126  68.2260895
   8.8428345  51.4220581  68.1302338  19.0359802  11.8151188  32.2324982
  18.9360924  11.0068235  32.7354012  19.8986492  11.7385225  31.8248615
   5.2697897  30.2678699  87.5071182   5.0198922  30.2811146  88.4310226
   6.2269182  30.2726154  87.5177917  65.6645660   7.6222677  68.3224335
  65.7981110   8.5701027  68.3200378  64.8987503   7.4897008  68.8811798
  78.5147705  56.3179245   7.8673210  78.8525467  56.9843636   8.4656544
  78.9134064  56.5296974   7.0232391  19.4538441   9.1141682  49.7166901
  19.7787018   8.7124510  48.9108849  18.8418159   8.4712868  50.0749588
  66.5851135  19.7272797  64.8430328  65.8817978  19.4978523  64.2356262
  66.1792984  20.3357449  65.4605408  76.9591293  67.8413086  16.8489494
  77.7083817  67.4808121  17.3231754  77.0632401  67.5169296  15.9544268
  15.2990808  60.0253067  33.9401703  15.7972870  59.5416756  34.5990486
  15.0255051  60.8263550  34.3870583  36.1011925  66.3937302  31.7279396
  35.6006470  66.7374039  30.9879570  36.8217773  65.9091263  31.3252659
  65.6001511  24.5944519   5.0106759  64.6765366  24.6498718   4.7655287
  65.8587494  23.7047157   4.7704182  77.0935440  57.1802254  36.1365471
  77.7578812  57.3687019  35.4736977  76.7818451  58.0413857  36.4148865
   7.1162882  30.2501621  75.8191376   6.7444968  30.9208508  76.3920059
   7.7351751  30.7251396  75.2645111  56.8094063   1.9948312  52.8485832
  57.3007812   2.7371855  53.2002869  57.2577095   1.7763383  52.0315666
   3.2633424  67.7351303  17.6872692   3.3693116  66.7954254  17.5390873
   3.3002074  67.8332214  18.6387157  33.0902672  53.1122894  87.5652771
  32.9255066  53.5486946  86.7294312  32.2794838  52.6391487  87.7523499
  48.0880623  17.9727440  15.0851355  48.0659790  17.0232277  15.2041464
  47.3019066  18.2883339  15.5307741  86.5477448  35.2292290  65.7919769
  85.8770447  34.8272514  65.2398834  86.7879791  34.5432587  66.4148407
  72.0523071  53.3078117  31.7525101  72.8126450  52.9106903  31.3277664
  71.3336487  52.7017174  31.5724621  17.5868759  11.7499599  88.0559845
  16.6865273  11.8339033  87.7420502  17.8926544  10.9210587  87.6876755
  21.2411766  43.6396675  75.7951508  21.4747009  42.7694092  75.4721146
  20.3005867  43.5876923  75.9649124   7.7433505  47.9394379  60.3534012
   8.5298128  47.6643944  60.8246307   7.5608563  48.8187447  60.6846848
  19.9066391  61.5322800  64.5786362  20.1290684  60.6352615  64.3294144
  19.7359467  61.4841919  65.5192642  73.6321869  48.1119156  14.1310654
  74.0631027  47.8865471  14.9555349  73.0269852  47.3877258  13.9713526
  65.1695633  52.7756500  55.3717537  64.6925507  53.5071220  54.9797859
  64.8777084  52.0082283  54.8797035  66.5901794  70.3073654  16.1615009
  66.0723419  71.0863190  16.3647709  66.9512711  70.0331192  17.0044880
   9.8784618  11.2826071  41.0753899   9.3480148  10.8969021  40.3781891
   9.6178246  12.2034693  41.0930786  81.6014709  57.7798424  28.5599651
  81.7625732  58.7207870  28.6299953  82.4398804  57.4135857  28.2786236
  43.5348282  25.2859211  81.6882324  43.2185898  26.0709877  82.1353302
  43.0661087  24.5653152  82.1092529  24.1455460  59.8669777  60.8927307
  23.9102058  60.7094498  60.5040283  23.3478241  59.3419724  60.8276253
  77.5785217  26.0290394  67.0488968  77.4529190  25.8031120  66.1272583
  76.9996109  26.7775784  67.1930466  69.0730057  67.5892334  85.4911499
  69.9117661  67.7382126  85.9276276  69.2175827  66.8103180  84.9539185
  50.7846069  69.9239426  71.7878799  50.5621872  69.3987045  71.0191956
  51.3378563  69.3502808  72.3180313  19.7431583  36.2845154  17.2540436
  18.8871346  36.6593399  17.4613132  19.6766796  36.0299644  16.3337097
  73.1087112  28.7699375  14.0004253  72.3935394  28.7392349  14.6358995
  73.7586365  29.3486671  14.3990459  72.8712616  56.4947166  56.5816383
  73.8211823  56.3888092  56.5300407  72.5205765  55.6467552  56.3092155
  72.9032135  11.5886869  54.9231453  73.1835709  11.3507595  55.8069000
  72.0597153  11.1497755  54.8131561  69.7389908  61.0652122  70.9868011
  70.3561172  60.4636040  70.5703278  69.0111618  61.1278839  70.3682785
  68.2359161  61.7667732  86.4441452  68.5185928  60.9458961  86.0410461
  68.9663467  62.0205498  87.0083237  44.0332985  69.7934799  29.5214787
  43.4043121  69.0719986  29.5297699  43.8289948  70.2984009  30.3085918
  56.2184181  71.6037216  38.8925400  55.7532883  70.9842377  39.4547882
  57.0892830  71.2215271  38.7841225   2.9571376  15.0483961  32.0828514
   3.3412349  15.0469656  31.2060947   3.6550426  14.7215900  32.6506157
   1.2179519  46.9299202  48.7813148   1.5891477  46.0628662  48.9446030
   1.2460488  47.3666801  49.6326027  56.7005806  25.9815998  15.5358152
  56.0257187  25.3412781  15.3104639  56.3799210  26.8061752  15.1704597
  25.1692619  65.3443604  87.1624756  25.2910843  64.4163742  87.3630524
  24.2824783  65.3979797  86.8061447  73.2081604  50.8192863  45.0229607
  73.3934402  50.5801544  45.9310989  73.3904114  51.7580147  44.9805107
  85.3779221  50.9328384  37.4747734  84.8959198  50.9198151  36.6478920
  85.4202957  51.8590164  37.7127457  36.1860390  23.3680878  84.8278656
  35.5275955  24.0333633  84.6276321  35.7554016  22.7855759  85.4535370
  82.7879257  38.6619797   2.3776660  83.2031403  38.0004463   1.8243093
  81.8914566  38.3476601   2.4950662  55.3508606   1.4670914  81.6987076
  54.4872704   1.4459457  81.2863998  55.6755638   2.3514538  81.5292892
  26.9292240  65.0904465  83.5125580  26.5567131  65.2845612  84.3726654
  26.3033695  64.4877243  83.1109772  43.0797882  59.0896530  75.0867310
  43.5459213  58.3242798  74.7503510  42.2821159  59.1350708  74.5595779
  55.7335663  13.5627937  69.9378662  55.1393738  14.2649717  70.2026520
  56.6022568  13.9643688  69.9564896  31.4704666  21.8286114  15.0082703
  31.5321083  20.9199028  15.3026848  32.1412506  21.9066181  14.3298912
  36.5030937  32.5967026  81.9627991  36.4759140  31.9412727  81.2657318
  36.3990784  33.4331818  81.5092316  83.3259659  12.2774134  27.7890015
  83.7772293  11.8971586  28.5426579  83.5682220  11.7128973  27.0549259
  11.8790035  70.8318176  12.9605961  12.5969582  70.1987457  12.9597721
  12.0087929  71.3421936  12.1612806   3.0311151  19.5095730  77.3264236
   2.1172860  19.7516193  77.4766312   3.5351863  20.1736927  77.7966232
  24.5380592  63.0370331  74.4979935  24.8287411  63.8523102  74.0892639
  24.5114727  63.2346535  75.4341888  31.6417370  13.7975960  83.2194824
  31.4750824  14.7401762  83.2187042  31.1061058  13.4602575  83.9374847
  52.2172508  52.2377281  28.1975861  52.6757889  51.5738144  27.6826153
  52.1810684  53.0030708  27.6238518  27.9240265  68.3432465  39.0656662
  27.9295139  67.3924561  38.9552002  28.8122845  68.6161804  38.8360214
  66.9103012  65.0196304  76.6825562  66.7533264  64.8947983  77.6185074
  67.1009674  64.1416016  76.3524780  66.6988525  27.1276741  60.3595161
  65.9354935  26.5760441  60.5304298  67.4398193  26.5218410  60.3722229
   6.8684082  44.2612114  81.5945816   7.8128624  44.3669472  81.4803085
   6.5912623  43.7481422  80.8355179  51.4553261  31.9776325   3.2106414
  51.2808304  31.2949028   2.5628269  51.1138077  31.6221695   4.0311546
  45.7079201  25.2264004  88.8779144  45.3161659  26.0515156  88.5916519
  46.6248016  25.2911930  88.6107788  52.5766373  15.0795240   0.6782914
  52.3642960  14.1643639   0.8616620  53.5292892  15.0904522   0.5857434
  57.6000633  45.8789558  37.9952126  57.7583046  45.9301147  37.0525703
  57.2276344  45.0073242  38.1285973  39.1968269  66.2392654  18.5742359
  39.5799866  65.4330292  18.9197826  39.4089394  66.9048843  19.2285995
  52.1793633  65.7433319  50.8607941  52.8318291  65.7182770  51.5607185
  52.3187447  66.5884857  50.4335709  80.8072433  11.2512102  51.6425667
  81.6153488  11.7587643  51.7172356  80.4043655  11.5603256  50.8311653
  22.1500435  43.5604401  10.2862968  21.8328075  42.7270508  10.6342230
  22.5618534  43.3309860   9.4532328  15.0812664  25.9291210  15.4112949
  14.4507113  26.6408405  15.5212326  15.7249393  26.0700188  16.1056042
  45.3524971  48.4881096  37.4693604  44.4938431  48.0662193  37.5002975
  45.2201843  49.2605095  36.9197044  12.3428316  35.4981956  21.9059010
  11.8529091  34.7045860  21.6905136  13.1733007  35.1786575  22.2586746
  68.2887344   5.6456714  16.4632759  68.7809525   5.6208100  17.2838459
  67.3820953   5.7936869  16.7322159  53.8837433  60.8676758  29.9939480
  54.4315109  60.1347885  30.2751198  54.3472214  61.2388763  29.2431927
  68.0954819  15.7908354  63.7067108  68.8360443  16.3350773  63.9743004
  68.3344345  15.4724426  62.8362160  32.1962662  10.6767502   1.0927912
  31.4955578  10.0486412   0.9175258  32.1908188  11.2596750   0.3335803
  85.6679535  45.8845329   5.3167267  86.2260208  45.1078224   5.3557138
  84.8648758  45.5814285   4.8931370  70.8327332  54.1229134  81.1799622
  71.2215347  53.8686295  80.3430634  70.5034714  53.3037567  81.5498276
  34.0061302  56.5327721  87.0848312  33.1855469  56.0853958  87.2915421
  34.3983536  56.7198753  87.9376984  54.7864838  36.3946762  25.1302872
  55.1967964  36.9326591  24.4531975  55.2199974  36.6591034  25.9416924
  71.0000839  44.2964020  88.5514908  71.5305328  45.0198174  88.8854370
  70.5494690  44.6614418  87.7899628  -0.2308888  49.1278458  73.7121658
   0.4544203  48.6313744  74.1594925   0.0546965  50.0393677  73.7737961
  17.2175465  64.8147659  27.9737720  16.5186443  65.4686050  27.9900684
  17.0683155  64.2850876  28.7569733  14.1888905   6.0978107  50.2594910
  13.6918211   6.6427460  50.8695717  15.0511150   6.5113111  50.2168617
   9.3497887  58.0476646  15.5261259   8.7433119  57.4810600  16.0029659
   9.3899994  57.6698647  14.6475582  70.6381378  51.1530685   3.5864925
  70.1324005  51.8271027   4.0405202  70.5086212  50.3626823   4.1106582
   7.3561845  16.3153763  14.7489243   7.0885959  15.7138042  15.4437180
   7.8520250  15.7702951  14.1379738  74.3449554  12.3536682  45.1429558
  74.4367828  11.4742308  45.5095482  75.2332077  12.5992565  44.8842392
  64.3473816  35.4130096  74.7587128  63.6451492  35.0099602  75.2692490
  65.0540085  35.5499458  75.3897095  13.2860365  15.0402651  20.6866932
  13.1619101  14.6865368  21.5674324  13.4017200  14.2683220  20.1326599
  50.5411949  68.2532578  67.1913986  51.3204765  67.9114532  66.7530746
  50.8824425  68.8626251  67.8459549  17.4049129  24.1757793  77.7743835
  16.5522079  24.6037693  77.8515244  18.0296535  24.8975410  77.7037354
  71.0007477  22.2653141  32.4797974  70.9251709  22.7790928  31.6757126
  70.0990143  22.0324078  32.7008553   9.2051172  49.3777351  41.3553085
   8.4648380  49.0469208  41.8640099   9.9128971  48.7578697  41.5315094
  44.8261795  63.0273514  65.0552521  44.6867104  63.4371948  65.9089508
  43.9672508  62.6817360  64.8123016  59.4808006  53.4992561  46.0442314
  59.0295486  54.2582550  46.4137192  60.2574120  53.3916130  46.5933380
  74.9946823  53.3280869  63.0974121  74.3074799  53.8064957  63.5612068
  75.2217712  52.6064949  63.6838989  31.0564060  33.6133804   8.3416443
  31.3914852  34.2752647   8.9465122  31.4476261  33.8399773   7.4979415
   9.1736412  11.7717762   2.4137084   9.5815077  12.2911520   3.1066194
   8.8412457  10.9938641   2.8615890  13.6697712  45.1482239  71.6679993
  13.5759382  44.7194824  70.8173523  13.4652977  46.0675125  71.4967270
  29.4022045  69.0505142  42.2722893  29.1035347  69.3187637  41.4033394
  29.6093235  68.1207733  42.1779213  77.7259979  67.9452286  55.1517029
  78.2655411  68.2692413  54.4304962  77.4876938  67.0554199  54.8915482
  61.6666985   9.5906115  58.1345940  62.4811516  10.0545368  57.9404984
  61.7128029   9.4081488  59.0731087  49.1838684  57.5669899  26.3737202
  49.5698242  56.7330780  26.1056461  48.6947975  57.8624306  25.6057625
  83.8510437  46.0640602  87.7098846  84.5225525  46.7258492  87.5445328
  83.0387573  46.5631866  87.7952652  63.0523224  15.3151970  29.0841217
  63.8843651  14.8477345  29.0105019  62.6682434  15.2598124  28.2091084
  19.4523087  12.9516068   4.4590540  18.5355167  13.1519852   4.2704444
  19.4156418  12.2890415   5.1489053  81.2393723   0.3670400  18.5328007
  82.1536102   0.4456237  18.2603569  80.7537155   0.2629413  17.7145500
   1.4041095  59.3732719  25.6718731   1.0855030  59.6433487  26.5331402
   1.2548326  58.4281158  25.6468430  25.5094738  20.1319504  18.4291229
  26.3145447  19.6629486  18.6485023  25.3879356  19.9742107  17.4928665
  60.6841736  65.0118713  28.6677361  61.4907722  65.2792816  28.2271481
  60.1059341  64.7305145  27.9587154  35.3740273  62.8816032  45.2957649
  34.8153114  63.5473862  44.8947601  34.8158646  62.4639168  45.9516792
  51.9629097  61.7081566  16.6708393  51.3174629  62.2951279  16.2770233
  52.0371361  60.9829788  16.0504837   8.9358358  15.6479282  27.2680931
   8.7481737  15.6773682  28.2062550   8.4853001  14.8622770  26.9582539
  19.2266388   3.3443203  56.9225121  19.0777760   3.1170905  57.8403587
  19.6523800   4.2010536  56.9538803  68.1342850  16.7103882  39.4574661
  69.0657578  16.5369606  39.3213654  67.9603958  17.5001926  38.9454079
   9.1267481   6.8211613  17.3444710   9.2601194   6.8858590  16.3988190
   9.9487267   7.1317639  17.7240868  59.4479942  13.7799540  86.4212723
  59.5312386  12.8363047  86.2840500  59.0650177  14.1074610  85.6074524
  83.9054489  37.4503822  70.1661987  84.7119370  36.9990845  69.9169083
  83.6947479  37.9991493  69.4107590   3.8169968  37.5780334  24.4799194
   4.6733179  37.4531021  24.8889885   3.7863798  36.9222794  23.7832985
  38.8967056  28.9428196  18.8568192  39.3685684  28.6390266  19.6322479
  39.2328148  29.8256874  18.7025204   4.7727695  36.1347351  74.1069031
   5.1065488  36.9954529  74.3598633   4.7279210  36.1666183  73.1512909
  22.1647472  66.9951248  66.8612442  23.0349636  67.3831711  66.7697144
  21.7390213  67.1606216  66.0200577  46.1229362  17.1234303  86.9207764
  46.3321075  16.3298569  86.4281082  46.1605263  16.8527203  87.8381271
  61.3902512  63.0539017  31.6421661  62.3425369  63.0172615  31.5525036
  61.0583878  62.6590576  30.8358192  63.0298882  12.4005251  23.0670452
  63.7411690  11.7969027  23.2814083  63.3890610  13.2686491  23.2503071
  31.8631153  48.3624458  10.3294144  32.5816383  48.8322868  10.7527390
  31.1624641  48.3584061  10.9815683  50.0009499  19.9081993   2.2385037
  50.5212631  20.6796646   2.4628861  50.5870514  19.1688118   2.3998141
  74.7992706  51.2989388  22.4668312  74.2047958  51.2158813  21.7212181
  74.3745422  51.9353065  23.0420513   2.2307615   1.9590806  51.2689705
   1.8937184   1.0639485  51.3060150   1.4481987   2.5076146  51.2147713
  10.4610548  62.7957954  81.6485367  10.1611509  63.6955605  81.7778244
   9.6584139  62.2937698  81.5072327   9.1430893  30.3150444  86.6944885
   8.5070906  29.6006489  86.6573944   9.7721376  30.0412807  87.3620148
  28.0367241   4.7512951  79.7629242  27.3877449   5.0615187  79.1314011
  28.7087898   4.3290443  79.2278900  28.1667118  57.3865852  50.0465050
  27.3500633  57.8335609  50.2690544  28.6429176  58.0143280  49.5030022
  52.9057732  58.0274086   9.4994650  52.3146858  58.7135658   9.1895685
  53.7804718  58.4049950   9.4069204  74.3441238  33.0545845  74.9983673
  74.1347961  33.9764519  75.1486130  73.6864777  32.7591858  74.3686981
  41.3534813   3.2936275  53.0954437  41.7775192   3.8775208  53.7243271
  42.0048103   2.6137314  52.9229774  56.5094528  69.5037766  32.6023331
  57.2645264  69.1376266  33.0628052  55.7957840  68.8940887  32.7899246
  63.7801781  33.2950630  54.2437286  62.9719048  33.6501312  54.6136627
  63.7019730  32.3483925  54.3617439  37.8051338  51.6724472   0.4035787
  38.4312973  50.9519577   0.3325190  38.3411484  52.4628563   0.3389829
  36.3016815  35.7093544   4.2334733  37.0690613  36.2303772   4.4698997
  36.6153030  35.1178474   3.5493736  65.5851517  69.4748917  78.9360046
  66.4921188  69.3150101  78.6750870  65.6541824  70.0087891  79.7274704
  75.7012024  69.7197113  86.2110367  75.7738571  68.8525543  86.6097794
  76.6043015  70.0305252  86.1474762  78.8839645  28.2310219  38.1649246
  78.3796234  28.3494530  37.3600349  78.2864075  28.4978809  38.8634529
  83.8210602  28.8377247  61.9407043  84.7632751  28.6961422  61.8489113
  83.6027527  28.4536324  62.7898483  30.7206821  59.9648247  55.0770645
  31.5263290  60.2334785  54.6354866  30.6634331  60.5387497  55.8409767
  11.1556187   7.0074601  28.3304787  11.2918968   6.3996053  29.0572319
  10.2220144   7.2159295  28.3644485  64.6192703  53.6729240  14.3472691
  64.9904251  53.6213989  13.4664640  64.0227585  54.4207191  14.3124504
  84.7923813  15.8288660  11.5424747  83.9727631  15.8328428  11.0480642
  85.4709015  15.6971388  10.8802891  27.7611446  61.2480049   3.0115390
  26.8112411  61.2473068   3.1295042  27.8957481  60.8540268   2.1496267
  68.4485703  12.1425591  63.5985641  68.8157883  11.2672806  63.4750023
  69.2018890  12.7296047  63.5343475  21.7188396  38.0299072  61.6354218
  21.6583900  38.8156624  61.0921249  22.1387119  38.3282814  62.4422150
  31.5855293  50.4624176  72.6936798  30.9400711  50.9887657  73.1654510
  31.0627480  49.8736420  72.1493683  17.9701214  61.9290771  26.5059090
  18.7102280  61.8375664  27.1059933  17.9970531  62.8453636  26.2303734
  54.7527809   9.3470955  34.9891853  54.1586151   9.1927309  34.2547684
  55.4244804   8.6709995  34.9000359  45.9197044  63.9210663  73.1715012
  46.7230415  63.9590302  73.6905823  45.9987144  63.1116104  72.6667557
  37.0434341  59.8525391   0.9960033  37.3765450  58.9926682   0.7393122
  36.0941582  59.7813187   0.8958468  82.9204941  65.0349350   9.5180979
  82.5077896  65.6256180  10.1481752  83.7789230  65.4242630   9.3515186
   3.3255601  22.1828175  59.0889130   4.0087337  21.7679596  58.5622253
   3.6149867  22.0636425  59.9934883   3.0728755  31.6210098  59.1537170
   3.4252486  32.4967728  59.3121643   3.2994010  31.1256714  59.9408379
   0.7012063  12.8179750  11.7975197  -0.0969515  13.2621641  11.5113869
   1.1313968  12.5514641  10.9850302  83.7753677  20.9310856  42.4874725
  83.7133331  21.7869530  42.0633621  82.8752441  20.7214050  42.7365570
  23.4112473  12.2108440  16.8350239  22.4616146  12.1468449  16.7333622
  23.5374279  12.4716110  17.7473354  21.4577942  53.8275223  75.3601990
  22.2785587  53.8128242  74.8678970  20.9687805  53.0724487  75.0331497
  27.8067703  29.1065083   4.6734500  28.2495003  28.3846054   5.1196327
  27.4375553  29.6349716   5.3810086  32.9842033  37.1983070  11.4214602
  33.7753906  37.1147079  11.9536877  33.1724739  36.6919289  10.6312914
  79.7506714  15.9658489  -0.0481850  78.8029099  16.0045033   0.0801987
  80.1168060  16.3191586   0.7625865  13.8287754  46.4595375  63.1618881
  14.6350861  46.0024109  62.9228783  13.2198277  45.7612534  63.4023247
  77.5729065  19.9564590  28.0025692  78.1813736  20.5871410  27.6175518
  77.1015930  20.4551048  28.6699905  58.3403091  22.9583778  42.0354996
  58.4877357  22.0412292  41.8045502  58.9598999  23.1293316  42.7448044
  85.1206055  64.1409836  57.8984070  85.8329926  63.5191956  57.7496834
  84.8026657  64.3552094  57.0213394  65.4000702  31.5761604  66.7058182
  64.7510986  31.7457771  67.3886795  65.0840912  30.7869987  66.2658081
   6.1813259  41.3395462  48.9968262   6.2533464  40.3852234  48.9790649
   6.9748249  41.6313095  49.4456749  57.0701866  58.7428818  67.3051224
  56.4866333  57.9925690  67.4179688  57.5411720  58.5598564  66.4921646
  64.0626907  70.0600433  19.0424576  63.7940979  69.6796417  19.8787479
  64.2225723  70.9830017  19.2394924  60.0428619  20.4701767  79.2083511
  59.7934036  19.9447231  79.9685440  60.4545937  21.2498989  79.5808258
  49.0998726  68.5173187  61.5178299  49.5538559  69.3461227  61.3654518
  48.3117485  68.5730591  60.9774704   4.4674306  10.8918238  54.7295227
   4.4672589  10.8634939  53.7727432   5.3333364  10.5686779  54.9785538
  79.0138474   7.2030859  60.9590225  79.5784607   6.7559853  60.3285141
  78.9077988   8.0849829  60.6023102   7.3145437  32.4364510  57.6341057
   6.6809330  33.0081444  57.2005959   7.4181423  31.6965294  57.0357590
  62.1967354   5.3746505  13.0539141  62.4662666   5.8010039  13.8674288
  61.6006699   4.6799102  13.3336916  27.0420666  46.9303627  18.6477184
  27.4550877  46.1446037  19.0058136  27.7687836  47.4423828  18.2928257
  83.4425735  39.5190697  64.6868591  84.3336182  39.2076225  64.5278778
  82.9227448  39.1257629  63.9859200  21.2842655  20.2872372  70.6422806
  21.1294670  21.1146641  70.1866150  20.4466782  19.8264961  70.5933151
   3.3080423  64.0549393  11.1653004   2.3750105  63.8497353  11.2250900
   3.5525775  64.3187637  12.0523357  61.3243446  11.1451836  21.3482780
  61.7127838  11.7013521  22.0235710  60.7403717  10.5579958  21.8282967
  42.6071777  12.2250166  10.8453407  43.3145027  12.8593025  10.7287016
  43.0119934  11.4995728  11.3208256  73.6640015  14.1450405  64.4661331
  72.7139130  14.1216488  64.5802078  73.8176117  14.8932104  63.8891792
  62.3741150  71.3189087  42.7617836  61.8954735  70.5163651  42.5542717
  62.9255371  71.4739990  41.9948997  53.8945541  61.7311974  44.8656540
  54.5082855  62.2590065  45.3765144  53.2547379  61.4207039  45.5063286
  13.8866062  27.6700153  58.8330765  13.1949444  27.8848324  58.2072220
  14.6940374  27.7091064  58.3204765   6.5581589   1.5137441  73.8596954
   7.2250023   1.6767710  73.1926270   7.0396738   1.1242868  74.5895538
  28.8992252  64.3458176  53.0427628  29.0307751  65.0108490  52.3669930
  28.8922539  63.5166130  52.5646400  64.2668152  53.3176498   3.0892787
  63.7129059  52.7972107   2.5074184  63.7120514  53.5009041   3.8474927
  46.5261002   1.5564229  78.6349335  46.2156143   1.5428287  77.7295914
  46.6231117   2.4861457  78.8409348  36.4158058  10.6011858   2.9083967
  36.2711487  10.6125126   3.8545351  37.3312531  10.3397560   2.8091798
  70.2652435  22.1133003  80.0270767  70.6337051  22.9832668  79.8733749
  69.5525131  22.0395107  79.3924026  46.3761902  36.4666252  43.6545219
  46.8248863  36.0832253  44.4081192  46.5299644  35.8454247  42.9426994
   0.9531359  31.3893356   5.4190822   1.3027323  31.8326378   4.6461024
   1.6216277  30.7434883   5.6476231  82.9419556   0.7010428  66.9868927
  83.8972321   0.7589812  66.9686584  82.7477341   0.1945317  67.7755280
  11.0906496  43.9761009   3.5022650  11.6622782  43.4355164   4.0474620
  11.4119282  44.8686867   3.6299391  39.5510864  44.1050072  10.4364157
  38.8537598  44.3556747  11.0423288  40.2046242  44.7989883  10.5230770
  56.0257530  65.7989502  64.9166107  55.9773140  66.6703110  64.5233994
  55.4131088  65.2708130  64.4047775  36.5498772   6.3273659   8.1478920
  36.9926567   6.0728111   8.9574490  36.2172432   7.2075834   8.3234024
  44.4651718  58.4597816   7.4354224  45.1242027  58.4828720   6.7416077
  43.6645164  58.7746048   7.0158195  25.5700989  70.0183029  58.9652367
  25.1147156  70.6679077  58.4296303  25.9799652  70.5285873  59.6636963
   2.5011098  69.8702087  37.0924339   3.0606859  69.4700623  37.7580070
   2.7916768  69.4790649  36.2685318  24.3818188  67.0851288  44.2580948
  24.9895878  67.5680771  43.6980896  23.6576443  66.8493881  43.6782417
  65.6568222  22.6603184  17.6280060  65.1264267  22.7626934  16.8378010
  66.4028854  23.2446289  17.4930649   7.3256655  36.9187584  83.4872971
   6.9121313  37.6937294  83.8676224   7.9760251  37.2687836  82.8784103
  78.8189392  14.0679817  52.9123383  78.7926712  14.5521402  53.7376442
  79.5929108  13.5097017  52.9866982   0.7055446  54.1756325  24.0948219
   0.9294430  54.6470375  23.2924023  -0.0333179  53.6195450  23.8476791
  85.7047958  67.8330154  55.5655441  85.5593185  68.7717743  55.4481239
  85.7230148  67.7103348  56.5146751  47.4028130  63.0349693  18.8084068
  48.3267097  63.0731277  18.5610390  47.3460274  62.2913246  19.4084053
  46.8718414  68.4334335  77.6918869  47.1680527  69.3409271  77.7622528
  46.1210175  68.3800278  78.2832031  13.0350819  68.9340210  48.8490334
  13.5128899  68.7605972  49.6601143  12.1701155  69.2247314  49.1380806
  11.9335012  32.5595207  14.7199354  11.3303757  33.2935715  14.8367310
  11.4282751  31.9098549  14.2311487  15.0097637  15.6561899  36.9505730
  15.4100437  15.1273603  37.6407509  14.2994423  16.1244869  37.3891754
  63.2448578  55.1686745   4.8572555  63.2951698  54.4715996   5.5113101
  62.3308449  55.4521027   4.8791122  15.4618111   7.9484239  88.8427658
  14.7222595   7.4561577  88.4864426  15.3173723   8.8466196  88.5450897
   1.3194466  24.9800034  68.2149582   0.4913933  24.5568256  68.4418488
   1.9393897  24.6600933  68.8703690  12.3426008  11.3774853  57.9477997
  11.4422617  11.6465864  58.1300201  12.5062037  11.6782055  57.0539093
  80.0762024  52.6932602   1.9188440  80.0696030  53.5570488   1.5064620
  79.4394684  52.1837196   1.4176794   7.7711654  20.1334076  41.2369385
   7.1806574  19.6649456  41.8269157   8.0129032  19.4850903  40.5755157
  52.0326843  31.8892117   9.9449797  51.6085472  32.6748924   9.5999498
  51.6252441  31.1672897   9.4663858  84.1435165   1.4070387   4.4743266
  84.1637726   1.1191558   3.5616686  83.2535095   1.2115608   4.7674303
  83.2237473  31.2164536  38.9673271  83.8222656  31.4294071  39.6833305
  83.7477875  30.6864738  38.3667107  54.5321198  19.2836685   2.6409028
  55.4093857  18.9393082   2.4733996  53.9696007  18.8170643   2.0227730
  26.6835938  66.9214325  13.1475048  25.8489380  66.8666077  12.6821270
  27.3405132  66.9861526  12.4543247  24.2459335  32.3231773  79.9911957
  23.3249130  32.4281731  79.7525940  24.3915272  32.9749947  80.6768799
  50.5338821   4.0119429  35.0203857  50.3904266   3.9951277  35.9666252
  49.8099976   3.5002680  34.6592598  55.9656982  49.6291275  87.7726212
  56.4846535  48.9601440  87.3260956  55.1223679  49.2074738  87.9376526
  85.5156784  52.1569443  55.8720131  84.5747910  51.9814644  55.8851547
  85.5956268  53.0015793  55.4288025  64.0962448  19.8331890  83.8636017
  64.0588226  20.7799091  83.9998016  63.5447617  19.6795959  83.0964584
  51.8241844  11.0851278  28.1311703  51.4969406  11.4556475  28.9508400
  51.6310844  10.1499300  28.1971226  34.9940414  42.4305267  14.7078753
  34.7316666  42.2663956  15.6136646  35.8023148  41.9296455  14.5981369
  42.2023659  33.2924690  83.5886917  42.5911827  33.4779739  82.7339172
  41.4811745  33.9172668  83.6644440  57.0765724   9.2426901  23.4169025
  56.6946259   8.3876400  23.2188225  57.2973671   9.6104231  22.5611839
  59.1771851  28.6270390  27.6823006  59.7323875  28.2037716  28.3371506
  59.7538033  28.7614002  26.9301758  72.2196121   4.4167137  80.2406082
  71.8781967   3.9246798  79.4938965  72.6049042   3.7508821  80.8102112
   1.2493230  31.7830353  85.1081848   1.8601567  32.2961845  84.5792313
   1.6640693  31.7301426  85.9692459  27.8270607  64.3441315  68.4409103
  27.7358360  64.5011063  69.3807373  28.1675491  65.1680527  68.0924072
  36.2571907   6.6685891  87.3949356  36.4722824   6.7917862  86.4703903
  35.4752998   7.2034001  87.5322723  63.4324188  61.4124031  27.9671822
  64.1256027  60.9131279  28.3989868  63.8399429  62.2514000  27.7521362
  16.7511139  44.6823425  81.1839294  17.6425285  45.0279045  81.2308426
  16.7585068  44.1032982  80.4217682   0.2397513  40.9021645   7.0341988
   0.3388923  41.1722946   6.1212735   1.1163362  40.9937477   7.4076200
  44.2690582  69.7773056  65.9808426  44.9337578  70.3001556  66.4292145
  44.7228241  68.9702606  65.7379303  32.4879112   7.4919271  69.1006622
  32.0333443   7.2294488  68.3002243  32.0549011   8.3029642  69.3670349
  68.5781860  25.0958157  74.6374817  69.2653046  25.5326958  74.1342621
  69.0036621  24.8470268  75.4580383  67.9812469   1.5479442  49.4280739
  67.8866577   2.0141137  48.5974312  67.2470398   0.9339921  49.4431305
   3.0938950  14.8591595  42.0408707   2.5207994  14.9471493  41.2792587
   3.9767728  14.8205423  41.6730843  15.1618004  61.3168755  26.3622112
  15.3401260  61.1782837  25.4320354  16.0102234  61.5552673  26.7358150
  14.1615429  57.2621498  63.3761635  14.4379005  57.7957230  64.1212540
  13.9210901  56.4194183  63.7611542   7.7697453  56.4320259  31.9774914
   8.4392891  55.7726936  32.1597710   8.1679592  57.2591133  32.2487488
  68.3129349  20.1707859  56.5854034  67.5663605  20.0112286  56.0079918
  69.0797043  20.0272827  56.0306969  24.3604107  25.6381359  87.3142548
  24.3951874  24.7010841  87.1220169  23.4844036  25.7763958  87.6744385
  58.9126663  61.2690048  23.0139294  58.7438736  61.6334305  22.1450596
  58.9151192  62.0288734  23.5960197   9.3667288  27.2230835  41.2484741
   9.4554768  28.1525536  41.0376625   8.6249027  27.1841736  41.8521385
  73.4700928  32.2035446  55.4085159  73.0989761  33.0557137  55.6372261
  72.8853989  31.5687618  55.8225441  76.6072083  67.8021622  66.1609650
  77.1192474  68.1284256  65.4209671  77.2610397  67.4768448  66.7797623
  77.6765747  27.6640530  48.6730080  77.8089981  27.9822826  49.5659943
  78.1458588  26.8302975  48.6438026  71.1480026   2.6089776  31.7088413
  71.3841705   2.0380371  30.9777584  71.5738373   2.2130494  32.4691963
  17.5537262  65.2619324   2.2204988  17.1946945  66.1409760   2.0996304
  17.5061703  65.1115189   3.1646099  48.4814034  58.7888565  30.3698082
  48.6082687  59.2529182  29.5422916  48.3341370  59.4822006  31.0130959
  39.1913986  71.6830063  13.1034184  38.7508011  70.8645325  13.3319225
  38.4796181  72.2879868  12.8946257  86.4894714  26.1926823  65.9779510
  85.6524124  25.7549515  65.8231735  86.8869247  25.7020206  66.6973343
  67.0133667  11.4300556   1.0191509  66.9545135  12.3051081   0.6356786
  67.8845367  11.3999519   1.4146062  26.9230309  37.2800446  86.8530731
  27.7240372  37.2925911  86.3291779  26.9454899  36.4364471  87.3048172
  58.9095306  16.4010296  20.4402618  58.7672462  16.3996525  21.3868256
  59.8600693  16.4545002  20.3410206  78.9498291   0.6160902  75.8536987
  79.4757080  -0.1836040  75.8667984  78.5253220   0.6376643  76.7113495
  85.3492813  11.2938766  29.4351807  85.0268784  11.1487455  30.3246861
  85.9457245  12.0382576  29.5150776  24.9263134   4.7798581  49.1991234
  25.2474327   5.5931950  48.8097687  25.6284733   4.1475477  49.0461960
   9.6327333  16.0703487  80.5877991   9.9564466  16.8313789  80.1058502
   9.3663158  16.4207115  81.4377975  35.3693199  57.5337219  10.4230661
  36.3194389  57.6435165  10.4611378  35.1509171  57.0577545  11.2243080
  29.1290455   1.8007369  64.7872620  28.5059967   1.1704326  65.1488647
  29.5881310   2.1491241  65.5515289  48.7408104  62.9048805  35.7577972
  49.5650330  62.9174042  35.2712440  48.9616432  63.2747002  36.6126022
  51.9010582  27.5671329  69.2369843  52.7741928  27.2433186  69.4583664
  51.5097656  27.7963619  70.0799408  75.6558075  23.9697857  43.4294968
  74.8223801  23.7975559  42.9913521  75.9804840  23.1036282  43.6756401
  12.0158987  41.0255699  20.0407677  12.1365709  40.1422882  19.6922207
  12.5364170  41.5840759  19.4633904  32.7720108  69.4552231  12.3876133
  33.4889946  69.4022980  11.7556639  32.0879097  68.8949051  12.0211697
  47.2332573  42.7181778  40.2404099  46.8157997  43.1016159  39.4690933
  48.0405159  43.2206116  40.3505058  31.7061520  15.8972998  31.7932816
  31.0038757  15.5669136  31.2330265  32.0446625  15.1195374  32.2368202
  21.9675560  40.5786743  63.1822243  21.4205837  41.1988258  63.6643715
  22.8016701  40.5796127  63.6517830  78.2648010  45.0481148  18.5336514
  78.6810760  45.9077682  18.5964718  78.1621780  44.8998184  17.5935955
   6.3777552   3.2587149   7.2548251   6.2437100   2.5608060   6.6135864
   7.0472612   2.9151077   7.8463721  55.4742889  28.3418789  40.4486160
  55.5589447  27.4453239  40.1241875  54.5918350  28.3808250  40.8173828
   3.1148660  70.5008316  69.1732330   3.7328548  69.9513855  69.6553421
   3.1965697  70.2123566  68.2641983  56.0109444  56.2465363  42.9403763
  56.7563171  55.6956787  43.1795502  55.9535027  56.1714287  41.9878578
  13.8155499  23.7500935  34.4177704  14.2308397  24.5033703  34.8377037
  14.2255192  23.7011414  33.5541992  68.7183685  70.4012604  17.9008217
  68.2641068  69.8848877  18.5665798  69.3521576  69.7944565  17.5182705
  82.3520889  67.9155121  19.0214405  81.4024582  67.9881592  18.9257298
  82.4766922  67.5325546  19.8898010  27.0608730  49.6552658  23.6096439
  26.3326283  50.2371750  23.3922100  27.0929298  49.0306473  22.8850384
   0.1764949  29.8738441  32.6383476  -0.4134668  29.7035103  31.9040699
   0.6999966  30.6238117  32.3559875  53.5671349   3.2765563  46.4213905
  53.6793671   2.6048501  45.7487488  52.7862816   3.0045376  46.9035797
   5.5947356  45.1288948  28.4444618   4.8576636  44.5683975  28.6869488
   5.2785673  45.6278343  27.6912498  51.8099098  37.6382713  67.0442963
  52.6198730  37.8791809  67.4939041  51.2229500  38.3792686  67.1947403
  11.4855604   4.7498336  15.7429266  12.2170868   5.3478007  15.8963404
  11.6610460   4.0044169  16.3172016  19.3325367  47.5585365  18.6423531
  20.0882473  47.6286163  18.0590668  19.3136253  48.3928680  19.1111431
  14.7461386  71.7661514  42.9210281  14.1316748  71.0943527  43.2165756
  14.8297653  71.6166153  41.9792824  17.5791035  29.0579853  82.3581619
  16.7222462  28.6369133  82.2894135  17.4061718  29.8792038  82.8185196
  38.2256546  64.6058197   4.8879862  37.6025581  63.8882828   5.0025258
  37.9931068  65.2361145   5.5698128  79.4220581  13.6135530  87.9605637
  78.9073944  13.0726786  88.5595627  79.6835022  14.3700428  88.4855347
   2.4949081   8.4319534  76.8125992   2.6958873   8.6961441  75.9148026
   2.8330703   9.1455088  77.3536301  83.1963959  60.1154976  76.8562927
  83.0550842  60.3491592  77.7737198  83.3730850  59.1749001  76.8731766
  64.7185745  61.4853210  59.0952988  64.9018021  60.5464554  59.0607452
  64.5497360  61.6625061  60.0206795  65.1524887  59.3258209  75.9567566
  64.3182220  59.4212494  75.4972763  65.1134644  58.4517822  76.3450394
  45.1914215  50.3121262  86.0129089  45.9899101  49.8739471  85.7185516
  44.7623672  50.5957870  85.2056427  84.1993103  45.2603111  71.5836792
  83.6239929  45.4313507  70.8380356  84.1923752  44.3077965  71.6780014
  17.3271713  41.0793381  71.7292175  17.9799290  41.7692757  71.6103516
  17.1645298  40.7487221  70.8457718  14.4070005  16.0209007  30.8563118
  13.8787031  16.2077770  31.6323338  14.4369144  15.0652237  30.8113861
  44.3707275  38.4259834  26.0789032  43.6322021  39.0138016  25.9199066
  44.4491196  37.9163246  25.2724705  21.6216488  62.8065720  84.5724030
  21.6786785  62.5031662  83.6663513  22.2859879  62.2980957  85.0375214
  20.6404209  67.7720337  61.5510101  20.9239426  67.0794678  60.9541817
  19.7174129  67.5812683  61.7180328  23.7843513  48.7645378  12.3706160
  22.8605270  48.9445686  12.1963520  24.2250881  48.9500809  11.5414248
  31.0886154  66.4876709  51.0029297  31.1061726  67.0059891  50.1983986
  30.8031998  67.1031494  51.6781807  21.5657558  55.7620888   7.2379837
  22.1201172  56.5322914   7.1126704  21.2590790  55.8322487   8.1420078
  25.6194439  68.4938736  17.6933975  24.9865627  67.7981033  17.8711567
  25.2042904  69.2873688  18.0314045  69.3207626  27.5082912  51.3980675
  69.7394333  28.3673096  51.4530830  69.7860260  26.9734459  52.0412674
  25.6227779  44.2304611  16.9966278  25.0799751  44.2938805  16.2107677
  26.2995167  44.8963318  16.8746624  27.0547028  17.6891060  33.2579041
  26.7652473  16.7877712  33.1163330  28.0058956  17.6245747  33.3433456
  20.2701168  63.0422401   3.5300412  20.7598572  62.3215370   3.1338389
  19.4437199  63.0640450   3.0475242  14.5806780   7.3391685   4.8114386
  13.7840147   7.0431342   5.2518058  14.4941120   7.0137167   3.9154367
  12.5758028  51.8874283  80.7806244  12.9962406  52.6617851  80.4066849
  13.2584763  51.2165222  80.7719650  12.0631304   7.4604373  63.0805550
  11.9630499   7.2893629  64.0170135  12.1746712   6.5939708  62.6893692
  36.0933151  23.2207661  25.9152355  36.3448868  24.1059208  26.1787548
  36.6165504  22.6465588  26.4744701  11.8493652  14.7955227  56.5502548
  12.2163906  15.5461187  56.0832100  11.9540224  15.0149765  57.4760628
   6.5632858  49.6836853  68.5959320   5.8063126  49.6987877  69.1815948
   6.8968906  50.5807152  68.6125336  14.2580185  19.6996746  59.0409126
  13.5862417  19.0819206  59.3295784  14.6355171  19.2952709  58.2597694
  24.2749691  66.1149445  38.1618004  24.5785332  67.0200500  38.2315941
  24.7126274  65.6594086  38.8809471   9.8461714  50.5073166   6.8843803
  10.3235531  49.8004570   6.4499960   9.8826084  51.2365990   6.2654710
  21.9658127  10.8723745  48.7718964  22.5662003  10.3489962  49.3027840
  21.1063347  10.7247839  49.1665382  31.0093212  31.5110359  10.2036963
  31.0182838  32.1725731   9.5119438  31.8657951  31.5917664  10.6234188
   4.3494883  18.4301624  75.3154755   4.7113934  17.6646919  75.7619171
   3.7692599  18.8323326  75.9618683  46.1387939  50.8716431  49.4781532
  45.4125290  50.2510414  49.4179611  46.8053246  50.5181808  48.8890610
  85.3023529  56.8693428  33.1678238  86.0157776  56.7462044  32.5416451
  84.5137939  56.6243286  32.6837044   8.1237049   7.3199105  73.7430038
   7.6627059   6.5824695  73.3431396   9.0411129   7.0474019  73.7612534
  17.2993317  25.7116394  17.2292995  17.1549320  25.3363018  18.0979214
  18.0649834  25.2467861  16.8917789  66.8123550  21.2123795  27.2179070
  66.3193817  21.2311020  28.0381889  67.7140274  21.0329247  27.4843979
  64.7645493  64.7503510   3.5923452  64.3682327  65.5690460   3.2941749
  65.7072983  64.9054642   3.5340693  28.4868679  48.4495049  42.9216537
  29.1782150  47.8915482  42.5653458  28.2973366  48.0759354  43.7823257
  82.2408295  11.5707331  46.0506821  81.8786392  12.4471111  45.9202576
  81.4738235  11.0016394  46.1144829  61.9525452  22.7093124  31.9903603
  61.8417206  22.5912380  32.9337654  61.1697502  22.3146915  31.6059990
   0.4818773  30.9462872  59.6661491   0.4836467  30.6868820  60.5875244
   1.3050724  31.4205437  59.5492668  81.5644073  59.7853508  70.2175827
  81.6837082  58.8577003  70.0139389  82.2988663  60.2217178  69.7858582
  46.0350990  46.8517838  32.9227753  46.8666916  47.0942192  33.3300896
  45.5529900  46.3981895  33.6141930  27.1377411  46.4053841  85.0716324
  27.6848087  46.8404999  84.4177017  27.0290051  47.0566750  85.7646179
  55.5937653  58.6516380   9.4553614  56.0688210  59.4104919   9.7940226
  56.2749214  58.0841599   9.0944862  68.3859329   8.4359827  35.4438210
  67.7198410   8.5728989  36.1174736  68.2056580   9.1097898  34.7882957
  79.0192566  56.3562088  13.1210899  78.1857452  56.0570793  13.4844275
  79.4930954  55.5507240  12.9139748  36.8158417  66.6974945  88.5910187
  36.1199951  66.0579987  88.4391174  37.5090637  66.1989365  89.0235825
  57.7420082  14.4211292  16.2318058  57.6769257  13.4687738  16.1609898
  56.9454231  14.6819267  16.6940460  74.6517715  41.1058502  75.3453369
  74.9698334  40.2667961  75.6785889  74.8304825  41.0735664  74.4055252
  81.8561783  42.0922775   8.7943525  81.7030792  42.6918449   9.5246353
  82.4663925  42.5601082   8.2242575  61.4778595   0.1307486  25.6525536
  62.3452187   0.2681786  26.0333862  60.9880562   0.9207714  25.8810024
   5.4453988  48.5567970  72.9791260   5.2282653  47.6440315  72.7895355
   6.3792710  48.6269341  72.7811508  59.4889832  23.5916176  70.3866501
  60.2081337  22.9775047  70.2385941  59.7310829  24.3695679  69.8842392
  53.9959793  55.6541061  17.1963806  53.6296196  55.1250916  17.9050102
  53.4023476  56.4014893  17.1238937  81.1402588  48.6634712   2.1005559
  82.0579071  48.4596138   2.2810836  80.8554916  47.9745369   1.5001309
  60.5444107  54.9068451  22.3396893  61.2217636  55.4855537  21.9896564
  59.7334862  55.4081841  22.2542973   6.2672086  43.5847588  40.8482361
   6.8217974  42.8611259  41.1398239   5.9841242  43.3306808  39.9698639
  35.8441849  42.5135231  21.5873737  35.4427071  41.7307625  21.2101059
  35.1771812  42.8639793  22.1777325  33.4555054   7.7793722  14.2876606
  34.3131332   7.7236753  14.7090893  33.6523209   7.8766570  13.3559790
  28.4694633  15.1125288  80.2626114  27.8794785  15.2028418  81.0109406
  28.0711842  14.4281263  79.7248383  36.5420837  58.4909592  23.2597904
  37.3279762  57.9488487  23.3284950  36.2226791  58.5648003  24.1590996
  25.6746655  14.3971472   0.0643540  26.3900375  14.5610132   0.6788649
  24.9447174  14.9156942   0.4027562  65.1661835  59.7285042   0.8788357
  65.0253067  60.3131905   0.1341680  64.3341980  59.2664032   0.9812799
  79.7473984  42.0558739  74.6641312  80.4667358  42.0118408  75.2940903
  79.0260239  42.4535103  75.1517181  57.1822739   8.1593256  17.0035210
  57.3585854   7.2234330  17.0997047  56.2349205   8.2128649  16.8774719
  60.8929482  14.2543077   1.2797222  61.7428551  13.8252096   1.3785372
  60.2695999  13.6450176   1.6752377   6.6326389  30.2028122  53.5710564
   7.2464767  30.6165028  52.9641838   5.8396716  30.7354355  53.5098381
  60.9804001  10.1808195   8.2172728  60.6749420   9.5333672   7.5818729
  61.7931137  10.5197830   7.8419919  55.6313210  38.8931885  87.8516998
  56.5253487  38.8890343  88.1936493  55.5161972  39.7731133  87.4929352
  55.6819229  52.4691162  50.7817268  55.8837967  51.5383987  50.6855659
  56.2450562  52.9037590  50.1412621  30.9146042  38.6275368  12.4318314
  30.3013706  38.6190453  11.6969137  31.6228065  38.0439568  12.1595850
  63.0460014  59.2628708  17.0106525  62.5888367  60.1033707  16.9824867
  63.5547409  59.2939682  17.8208675  55.3010674  63.8423843  46.3835602
  55.8206139  64.5551071  46.7554855  54.5844345  63.7183609  47.0058861
  53.5575027  53.6666718  60.3145752  52.8859062  53.3816528  59.6949348
  54.0555725  52.8729286  60.5098381  64.6805649  15.9242439  39.1049919
  64.2352676  16.2715759  38.3321381  65.2721863  16.6261406  39.3761978
  19.1948071  17.9266739  26.4667683  18.3332863  17.5393906  26.3117619
  19.2831230  17.9407482  27.4197807  83.9280396  46.7495461  17.6177425
  83.5849075  46.3449478  16.8210049  84.8789978  46.7101021  17.5159760
   7.6037192   4.1997700  78.7710266   7.6100006   3.8800316  77.8688278
   8.0607224   3.5217042  79.2686310  26.2108288   9.2512455  62.6133423
  25.9570923   9.7658424  63.3795280  25.4939957   8.6279821  62.4953308
  84.4252090  23.5835018  19.0455322  83.9621277  24.2435036  19.5614624
  85.3487778  23.8222179  19.1247559  61.8659172  46.2031288  13.4210987
  62.2584419  45.3648643  13.6649666  60.9692650  46.1531334  13.7523832
  69.3514175   2.4778857  82.8340607  68.7951050   2.3102708  83.5947495
  70.1751862   2.7943428  83.2048492  80.3805847   6.2747526  74.4614410
  81.1195450   5.7649350  74.7934952  80.0637131   6.7609434  75.2226486
  50.1306763  69.5013657   1.3163196  49.6038780  69.5129929   0.5172063
  51.0356140  69.5439148   1.0072740  54.5226860  46.2124290  21.3659306
  54.7974739  47.1089745  21.1737709  54.7958679  46.0671272  22.2717419
  59.9661980  57.9625359  57.2188377  60.5083923  58.0706825  56.4374542
  59.5756149  58.8248558  57.3605652  29.6273041   3.8102298  33.6409912
  28.6782837   3.7892294  33.5179062  29.8836975   4.6935730  33.3760414
  86.6380463  20.1004848  68.8517075  85.9675140  19.4508171  68.6406326
  87.4608307  19.6911793  68.5838928  53.2035332  35.0969086  28.4497433
  52.6487579  34.3559227  28.2060337  54.0973396  34.7794342  28.3210869
  16.5511627  46.8546219  24.4005947  16.7138786  46.0604019  23.8917027
  17.2264843  46.8470116  25.0789146  76.9816895  19.5021019  39.1505737
  77.5495834  20.2711449  39.1026840  77.5024948  18.7956161  38.7686462
  18.0362778  31.4704762  25.8090611  18.1735573  30.5233784  25.8288670
  17.4655132  31.6454601  26.5572853  85.2462921  49.0877991  61.2403183
  85.3325272  49.3539429  62.1557236  84.8786392  48.2049713  61.2811775
   9.8361950  40.0233612   6.6386523  10.4597607  39.4162254   7.0371342
   9.9329548  40.8312492   7.1428161  57.7540169  40.8802109  33.1341476
  57.0777435  40.2548447  32.8737640  58.1313210  41.1827354  32.3081017
  78.6641846  54.7544403  40.3809891  78.6669617  53.8920708  39.9656067
  77.9897766  55.2446213  39.9107475  68.3587799  12.9096470  79.4627686
  68.1661682  13.6277447  80.0656509  68.4111252  13.3265028  78.6026993
  54.9594383  66.2010956  67.2944183  55.1562500  65.7777786  66.4587784
  55.2999077  67.0905304  67.1984024  10.5208282  30.3174324  82.5080109
  10.5408440  31.2401047  82.7619934  11.3199224  30.1925411  81.9960709
   6.4745498  68.8823318  11.4481516   6.2523103  68.9338989  10.5185375
   5.8700662  68.2305450  11.8031282  84.5673447  55.3791656  25.6351986
  84.5748749  54.8348427  24.8478680  85.4783173  55.6508217  25.7472839
  44.0393448  10.4964123  80.9843140  44.7601051  10.5794754  81.6086884
  44.3597641   9.8757792  80.3298111  50.4127655  22.9377460  30.2558537
  49.7570877  23.5361176  30.6140022  50.0036125  22.5770855  29.4692478
  56.2907867  70.5961380  82.8060684  56.5493736  71.1800919  82.0930710
  56.3351097  69.7190399  82.4253387  10.9833050  23.3226013   1.6744972
  11.2562084  22.4518490   1.3854537  10.3721809  23.1561317   2.3921649
  84.1789703  17.0612659  13.7754517  84.2989120  16.6557045  12.9167509
  84.0858002  16.3233280  14.3779469  78.9408264  50.3133125  20.1171398
  78.9041748  50.7028008  20.9907455  79.7621841  49.8218575  20.1082764
  62.2077904  33.5149307  66.1240692  61.9096985  32.6074066  66.1854630
  63.1197662  33.4488449  65.8409424  15.0314188  50.7582474  67.0455246
  15.9696331  50.5685883  67.0496140  14.7318869  50.5041084  67.9184113
  58.8365135  71.3771744   5.4333806  58.6955452  71.6439285   4.5249748
  59.5583954  70.7501144   5.3895974  65.8921890  24.0591984  51.2159538
  66.2660294  24.9140110  51.0020142  65.2984772  23.8688755  50.4896507
  74.6101532  60.5377197  18.2561054  75.5040054  60.3405914  18.5361099
  74.0653915  59.9158325  18.7385197  74.4930725  32.4764709  42.3991966
  74.6305237  32.5390663  43.3444061  73.5417404  32.4501801  42.2967262
  30.8679409  45.8758926  82.6151581  31.0535393  45.4668884  83.4604416
  30.3342819  46.6406097  82.8311310  14.5773392  34.6172867  17.2584553
  14.4726706  33.7664986  16.8324986  15.4474745  34.9134636  16.9912910
  74.8446274  12.9580088  75.5480652  74.4097672  12.2594843  75.0589905
  75.0554733  12.5627098  76.3939514  56.0581551   3.2636974  33.7146225
  55.7685356   2.9783924  32.8480453  56.6612663   2.5786827  34.0031433
  52.3881721   6.3695564  29.4018860  52.1892815   5.4384241  29.3035641
  52.8652687   6.4264464  30.2297573  14.1073103  54.9516335   6.5297427
  13.8087168  54.5912704   5.6947513  13.8327084  55.8683128   6.5068879
  83.9644775  30.5420818  18.1760006  83.9786682  30.8160610  17.2589588
  83.0584030  30.6786423  18.4527817  14.4609451  70.7142487  69.8107300
  13.9575148  71.5107269  69.9793015  15.2011156  71.0067902  69.2789459
  73.5261002  30.4004841  83.5528946  73.6545715  31.2722092  83.9268188
  72.5799332  30.3316422  83.4253464  61.5568848  21.2569523   4.9161716
  60.8341637  20.6610184   4.7192812  62.1672440  21.1420822   4.1878190
  64.4807892  55.4420433  78.9386368  65.4236526  55.6050186  78.9128036
  64.2744904  55.0915108  78.0721512  51.8989716   2.1522517   8.9792128
  51.6943207   2.9230332   8.4498291  52.1284027   1.4771320   8.3406162
  71.3855820  48.1566315  34.7724342  71.9621811  48.0706520  35.5316277
  71.3822556  49.0941086  34.5791473  73.1732712  70.1724625  79.5052414
  73.3362961  69.6810913  78.7001266  72.6321259  70.9121170  79.2289963
  42.9215012   2.1241288  64.8049393  43.2501183   2.7650342  65.4354019
  43.6009712   2.0798099  64.1321945  34.3356476   8.4122515  65.9711151
  34.0784721   7.7274785  66.5885086  35.0222473   8.8996477  66.4263687
  65.0853119  41.6991844  69.7607651  65.0338211  40.9535980  69.1626968
  64.7499237  41.3631325  70.5919189  73.7039642  50.8741493  32.7193031
  72.8271408  50.5459671  32.5200348  74.2843628  50.1368484  32.5302048
   3.8590891   8.3916903  29.9403629   3.7515225   7.5373268  30.3583641
   3.3220153   8.3408003  29.1496696  27.4821033  12.8875971  32.8243065
  27.3263206  13.7416210  33.2275543  26.8118019  12.8178396  32.1445541
  35.2183952  55.1086731  50.0631866  34.7118759  54.8651695  49.2883492
  34.6246681  54.9500313  50.7970505  44.9791336  57.2187157  84.7096252
  44.6184807  57.0064812  83.8487473  44.8400383  58.1612549  84.8018417
  33.2796440  35.9715767   9.1464729  33.9801483  35.6773262   8.5642843
  32.7264633  36.5248642   8.5950212  80.4210587  48.4981079  56.7643089
  81.3202133  48.2904167  56.5101242  80.3759689  48.2702713  57.6929054
  46.8877754  65.5990601  84.0819855  46.0610619  66.0445938  83.8968582
  46.8394012  64.7858734  83.5793762  70.7041931  47.9689522  38.8251686
  70.5463486  48.8312302  39.2096062  71.3379364  48.1306801  38.1262741
  78.9016495  30.6261005   5.5118327  78.0681686  31.0688667   5.3521299
  78.6927414  29.9460545   6.1522470  84.6648560  21.0467415   8.2410078
  84.9744186  20.6412945   7.4310617  83.7489395  20.7770939   8.3089752
  22.7311096  64.9101410  85.5259399  22.2573605  64.8346405  86.3542480
  22.3348675  64.2459335  84.9619827   8.1626482  47.8194771  65.3156815
   8.1273127  47.7670212  66.2707901   7.4369817  48.3977089  65.0805588
  34.1149445  54.4116554  74.1423187  34.3666496  54.3579750  73.2203674
  34.2674866  53.5305977  74.4839325   0.3474453  62.9505920   1.1923523
   0.6512109  62.1341515   0.7956368  -0.2543742  63.3211594   0.5468094
  83.2356873  12.5262976  37.8926697  84.1325226  12.6379566  37.5773201
  82.6874695  12.7678747  37.1461182  67.1800995  37.5343628  38.6076660
  68.0243683  37.1281776  38.4115639  66.5382004  36.8432159  38.4448090
  58.9160919  53.9554901  69.5483932  58.2320290  53.7443542  68.9130096
  58.8019676  53.3105202  70.2464066  42.5522346  61.6162682  11.0368557
  41.8975449  61.0619164  10.6122246  42.2488098  62.5100517  10.8777466
  51.5348930  44.5517311  18.4214478  52.4498177  44.6844292  18.6695042
  51.1400528  44.1249580  19.1818428  15.6924019  28.8113022  74.9102859
  15.3319082  28.8422680  74.0241089  15.5296135  29.6850185  75.2657471
  33.3116646  26.1600266  29.0834217  33.4864120  25.4586163  29.7108917
  34.1187859  26.6743793  29.0682354  84.6044388   7.9194670  57.1625443
  84.4946213   8.4207401  56.3545265  85.4891205   8.1334639  57.4587975
   6.3952503  30.3023663  31.6283531   7.0138750  29.6441154  31.9449596
   6.0977063  29.9646950  30.7835598   9.0290823  71.3896713  16.6046753
   9.5420866  70.6341324  16.8914204   9.1198263  71.3930817  15.6517916
   5.7883363  28.1235714  10.8727942   6.3383312  27.7325096  10.1939659
   6.3923092  28.6498775  11.3966742  78.8830109  28.7165108  75.4965744
  78.0325775  28.4170456  75.1751480  79.0597000  29.5147095  74.9986954
  69.3909912  16.4652290  49.6686935  68.4851685  16.2621632  49.4352913
  69.5072632  16.0782070  50.5364075  41.2839890  68.3454208  73.9619827
  41.9589882  68.3153076  73.2839661  41.7718773  68.3539352  74.7854614
  80.6145554   4.9058409  23.2448502  79.6770248   4.8041391  23.4089489
  80.8367310   5.7490373  23.6396790  78.2296753  68.8129425  48.9215050
  77.7478561  68.4159927  49.6471176  79.1088333  68.4397583  48.9851837
  43.4191093  51.7742729  23.4165497  44.0426750  52.4787140  23.5930729
  43.6173744  51.4974976  22.5219421  80.1689148   3.6996505  55.4652328
  80.4783478   4.0260930  56.3101692  79.2938004   3.3569443  55.6467857
  81.7871170  51.5371590  38.8497353  82.0352020  52.4328117  39.0788498
  82.0411148  51.4457512  37.9313889  73.4806824  11.7157421  49.1549797
  73.4075928  12.3642054  49.8552551  72.5758209  11.5353146  48.9002304
  81.3258438  57.9961014  55.8891373  80.5240326  57.4763374  55.9453735
  81.0431519  58.8335228  55.5216522   2.4925640   5.2159591  43.0065117
   2.7519107   4.3186216  43.2156944   2.3371103   5.2063575  42.0620689
  20.5631981  46.7063446  35.8424339  20.2620983  46.0528221  35.2111778
  20.4752254  47.5414581  35.3830032  17.6453876  38.9046173   6.4729514
  18.4652977  38.4285812   6.6047406  17.5510502  39.4415550   7.2597346
  42.6998596  15.6339445  49.1321297  43.1762543  16.4631062  49.0900269
  43.3815689  14.9714823  49.2445946   9.3335524  17.4783630  72.9668121
   9.8790665  16.8725376  72.4651871   9.9013557  17.7814274  73.6753159
  69.3704529  44.7330589   6.7853680  69.6570816  44.4619217   5.9132686
  68.6779480  45.3732605   6.6216073  25.2252674  35.5838737  75.1823349
  25.7541828  35.4465065  75.9682159  24.9319839  36.4927483  75.2468643
  36.7121048   2.9088378  76.1145859  35.9501610   2.5917423  75.6296844
  37.4190979   2.9196270  75.4693909   8.6602669  45.1085052  43.4611130
   8.0327864  44.8912239  44.1505241   8.1386681  45.5560493  42.7948761
  57.2325821   2.2954156  45.2761078  56.6820831   2.1840334  46.0512047
  57.3192329   3.2436366  45.1781273  42.1253052  53.0518112  35.1476669
  41.2902985  53.0910187  35.6139946  42.3686066  53.9679718  35.0146637
  79.0749741  15.2928696  61.0025635  79.2995071  14.4339666  60.6446495
  78.3923798  15.1120615  61.6487885  82.9935913  29.7241592  75.0383911
  83.1674652  29.0119267  75.6537933  82.2114792  29.4442139  74.5628357
  55.7842674  53.4761391  84.5527115  55.3346863  54.3197517  84.5034332
  55.5214653  53.1137466  85.3987808  50.8480186  18.5925884  87.0533142
  50.3603516  17.8467140  86.7039032  50.7222900  18.5383663  88.0006714
  78.3878174  30.6987324   0.6979827  77.6821060  31.1699982   0.2551412
  78.0321732  29.8232918   0.8508047  37.2207565  10.8752747  59.4420738
  36.9198227  11.6653204  58.9931870  36.8921432  10.1545658  58.9046478
   4.8678112  47.0119858  55.6593971   5.0595026  46.7509270  54.7586555
   5.0002012  47.9599533  55.6673508   2.4154921  12.1655884  68.3920441
   2.6326253  12.1097670  67.4614639   2.1126111  13.0654106  68.5137558
   9.9135103   0.5649592   7.2065921   9.4756918   0.5753773   6.3554525
  10.4218159   1.3758479   7.2244072  77.5236893  27.5823040  78.4677963
  76.9664688  28.1638660  78.9850235  77.5347672  27.9750099  77.5949326
  39.7561264  28.0141392  12.1932554  40.0927734  28.5991688  11.5145502
  38.8066216  28.0292091  12.0730705  72.5195084  41.1273117  67.4804840
  73.4157257  41.4612427  67.5193863  72.3596191  40.7682152  68.3532486
  85.5636826  27.7952766  26.7850590  85.3893280  28.7327251  26.8688507
  84.7873535  27.3734169  27.1532688  69.7027130   7.6722269  69.9696121
  69.5349808   7.0777903  70.7008743  70.4803467   8.1637564  70.2340240
   0.8064265  -0.0391354  10.3374100   1.3564717   0.7003172  10.0787745
   0.9629975  -0.1371401  11.2766180  73.3132095  69.6863251  34.0441360
  73.2636337  69.7956161  34.9937820  74.2069702  69.3832169  33.8842621
  42.2570229  51.0724373  76.0633698  41.4201736  51.5325279  76.1284409
  42.2524071  50.4615211  76.8002472  62.7651672  64.4922256  85.6062469
  62.0116234  64.7247849  85.0637360  62.7277794  63.5380020  85.6717300
  24.8459110  27.8270283  80.6176071  23.9648438  28.2003880  80.6411591
  25.0147781  27.6700668  79.6885910  76.1778183  27.1108265   6.3231730
  75.3411560  27.4565907   6.6341095  76.8326797  27.7096844   6.6819987
   2.1254992  25.0668297  78.7121735   2.6615691  24.5161228  78.1415787
   2.7590265  25.5533447  79.2396011  36.1665573  31.0793400  11.9398241
  36.0972939  31.3917217  12.8419619  36.4762001  31.8389072  11.4464550
  51.0852699  23.4063396  85.1077194  50.4550400  24.0862293  85.3460312
  50.8854332  22.6778412  85.6955872  38.0248795  69.2622910  44.6931725
  37.9823837  68.4423523  44.2011070  38.1273613  69.9384842  44.0234833
  79.3869705  27.9532204  86.2812271  79.0148926  28.8338299  86.2331085
  80.1408768  27.9792252  85.6920166  20.3916073   7.5206690  39.0684471
  19.9905052   7.0607457  38.3310051  21.3012714   7.6534190  38.8017654
  25.8244629  11.1234207  70.3286362  26.6882763  11.2648773  70.7159958
  25.5453033  11.9929152  70.0417862   6.2300124  31.0816555  34.1143532
   6.2631989  30.8400631  33.1887398   5.4668465  30.6159058  34.4562416
  74.4583435  41.3025703  72.6172562  74.2635345  41.2857475  71.6802444
  74.3919220  42.2263145  72.8591537  66.7615204  24.4077644  62.8725319
  66.1287918  24.1495705  63.5427704  66.5578384  23.8486309  62.1227913
  37.4074745   7.2080913  62.9278297  36.6504097   6.8874240  63.4179878
  37.9853363   6.4484210  62.8556442  45.2065659  57.5482635  68.4270401
  46.1220894  57.4781647  68.6974716  45.2188568  58.1691704  67.6986389
  64.1690979  42.3868713  24.5317783  64.8053818  42.4759941  25.2413101
  63.5468254  41.7323227  24.8489113  62.1502113   0.3100010  12.5994329
  62.5657196   0.5372748  13.4312572  61.4363785   0.9411174  12.5079546
  44.2138138   7.1099672  16.5035343  44.0790443   6.4553714  15.8182812
  43.6010780   6.8617201  17.1957493  57.4270325  43.7983704  48.2519760
  56.6134605  43.9160271  48.7423744  57.3374634  42.9379120  47.8423157
  53.5916710  41.7954559  84.5664749  53.6569138  42.6194763  84.0838089
  52.6654320  41.7260551  84.7977753  56.4550095  60.9771118  14.3500051
  56.4681320  61.8317833  13.9191942  57.1976624  60.5066223  13.9714041
  42.9818878  18.0987053   8.5042181  42.3943443  17.4133663   8.1858835
  43.4032822  18.4386234   7.7148414  36.1819572  37.4428062  31.9302578
  35.3598061  36.9536400  31.8983002  36.8062477  36.8362122  32.3284225
  80.1739731   5.1429787  38.0379524  79.8470688   6.0371151  37.9385109
  79.6385880   4.6240759  37.4376717  68.6413651  41.8220711  81.7444687
  67.7344360  41.6469498  81.4933853  68.5720367  42.3464737  82.5422287
  19.7178288  65.1691589   0.4511004  18.8396950  65.5454559   0.5103537
  19.7999172  64.6278381   1.2362550  75.2186127  11.0192490  82.9417648
  75.7263794  11.4449244  82.2509689  75.7040176  11.2057886  83.7453918
  55.2743225  58.5432816  15.8717146  55.4766197  59.2990036  15.3201780
  54.3348236  58.6145935  16.0405064  33.4255333  58.9836197  21.0514507
  33.3795815  59.0572929  22.0047035  32.6259995  58.5167656  20.8084908
  42.5411034  27.3883972  84.8621979  42.0840759  26.5731468  84.6555099
  42.7258911  27.7821884  84.0095444   6.4120336   7.5870323   3.3096266
   6.7175279   6.8034401   2.8525834   5.6419549   7.2949095   3.7973509
  74.4127808  29.6542301  65.7995911  74.0686417  30.5112495  66.0512161
  73.7093124  29.2543678  65.2882538  54.5552597   3.6907897  16.9722729
  54.4016724   2.7473216  17.0223751  53.6793404   4.0738564  16.9247589
  19.8308430  33.5184708  85.2754745  19.6274414  32.5900688  85.1617661
  19.5565662  33.9261169  84.4539948  86.0163116  27.2419586  41.8804436
  86.0689468  27.1561375  40.9285507  85.1295624  26.9547157  42.0981522
  54.4913139  47.2392616  17.3036098  55.3456116  47.6509895  17.1736469
  53.8722115  47.8328896  16.8786945  56.5233498   6.3743367  21.8572655
  56.5811005   5.8578796  22.6611118  57.4264374   6.4343038  21.5457077
  66.6192017  39.8046989   8.0686150  67.1672974  40.5507431   7.8252287
  66.9316406  39.0877876   7.5166655  65.8057098  44.3244476  38.6100540
  65.9477768  43.9324646  39.4716797  66.3277969  43.7877426  38.0137253
  73.4313812  31.5615692  46.5836029  73.4988022  32.5162468  46.5670662
  73.2595596  31.3177986  45.6740532  24.1261864  54.8406525  76.7301254
  24.1109829  54.3723259  75.8954620  24.6359062  54.2767830  77.3119049
   3.9900753  17.7074966  52.5600204   4.6963530  17.3750000  53.1139603
   3.4599164  18.2474518  53.1462059   7.5536804  69.2354813   4.4315357
   7.4720697  69.6449203   3.5701804   7.8367767  68.3402634   4.2453408
  64.8575592   0.8989905  20.2413101  64.3517761   1.1878105  21.0009136
  65.5809250   1.5232288  20.1837940  26.1860905  58.1622086  11.4457808
  25.9771423  57.9234085  12.3488569  26.9056091  57.5789871  11.2041702
  21.4561901   1.1976877  33.4567032  21.4115143   0.3807288  33.9535065
  21.0616264   1.8511168  34.0342674  18.0724068  21.6771965   2.3374577
  17.4309788  22.2480354   1.9144405  18.0880318  21.9686737   3.2490654
  64.9862289  16.4674416   2.5245607  64.6835327  15.6934633   2.9994972
  64.2729187  17.0990696   2.6165454  26.4386024   5.9435835  60.1059685
  26.6745872   6.6501193  60.7070923  25.5441914   6.1492281  59.8339958
  65.0931473   8.7270765  85.7182541  64.8757172   8.1498079  86.4501801
  64.3244171   8.6920004  85.1490021  62.4356346  39.7362518  29.6679707
  61.5464592  40.0034409  29.9008045  62.3150482  39.0312996  29.0317822
  41.6316948  10.4234867  88.6541824  40.6830101  10.5401812  88.6030426
  41.8751602  10.0642281  87.8010254  25.8542690  34.8669167   9.5452566
  26.7697105  34.6052971   9.4464989  25.4847775  34.2224617  10.1489010
  69.3721085  33.3443565  11.6781635  69.1123505  33.0935478  10.7916803
  68.9087067  32.7292366  12.2465992   4.9689274  25.3651295  84.8509827
   4.5896330  26.1769104  85.1876984   5.6522889  25.1401215  85.4823456
  24.7046490  12.9463720  63.5482826  25.5583668  13.3581800  63.6817322
  24.8802624  12.0071430  63.6052017  68.0894241  40.4883842  11.0124483
  68.5860748  40.4237785  10.1967306  68.0746307  41.4247894  11.2103319
  13.3259926  53.4870911   4.0419536  12.4421892  53.8520050   4.0862651
  13.8418207  54.1617622   3.6003976  40.0159149  70.9065704  28.0300465
  40.6756973  70.6996689  27.3681450  40.2607918  71.7752151  28.3489819
  62.4585228  61.6903915  86.5445175  62.6565437  62.1272621  87.3728638
  62.6803665  60.7721596  86.6989899  20.5168419  63.4675713  38.4456329
  19.7502708  62.9884109  38.7602882  20.5163059  64.2796478  38.9523544
  19.1142559  68.1894684  71.5121765  18.1986485  67.9114304  71.5364914
  19.6058369  67.3820419  71.3617096   1.0196596  43.9422951   5.1817584
   1.2897964  44.8362961   4.9719591   1.1506757  43.8680954   6.1270423
  48.1498337   2.4636037  63.3458214  48.3034286   2.8079751  62.4660225
  48.4290428   1.5493182  63.2972794  65.2591095  10.1160526   6.1856217
  65.7879410  10.5452929   5.5130744  65.7372894   9.3123188   6.3895416
  69.5319519  44.4728851  13.6522875  69.2171631  44.9117241  14.4425802
  70.4699478  44.3542671  13.8016777  36.1161461  48.0060425  87.1265106
  36.7277718  47.7391243  86.4402924  35.4492493  48.5167618  86.6675491
  83.0237732  51.9570770  85.9796066  83.7683945  51.8037987  86.5612183
  82.2557526  51.8538437  86.5415039  85.7496796  61.0637665  34.2017822
  86.4478226  61.6509056  33.9117851  86.0773468  60.1862831  34.0045815
  80.2439880  18.0022163  78.4682236  80.3776703  18.9394035  78.3266602
  81.0927658  17.6827717  78.7744370  20.5888615  63.1490059  80.4083862
  19.6838589  63.4522095  80.3358002  21.0185299  63.4872665  79.6227722
  80.9299316   5.1946640  35.0078125  80.5100327   5.6839237  35.7153015
  81.6961441   4.7922873  35.4167747  62.6892929  54.8031960  57.6695442
  62.9360199  53.9974480  57.2155342  62.9871979  54.6717606  58.5696640
  10.3594246  50.4862671  46.6746216  11.1853256  50.9586983  46.5700951
  10.3476629  49.8611870  45.9497948  -0.2672880  46.4887924  17.7976837
   0.1139873  46.8936806  18.5767403   0.4348362  45.9431763  17.4433441
  83.0334396  21.1536312  17.9322987  82.5674362  21.5807209  17.2135010
  83.6527100  21.8143787  18.2423687  64.0085831  43.8497505   6.9581957
  64.5655975  44.3059311   7.5889626  64.6098633  43.5640182   6.2704058
  83.8978500  16.2764263  60.3254509  84.6155243  16.8665600  60.5554924
  83.2595978  16.3895760  61.0297699  72.2789993  29.9155159  87.7420044
  72.0058975  29.6728840  88.6267471  72.6478653  29.1115284  87.3762512
  61.5974731   6.6155972  19.0819378  60.6904793   6.6602206  18.7792797
  61.5625153   6.9193692  19.9889832  19.4393959  61.8360443  31.7773838
  20.1859989  61.3003845  31.5092659  18.8159809  61.2104149  32.1464005
   1.4962976  18.9820004   1.1374744   0.8469453  18.5838146   1.7171472
   0.9909210  19.2820683   0.3819709  78.1845856  35.7046204  45.1847725
  77.4179611  35.8853683  45.7286911  78.6433411  35.0009499  45.6437073
  80.7511749  44.2375870  19.1217594  79.8364716  44.5120049  19.0566654
  81.0031052  44.0285378  18.2222805  67.9301605  67.4770050  76.6289597
  67.4951096  66.6269989  76.6957550  68.3668671  67.4562836  75.7774353
  81.2795715  37.3940659  50.1792870  81.7008896  38.2110977  49.9124908
  82.0052414  36.8168030  50.4167671  51.0867233  63.1249428  34.4828568
  51.0806694  62.7465973  33.6036224  52.0146294  63.2403412  34.6875610
  41.6538696  67.9577560  57.0349922  42.0560837  68.2232285  56.2079620
  42.3272972  67.4369125  57.4725304  26.0400238  71.4066391  40.2455788
  25.3365231  71.0374680  40.7794685  25.6929474  72.2439041  39.9377670
  58.8431282  18.0369701  45.1700211  58.5548210  17.5758457  44.3823166
  58.3121796  17.6640053  45.8737411  39.7105865  30.1234169  33.4404793
  39.3622742  30.9228973  33.8351173  39.2125206  30.0199032  32.6296463
  70.2781143  19.5500450  54.8618469  69.9426575  19.6469955  53.9706078
  71.1142426  19.0964928  54.7550354  84.0730362  68.8773651  23.6809845
  84.1385040  69.4707642  22.9327660  84.8844910  68.3702621  23.6562252
  14.0292625  26.9828053   9.3967056  13.9034777  26.0576992   9.6078653
  13.3800516  27.1637497   8.7169876  33.8837357  41.0747910  28.1605892
  33.0301094  40.6654625  28.0191593  34.4974480  40.3412971  28.2003059
  63.8515511  42.1754074  84.9559402  64.2331772  41.3286095  84.7245712
  64.5696487  42.7991257  84.8484879  40.3505974   9.9675550  55.6078415
  40.3657722   9.2347488  54.9922180  41.0510254  10.5469122  55.3078766
  64.2308350   5.5421243  25.2064724  64.7682724   5.9346886  25.8944302
  64.7997971   5.5279174  24.4368534  67.3323288  60.4322281  50.2194061
  66.5901260  60.8733978  49.8062057  67.1491928  59.4994278  50.1072578
   1.1641656  20.7866879   3.1033566   1.5539685  20.2338638   2.4261031
   1.3361475  20.3204384   3.9214437  74.4617386  34.7840805  51.9636993
  75.0431442  34.3362885  51.3491402  74.0773087  34.0800743  52.4860229
  46.5965652  67.0599976   5.1206193  46.9344482  67.9134827   4.8492641
  46.9607735  66.4448242   4.4841080  38.4634819  46.8236122  39.9227676
  38.4267273  45.9770279  40.3679390  38.9514389  46.6499481  39.1178017
   7.4514513  63.1317101  39.2650070   6.8166924  62.7431221  39.8669319
   7.2162557  62.7774887  38.4074287   7.8787651  60.7760696   7.4626718
   8.1937408  59.8770599   7.5565124   7.7165346  61.0678825   8.3597536
  67.4619827  40.2254906  72.8041229  68.1853561  40.4360580  73.3945618
  67.7394104  40.5671463  71.9541016  36.0522118   5.2598033  72.2803879
  36.1741829   5.6737723  71.4259949  35.6715775   5.9469752  72.8273315
  43.0523300  57.8387947  40.7542992  42.2047501  57.8349648  41.1990776
  43.0855560  58.6856995  40.3094597  82.5035934  45.7233086  35.1172295
  82.4720764  44.9382324  35.6639442  82.6822739  45.3946037  34.2361755
  53.7225342   0.3510147   7.1188278  54.4971161  -0.2102697   7.1536722
  54.0691719   1.2413994   7.1761727  79.9759827  50.4883499  23.5790138
  79.2129288  51.0622025  23.6474171  79.6178284  49.6459656  23.2991104
  46.6566238  57.1763725  27.2291641  47.6055374  57.2818985  27.1609192
  46.4903259  56.2906303  26.9066162  26.9843273  19.9621468  25.8724289
  26.3396072  19.5500488  25.2973251  26.6095505  20.8187447  26.0774078
   5.8370667  16.7988224  35.4080048   5.9024534  16.8560390  34.4547539
   5.3338714  16.0000439  35.5660477  67.9773636  37.5708694  44.2417564
  67.1885834  38.1018066  44.1314430  67.8396530  37.1059570  45.0670547
  29.7473831  31.8777962  12.6049929  30.5465946  31.7570972  13.1177559
  30.0363541  31.8213654  11.6942005   5.1327243  24.6082153  74.8811722
   4.6634092  25.4166279  74.6751480   5.2470531  24.1753788  74.0351105
  67.2327499  66.3386765   2.0146949  66.8935776  67.2270660   1.9053499
  67.5441055  66.0922852   1.1437305  55.7273598  24.9799957  31.9966602
  55.8091660  25.8663120  31.6445446  55.2003937  24.5125046  31.3485928
   5.3714027  38.6856575  51.5505981   5.2025137  38.2728462  52.3975296
   6.1065798  39.2763405  51.7144165  72.5626297  65.5122757  37.4267006
  72.1549835  65.1996460  36.6190376  72.7042236  66.4470749  37.2772522
  34.6177673   1.8847141  49.8425522  34.6958275   2.8309324  49.7208595
  33.7824669   1.7696012  50.2956047   2.1557293  43.3623466  66.0488892
   1.9730055  42.4238510  66.0943909   2.8269782  43.5082664  66.7154922
  42.7067184  69.6489563  13.4797707  42.6971855  70.5726013  13.2287331
  43.5608368  69.5217972  13.8927441  25.1448460  13.0086040  49.0390244
  25.0126915  12.9821730  49.9866905  26.0906296  12.9135799  48.9263458
  53.5078735  44.5782738  83.7544937  54.4561348  44.7037697  83.7903519
  53.1932678  45.2884598  83.1951294  58.3170204  15.7449522  84.5439758
  57.5899086  15.5321598  83.9589462  59.0980110  15.4630499  84.0677261
  58.3288193  44.4858589  30.2987099  58.9625702  44.7648354  29.6378288
  58.0705490  45.2952614  30.7396126  20.0403500  62.7283936  21.0670261
  19.6356754  63.5576401  20.8124332  19.5134850  62.4213333  21.8048344
  79.1737747  63.2892303  19.0389748  78.5196457  63.8304214  19.4810829
  79.8297653  63.1085129  19.7122116  68.5821915  53.8117828  11.2795086
  68.8288651  54.7322998  11.3691397  68.7779617  53.5991135  10.3669987
  75.6322174  23.9184589  73.1451111  75.2564087  24.7577839  72.8795166
  75.5948029  23.3787003  72.3554916  34.2313995  27.0462799  78.8658905
  34.6367836  27.0947590  78.0001297  34.7057915  27.6924419  79.3890152
  75.1253891  61.2924538  84.5148544  74.8544159  61.9004745  83.8270187
  75.0619888  60.4279137  84.1089096  27.3590164  12.7358713  22.1261673
  27.3125324  11.7936649  22.2883968  27.7863827  13.0922146  22.9050179
  76.4308319  61.3257599  21.0230846  75.6607666  61.8575172  21.2242508
  76.6424408  60.8889580  21.8481026   7.9832273   5.2370224   5.8122897
   7.4610524   4.6065869   6.3083911   8.4681320   4.7035370   5.1826129
   0.7263659  33.3019791  37.6479874   0.0997198  33.5610008  36.9723740
   1.1136799  32.4914856  37.3173523   8.8374462  61.3799515  17.0718555
   8.6899519  60.8683395  17.8673000   8.0727873  61.9524117  17.0100460
  36.8794937  10.8596458  69.3904877  36.7757912  10.0892239  69.9489975
  36.6425934  11.5969458  69.9530716  20.5221596  21.2042274   1.4035821
  20.3956394  21.2507343   0.4559210  19.7065105  21.5446339   1.7711059
  11.4132738  18.4085522  57.2207336  11.5493441  19.1733913  56.6615067
  11.9382505  17.7186718  56.8149033  66.2918701  58.2798271  78.9055710
  66.5678787  57.4698982  78.4765320  66.3268661  58.9409981  78.2142944
  30.8665886  27.7183266  85.6087341  30.7695370  27.3596020  84.7266159
  29.9770222  27.9568825  85.8694916  82.9052811  70.3584900  27.9533501
  83.3692474  69.8785477  28.6393738  81.9792023  70.1916199  28.1287384
  64.8420410  68.4402771  26.2327328  64.5759125  67.5992813  25.8610706
  64.0695267  68.9979630  26.1408005  16.4770069  25.2312374  88.7889023
  16.1534958  24.7353268  89.5409927  16.0493126  24.8273563  88.0337906
  42.1886749  30.5662975  85.3088074  41.3757172  30.8893013  85.6973877
  42.0502052  29.6240940  85.2123108  74.7663040  25.2489471  50.5424995
  75.3755417  25.1593533  49.8096733  74.8582611  26.1602993  50.8203735
  83.9596481  17.7804604   7.6728783  83.6962128  17.1325760   7.0193658
  84.2960587  18.5151310   7.1597352  64.3918152  28.9415131  84.4836273
  64.2901459  29.7100124  85.0451431  63.8031044  28.2886238  84.8622971
  53.5629883  34.8023071   9.7208996  53.9246902  35.2585716  10.4806528
  52.7168999  34.4704170  10.0212612  22.4599724  54.4733124  32.4124718
  23.2445850  54.5199661  31.8661766  22.7801571  54.1856232  33.2674294
   0.8651700  33.5283546   7.1237392   1.3825400  34.2058525   6.6883626
   0.8829244  32.7872581   6.5181837  37.6809158  58.4979591  82.1766434
  37.4693909  58.9974976  82.9652786  36.9183235  57.9365387  82.0370178
  17.4978199  36.8107567  76.6945953  17.5369930  36.5182571  75.7840195
  17.0023193  36.1266365  77.1448059  64.3206863  35.1916161  71.6127701
  64.1904373  36.1262283  71.4522324  64.3088913  35.1084595  72.5662766
  11.1141052  11.6606731  33.4139023  11.4334393  12.2567053  32.7364044
  10.8657284  12.2336617  34.1393166  62.4452133  51.4918404  32.1037750
  62.3860474  50.8195763  31.4249592  62.5777473  51.0018005  32.9152718
  33.4126625   5.6967883  80.9353561  32.9173927   5.6581507  81.7535553
  33.9295921   4.8911901  80.9300232  69.8595886  26.5083961  26.1539097
  69.2309189  26.3136044  25.4588833  70.4784698  27.1186657  25.7529316
   0.7364577  34.3971024  47.1302681   1.3981433  34.2895966  46.4470062
   0.8967462  35.2722511  47.4833336  71.5131454  69.7463684  32.0147324
  72.2903519  69.6503525  32.5651512  70.8988876  69.0942078  32.3517914
  22.9027672  16.0461349  75.6010056  22.6366692  15.6672220  76.4387741
  22.6566830  15.3876352  74.9513550  32.1750870  13.3166714  78.6013641
  32.1125641  13.9255209  79.3373184  31.4545898  12.7014103  78.7376404
  29.6851902  61.9671440  51.1389008  30.0304279  62.7792091  50.7679672
  30.4630413  61.4667168  51.3853798  64.3773422  54.7852936  53.6995697
  63.5065956  55.1033287  53.9380722  64.3470764  54.6958771  52.7470360
  84.5434189  22.2690983  58.9823265  84.2419205  23.1744270  59.0578957
  85.1073761  22.2682343  58.2089043  66.6650620   1.1577597  71.2480927
  66.3886261   1.8285631  70.6237259  65.8476791   0.8192636  71.6135101
  37.9839020   6.3093138  10.6861324  38.8911896   6.1889610  10.9664478
  37.4673843   6.1685052  11.4796133  68.3960800  38.9758148  56.6464500
  69.0997696  38.3327599  56.5596237  68.7717972  39.7890129  56.3091278
  69.7602768  24.7175274  12.3705845  68.8583984  25.0279484  12.4511042
  70.2963257  25.4785233  12.5936642  85.1826401  59.8996658  63.3141556
  85.4820099  59.2938461  62.6362305  84.8160172  59.3352699  63.9948006
  29.8126812  13.1433773  68.2755585  29.7386074  12.9605703  69.2122116
  30.5842972  12.6509132  67.9956970  23.8848114  39.6025505   4.5560985
  24.3086987  39.1773300   3.8106179  22.9902153  39.7698326   4.2595410
  72.2811279  41.9149017  64.5268173  72.3478699  42.2050400  63.6170959
  72.4309235  40.9702682  64.4885483  70.9147186  39.2175369  42.0416641
  71.7964859  39.2414932  41.6699829  70.3735199  38.8367996  41.3500214
  68.1483154  14.1382961  66.3092728  67.8044052  14.8050070  65.7147522
  68.3624878  13.3982954  65.7411499  15.0763474  34.9152145  22.7455559
  15.8602867  34.4275780  22.4928131  15.3839474  35.5390091  23.4031963
  54.4272079  64.3062210  15.8850536  53.9387474  63.8923416  15.1734781
  54.9459572  63.5965691  16.2639046  45.3403778  52.6431961  73.3396912
  44.4995728  52.9889526  73.0401306  45.2417374  52.5621452  74.2883377
  26.3064556  43.1563339   2.1172178  26.0505714  43.8559761   2.7182636
  27.0472832  42.7297020   2.5477898  84.6062012  36.9845085  19.0075455
  84.8080902  37.0646820  19.9397717  85.4540405  36.8288994  18.5913849
  29.1638489  27.6663952   1.0115358  29.3349266  28.5818958   0.7905710
  28.5111179  27.7066517   1.7105019  67.5636368  56.0040665  19.0489407
  67.1107864  55.1962852  19.2911072  67.4352493  56.0763092  18.1031437
  70.3691635   6.1206260  57.1407127  70.6297226   5.2345972  56.8891296
  71.1610718   6.5057044  57.5159760  11.2492619   1.8745871   3.3075755
  11.2467203   0.9356984   3.4938912  11.0544281   1.9336948   2.3722799
  58.1333122  63.5846252  36.3688660  58.5500984  63.0769386  37.0651245
  58.5441322  63.2694054  35.5638237  82.6949158  24.1572685   2.9933243
  82.2345047  23.4276810   3.4079947  82.3542328  24.1782227   2.0990498
  81.7839127   2.8769815  19.8789940  82.7222366   2.8459473  20.0656052
  81.6303253   2.1313703  19.2987309  52.9432335   6.5849600  26.7094936
  52.7898865   6.3106732  27.6136417  52.2443581   6.1633086  26.2094803
  46.1844139   8.5516310  41.2833862  45.4579010   8.8509855  41.8300095
  45.7905464   8.3980436  40.4245987  16.1780243  70.0003510  25.9570675
  16.7242069  69.7371368  26.6977673  15.7043619  70.7707901  26.2706032
  55.9560127  30.4588699  69.1178436  55.0502472  30.4455662  68.8085861
  56.0621567  29.6295967  69.5839615  36.1716423  62.0986710  61.0056992
  36.4532928  62.5217400  61.8168221  36.1548882  61.1649780  61.2158699
  84.8567505  59.2425575  46.3865051  85.3873291  59.7917290  45.8093338
  84.5193939  58.5517159  45.8162727  46.5185051  20.9187508  26.3118477
  47.0427437  21.0599861  25.5235214  46.2448845  20.0031528  26.2566700
  62.2247124  63.3025703  70.4474258  61.6726341  62.5852890  70.1360626
  62.1865273  63.2373810  71.4016418  82.3705826  62.1298485  37.5052681
  82.2078857  63.0524750  37.3090057  81.7794952  61.6531639  36.9224930
  72.9371796  49.8915825  54.3602600  72.4114685  50.4182281  54.9623451
  73.1534882  49.1031227  54.8580284  73.7350998  38.4875450  82.0164871
  73.4621658  37.6151848  81.7323608  73.0516815  39.0713654  81.6873550
  19.9218369  19.0588646  22.1285667  19.0852356  19.1366081  22.5871372
  20.5389061  18.7741413  22.8026505  30.1743183   3.4628561  14.6734190
  30.2700386   3.6830707  13.7468262  30.9733448   2.9819477  14.8890915
  44.6327171  48.9424515  33.5420303  45.0050240  48.1345825  33.1885185
  45.3545456  49.3491096  34.0214310  34.3852081   9.5119038  33.7827415
  34.2244453   8.8730745  33.0882759  33.6728096   9.3719282  34.4065437
  73.7983170   7.8636799  67.8084946  73.8443451   6.9350924  68.0361710
  74.5068130   8.2683973  68.3089600  76.6953964  55.2094345   3.7504423
  76.2701187  55.8608284   4.3081646  76.9431686  55.6936302   2.9627929
  64.1485825  61.2656555  68.7192230  63.4229431  61.7739487  69.0815964
  64.8871765  61.8744736  68.7115860  23.9600658  25.3293324  20.9707718
  24.0672836  24.5010757  20.5030899  24.6375732  25.8992786  20.6069336
  10.1432619  10.1543655  53.3774033  10.7775879  10.2090626  54.0921516
   9.9125452   9.2264776  53.3324089  64.7608185  55.3925209   1.4896802
  64.7487030  54.6567841   2.1018677  63.9399643  55.8559761   1.6559290
  61.3933487  36.6313324  16.2505054  60.9238777  36.7221107  15.4212961
  60.8342896  37.0703316  16.8915691  42.9171410  29.3590508  14.1034298
  43.4740639  28.5828075  14.0441799  42.7642174  29.6141262  13.1936045
   4.0962963  60.5466805  35.3985786   3.1854835  60.8057709  35.5383072
   4.1537061  59.6650200  35.7668304  29.9738426   5.1633739  38.4529533
  29.5658684   5.9004488  38.9073868  30.3255806   5.5433688  37.6478958
   8.2607956  63.7144394  34.6256905   8.7400131  63.5339279  35.4343948
   7.3494778  63.5117340  34.8369789  33.1325417  42.5690269  77.2133255
  32.2744141  42.1801033  77.3824081  33.5583305  42.5916023  78.0703125
  32.6759338   1.8198808  67.9398956  32.8045692   2.7125590  68.2605362
  33.5205116   1.5778092  67.5599976  70.6529465  55.8023033  67.5554352
  70.1170654  55.0201340  67.6868591  71.3958282  55.6859741  68.1477356
  14.5010452  70.3255920  88.8401031  13.9167805  70.7480392  88.2104950
  13.9569626  70.1853638  89.6150513  56.1912613  70.2315750  23.9892750
  56.5482140  70.2297058  24.8774281  56.7893982  69.6759109  23.4895763
  59.4073105  44.2030602  41.6927452  58.5720406  44.5914078  41.9530182
  59.7242508  43.7650185  42.4826202  48.3688583  10.1706867  16.0648003
  47.6620598   9.5517330  16.2479992  48.5261688  10.0831928  15.1246767
   0.3489728  55.0519905  41.1401978  -0.3779129  54.4740601  40.9081154
   0.8593785  54.5511932  41.7765312  13.5285988  61.9212418   2.5860672
  12.9256392  62.6499596   2.7331746  14.3208866  62.1656342   3.0643809
  22.3568954  52.5441666  18.2398968  22.2132435  52.6817818  17.3035965
  23.0954914  51.9367790  18.2821636   6.0904803  21.7032967  24.7065201
   6.9237518  21.6385231  25.1730976   5.9395413  22.6441135  24.6153316
  35.2826881  45.7785034  22.2454300  35.1245842  45.9200706  21.3120518
  34.7153893  45.0426712  22.4755459   6.5338912  28.8710842  39.0998955
   7.1643095  29.2389240  38.4806252   6.3744717  29.5765762  39.7268715
  64.5598450  40.5039062  72.1172485  64.1592712  41.1887589  72.6527405
  65.4372101  40.3953819  72.4842377  24.6665134  13.9912653  31.0776291
  24.6748371  14.3243637  31.9749641  25.0424290  14.7000341  30.5555496
  19.6541252  41.0790024  19.8531685  20.3817596  40.4764290  20.0070686
  20.0164642  41.7489357  19.2733974  32.5991707  54.5839500  48.4878044
  32.7403336  53.6372871  48.4992981  31.6964779  54.6951408  48.7861671
  86.9342041  26.3933372  85.7901535  86.3891220  26.2557087  86.5648575
  86.8323212  25.5899639  85.2798157   2.3592448  55.8923378  28.3169346
   2.8414602  55.1761589  28.7302017   2.9773207  56.6231766  28.3075066
  16.7728691  64.8784332  10.9701223  16.1567535  64.8635559  10.2377195
  16.2246857  64.7651901  11.7465916  71.7412033  34.2040367   0.9103531
  72.3083191  34.9204674   1.1955585  71.9066925  34.1271019  -0.0292889
  17.6348286  63.2967987  23.0853481  16.7043037  63.1738663  22.8976154
  17.6515694  63.8986397  23.8294849  68.4480972  28.2440624  65.5422745
  68.6192093  27.7232418  66.3269348  67.9886093  27.6457100  64.9531403
   0.9059013  56.5551376  26.1006241   1.4078637  56.2204475  26.8437576
   1.0112634  55.8893013  25.4210720  73.7226334  29.4534111  57.5931778
  73.5446320  30.3938522  57.6041336  72.9750214  29.0628567  58.0457039
  36.6292229   5.8929935  37.4022980  37.1401329   5.3902535  38.0366974
  35.9857216   6.3635879  37.9320869   6.3792229  10.7272520  43.0318527
   6.7429943  10.0661983  42.4428596   5.7284636  11.1878910  42.5021744
  13.5074100  45.1575050  38.1315155  13.0764513  45.2455292  38.9816666
  13.7322092  46.0541229  37.8829689  70.5078506  68.8932800  21.3246269
  70.3480453  69.5307236  22.0205898  71.1111374  69.3363037  20.7279663
  45.7300072  29.8298397   0.6978358  45.9932938  30.4577827   0.0250819
  44.8395462  30.0903587   0.9332950  77.6533813  47.5646667  68.5119553
  77.9036484  46.7115250  68.8665695  78.3900146  47.8183250  67.9558411
  50.4400711  64.9807281   8.8704777  50.2174454  64.2760010   8.2621794
  49.6022911  65.2390518   9.2546978  23.6226463  38.9878426  11.8174324
  23.8823013  38.2232590  11.3034077  24.1799355  39.6951675  11.4928493
   1.6986827  60.6734047   0.0889764   2.5732737  60.2928009   0.1693672
   1.1585741  60.1618805   0.6913538   3.7823689  43.6928291  14.3024845
   4.7331161  43.6482468  14.2008762   3.6173937  43.3318329  15.1735172
  42.0166740  35.6529579  15.6811161  41.8525734  35.0041313  14.9967737
  41.2309837  36.1996727  15.6861887  67.1104889   0.8430202  11.4786549
  67.9614182   0.5853716  11.1240234  67.3213425   1.4316555  12.2034168
  68.7850952  43.2280045  61.8139458  68.1204987  43.8228455  62.1613808
  69.0130844  43.5959663  60.9602165  75.4329300  63.1919899  28.0834522
  75.7399826  63.8221664  27.4316673  76.2338486  62.8228073  28.4555645
  13.7620659  40.2941856  35.9426117  14.7027664  40.4657898  35.9858055
  13.3924408  40.8027153  36.6644173   6.4795852   9.9169016  85.9952927
   6.0216670   9.8491220  86.8331146   7.4054213   9.8249226  86.2202377
  33.0374489  58.3526917  80.4790192  33.2387123  59.2880783  80.4510803
  33.1237373  58.0619125  79.5711441  55.3428421  59.0213623  41.4254532
  55.0044060  59.9148712  41.4831886  56.2938385  59.1223831  41.4657860
   2.7892413  13.7138519  20.2182064   2.0639796  13.9299870  20.8043060
   3.3017771  14.5204382  20.1638298  67.8865814  70.0926208  83.9951553
  68.1338425  69.3710175  84.5734100  68.3756866  69.9313583  83.1883087
  57.3024216  40.1488991   6.3412819  57.8293533  40.2307854   7.1361842
  57.6988297  40.7662582   5.7264972  62.1326675  23.7285061  34.9127884
  61.7680664  24.0617294  35.7327003  62.4606972  22.8567352  35.1333389
  15.3213129  44.2102089  76.3617020  15.5375462  44.5827980  75.5069199
  15.0957785  43.2987709  76.1755753  81.0731659  62.4673462   1.1635463
  81.4856491  63.0923767   1.7597235  80.1671600  62.4091339   1.4668649
  85.5532913  15.9973211  47.6796227  85.4276581  15.1479940  48.1028137
  86.0730667  15.8018875  46.8999596  12.4510593  29.3005543  63.5794640
  11.9656172  29.5629253  64.3616028  11.8485889  28.7282009  63.1044121
  84.9391937  50.3364143  48.8554077  85.4959564  50.6246147  49.5787239
  85.0123138  49.3820381  48.8624306  80.8489685  14.4640036  38.8978844
  81.1467972  15.3549986  39.0813560  81.6503906  13.9406719  38.8888626
  36.1689682  11.5918827  77.5919266  35.5730057  12.3237305  77.4323654
  35.9941292  11.3335438  78.4968719  66.8718414  39.5047455  36.9159126
  66.2180557  40.0993576  37.2836647  66.9603729  38.8118057  37.5703049
  65.3833847  21.9538841  72.3366852  65.8529587  22.4381599  73.0158157
  65.5323334  21.0333176  72.5525589  11.8531780  63.5722389   7.5282259
  12.4319038  63.5897293   6.7659912  10.9747667  63.6836815   7.1646242
  33.2570496  51.5068016  35.2570763  33.2543030  50.5611763  35.1086807
  33.4046135  51.6011429  36.1981163  42.7195053   2.5616899  20.5010052
  43.6628532   2.4309540  20.4048805  42.4511299   2.9802024  19.6830482
  69.7562332  58.4087257  42.3563118  70.1270370  59.0261345  41.7257996
  68.8110275  58.5497932  42.3021774  77.6687775  10.6534262  47.9380951
  78.2604065  11.1902542  48.4653740  77.0697174  11.2820845  47.5354271
  52.6433487  63.1031151   6.0558534  53.1447372  62.3141174   5.8501234
  52.8828011  63.3103142   6.9591594  57.5760918  42.7261353  87.2303314
  58.1484985  42.6633835  87.9949570  57.9702835  43.4122276  86.6917038
  43.0181770  50.4987259  63.4165573  43.0475540  51.3812256  63.0470123
  42.3184128  50.5352974  64.0686493  68.3794327   3.8094316  51.0670471
  67.4867783   4.1339111  50.9482574  68.4112930   3.0024362  50.5532608
  55.4389839  28.1811085   3.0534875  55.0866432  27.3339100   2.7808368
  55.9921188  27.9788380   3.8080480  86.4278793   1.1261424  76.5270691
  86.0284271   1.1016307  77.3965912  85.7807159   1.5695356  75.9785995
  26.5154266  60.9714012  61.5291061  25.7968521  60.4375572  61.1901512
  26.3749371  60.9888878  62.4757805  38.9558258  43.5280151  87.6275787
  39.6108437  42.8751068  87.8743362  38.1718788  43.2773743  88.1162949
  75.1781311   1.0593005  55.7676125  74.4578552   0.6820852  56.2727356
  74.7960587   1.8269342  55.3421822  75.8121262  41.5966225  20.0726967
  75.4104462  40.8118095  20.4454632  76.7080231  41.3314133  19.8646851
   1.5052457  36.8883934  47.5195274   2.4267459  36.7153320  47.7121887
   1.5234045  37.4362259  46.7348099  85.9314880  14.5854950  38.9449959
  86.1092072  13.8231077  38.3941689  85.2483749  15.0653439  38.4766579
   2.2616854  55.0546684  15.1399708   1.8949214  54.2512093  14.7709551
   2.9962032  55.2688866  14.5647955  -0.1916546  28.5132008  61.6691322
   0.4549491  29.1177940  62.0332756   0.2340019  28.1451454  60.8948021
  18.6336956  39.6953239  42.1805725  18.4067707  39.5685387  43.1018028
  19.5800095  39.8392181  42.1846199  42.7346039  17.0269527  38.8954124
  42.1198158  17.1261311  39.6223412  43.4897041  16.5813293  39.2794418
  80.8485794   7.1637845   1.2504256  80.2049255   7.8565326   1.3988732
  80.3931732   6.3576565   1.4933070  54.7833023  59.2415390  48.2464371
  54.1489029  59.9396782  48.4088211  54.5936165  58.9480553  47.3553047
   2.0503199  16.4357395  59.7981834   1.3193434  16.9887600  59.5223694
   2.8070087  17.0219574  59.7993813  12.5041866  40.2915802  49.1319809
  12.1584930  40.4371681  50.0126266  13.2405834  39.6935272  49.2595863
   5.8595715  56.3880005  -0.0411642   6.4952393  55.8705025   0.4531615
   5.0274692  55.9331017   0.0888564  53.7203941  59.0562859  19.0002346
  53.4173126  58.8957214  18.1065941  53.7924042  58.1845551  19.3889866
  76.3016129  44.6010971  20.5139599  76.9605713  44.8397980  19.8620186
  75.8944092  43.8087082  20.1639080  63.7103462  57.3563843   6.3430042
  63.5529289  56.5771866   5.8098073  63.9654198  58.0302658   5.7128811
  15.0322323  31.3711014  75.2937241  14.2135544  31.5948029  75.7363892
  14.8215609  31.4203873  74.3612900  15.6100674  31.4484367  83.1627502
  14.8250856  31.4702377  82.6154327  15.5361366  32.2242203  83.7185669
  35.4651680  12.5979471  32.0248947  36.2038918  12.9907598  31.5599022
  35.8672409  12.1041212  32.7395325  79.8971100  12.7351332  49.1087532
  80.8214645  12.5116596  48.9998169  79.7272491  13.3889866  48.4306259
  50.4493179  62.7153931  38.2209473  51.0406151  62.0406189  38.5545425
  50.9170456  63.5375481  38.3676605  12.5227623  39.1469650  41.8958359
  12.0482893  39.7451591  42.4731331  11.8366213  38.6622696  41.4370193
  39.8806839  54.1592216  55.4735794  39.4464417  53.6316376  54.8032608
  39.1634636  54.5460091  55.9757957  33.5401115  34.0323792  29.0898056
  33.4620781  33.1543350  29.4628773  32.9088097  34.0439186  28.3703918
  35.7098465  33.1700058  78.1959305  34.7605286  33.2021027  78.3142471
  36.0068436  32.5084343  78.8207092  11.9284763  39.1114082  17.0832138
  12.4058933  38.3592606  17.4333305  12.5921345  39.6211510  16.6185074
  60.5266647  57.7898178  78.4779892  60.2483749  58.7029266  78.5488358
  61.4811478  57.8247528  78.5410156   4.0841818  31.7135010  45.4073639
   4.7648215  31.2047787  44.9667244   3.6502314  31.0843830  45.9836693
  48.5887184  54.4406013  12.6004896  47.8769417  54.9630089  12.2307692
  48.6174240  53.6546822  12.0548315  38.2477074  24.9864025  25.0845661
  38.5862389  24.0914135  25.0596027  37.8938980  25.1332016  24.2073536
  62.0695190   9.3524647  66.9347992  61.7281799   9.3114138  66.0414658
  63.0094414   9.4969282  66.8256531  57.0475388  14.6668978  42.4790115
  56.2333260  14.8040991  42.9632263  56.7654533  14.4869862  41.5821877
  22.8595867  50.1015396  77.7603760  22.0544529  49.9130745  78.2425232
  22.8287601  49.5153694  77.0042801  29.0267811  56.4357948  14.2694941
  28.1308022  56.1448555  14.0997601  29.0604916  56.5671806  15.2170353
  68.2555313   4.2157307  23.1104965  68.2294617   4.9622302  22.5119209
  68.3690338   4.6070843  23.9766312  58.9783401  13.7880497  64.6118011
  58.3389206  13.2344379  64.1635971  58.6292953  13.8883057  65.4974365
  85.4840698  53.0151825  51.6532631  85.3039398  53.5288696  52.4406090
  84.8731155  53.3559875  50.9999504   0.4126375  32.0635757  25.2012138
   0.8304427  32.8616867  25.5247707   1.1292093  31.5552139  24.8213100
   3.6362765  67.1844788   7.3326101   3.5682306  67.9077072   7.9559441
   2.7754624  67.1457291   6.9158020  22.0995998  46.3570251  14.1631298
  21.3033466  46.8469849  14.3684425  22.1478043  46.3680191  13.2072067
  73.4541473  71.4593811  63.2661285  73.9887314  72.2337799  63.0907288
  74.0422745  70.7212143  63.1066322  73.6080933  58.8156128  86.3734283
  74.1025925  58.5829391  85.5875778  72.9689560  58.1099014  86.4719315
  75.5406952  59.8854942  35.6736412  75.6417236  60.8343391  35.5980225
  75.3756180  59.7356377  36.6045151  83.0643005   7.3597217  52.4710388
  83.5222244   6.5249743  52.3723793  83.6884155   8.0138903  52.1567574
  18.3700466  60.1854095  35.8310699  18.4019470  60.2788429  36.7831650
  18.0983276  61.0470276  35.5148239  69.4971390  23.8131657  49.7873611
  68.7582474  23.6208744  50.3646736  69.9970093  24.4834480  50.2532806
  49.1397285  17.9366055   6.0987759  49.9456978  17.4646015   6.3082099
  48.9679642  17.7221718   5.1818538  76.1227722  56.5367546  14.2233620
  75.9944229  57.3022728  14.7834845  75.2384109  56.2099648  14.0580225
  25.4066200  16.9637527  70.6638641  24.5328007  17.3372078  70.5489502
  25.9956741  17.6066303  70.2689514  86.4615860  60.7238998  45.0125237
  86.9390488  61.3745308  45.5272522  86.6311035  60.9671516  44.1024017
  31.2234135  46.2749138  68.2933960  30.8310356  47.0983353  68.5836411
  32.1159821  46.3002663  68.6382294  68.9189301   4.6382079  37.7400703
  69.4816360   4.0248728  37.2674026  68.2395859   4.0881381  38.1301270
  64.0837097   9.9541883  56.6788483  64.9670410   9.6871786  56.4245605
  63.7151108  10.3469601  55.8875847  10.8753414  43.1257133   9.8587885
  11.1841803  42.2219467   9.9225025  10.4595823  43.1766319   8.9981003
  42.2792549  43.2735863  35.2234535  42.8672829  42.7851105  34.6473923
  42.8279648  43.5289154  35.9650421  85.7723923  34.7669868  50.7595100
  86.7072983  34.8755875  50.5851898  85.5879822  33.8588104  50.5198441
  10.0988750   6.9492693  22.1431999  10.0019531   7.6297913  22.8093281
   9.2322140   6.8810730  21.7426014  40.6705399  45.5853653  24.7719154
  40.8019905  44.7196655  24.3852425  39.9098091  45.9401627  24.3118687
  23.4071903  14.5040417  53.2915268  22.5357990  14.8997030  53.3104935
  23.9891777  15.1907511  53.6170349  67.3339996  33.6705780  60.7506866
  66.9893341  33.7870903  59.8653297  67.1065826  32.7693977  60.9795685
  47.8645515   4.8390961  39.0887833  47.1210403   4.9050317  39.6880112
  47.4681053   4.6855040  38.2311859   2.6242955   5.6944976  29.3141747
   2.7119913   5.8358822  30.2568035   1.7044246   5.4598079  29.1917400
  60.7896996  62.2791481  84.6275177  60.8469925  61.9139481  83.7445831
  61.4311180  61.7815056  85.1346283  59.8863831  45.2959480  75.2043457
  60.8060379  45.3892136  75.4528732  59.8204002  44.4051514  74.8603210
  47.8979378  43.6388092  22.4351063  47.5608521  44.5224266  22.5828457
  48.2387161  43.3668785  23.2872543  22.3164253  37.4011765  29.8509121
  22.0644760  38.1408501  30.4037571  22.8259659  36.8329887  30.4286327
   3.5376356   2.3619199  20.6317883   3.5484452   3.2692957  20.9363918
   4.4608197   2.1372306  20.5156956  11.8991623  25.9200840  31.2943764
  12.7736893  25.9140720  30.9052792  11.3087959  25.7549000  30.5592480
  78.4003525  35.1346664  60.0513191  78.4304428  36.0273666  60.3954277
  77.5942841  35.1036453  59.5360336  21.2474747  53.9614754  20.2187901
  21.9114285  54.4195633  20.7341080  21.7469101  53.3676529  19.6582851
   7.7800598   7.3873086  35.0276451   8.2302179   7.6553292  34.2265511
   7.0653238   6.8272376  34.7248192  55.1868210   9.4936972   9.7122059
  55.8955116   8.8556414   9.6292963  55.2801666   9.8414421  10.5991058
  73.0532303  20.1575584  43.9267921  72.9394760  19.5060863  44.6188011
  72.3425064  19.9793339  43.3108826  69.7150116  49.5652542  53.1277542
  69.3029251  48.8947754  52.5828972  69.5086441  49.3045998  54.0253639
   5.4686632  27.0581322  46.3131180   5.7925663  26.2263546  45.9674835
   6.2519097  27.6006794  46.4047699  28.6277676  22.8397865   1.6357241
  28.5499725  22.5364094   2.5402362  27.7381935  22.7834301   1.2868479
  73.3824921  63.0756187  78.6483383  73.7566528  62.4968643  77.9840469
  74.0599060  63.1366196  79.3218536   5.5755315  22.4846630  12.0938883
   5.6099997  23.4185505  12.3010073   5.1887269  22.0811195  12.8709126
   6.0598760  16.1103954  27.8500729   6.3647337  16.8092232  27.2713413
   6.7870278  15.9666977  28.4557400   5.9167442  44.6517906   4.6233735
   5.2936220  44.3206711   5.2701435   6.1092801  45.5441399   4.9112453
   5.9950538  31.9625320  73.1194077   5.4791994  32.3221054  73.8410950
   6.8876634  32.2631798  73.2899704  60.3100739  70.6210022  20.3842983
  60.6541328  70.5726242  21.2762146  59.7461662  69.8518219  20.3030643
   8.7528057  23.7708702   9.4804153   8.0373917  23.2207508   9.1613789
   9.5279217  23.2120323   9.4244957  26.5229588  52.8580475  67.4921112
  26.7754498  51.9372711  67.5603256  27.0787411  53.2078438  66.7957077
  68.4187927  39.4343185  60.8969994  67.5568848  39.7575798  61.1594086
  68.3199539  39.2133331  59.9709167  60.6293030  55.1985321  60.9429779
  59.9725761  55.6311226  60.3972588  60.1423607  54.5208664  61.4118996
  85.0103912  51.9254303  46.4519539  84.2077866  52.4463692  46.4259949
  85.0300827  51.5597420  47.3363304  31.7195053  23.5696201  12.1373014
  32.2620583  24.2346668  11.7135305  32.1219063  22.7376919  11.8879070
  59.8857765   8.6289206  54.0683632  59.5164375   9.4721975  54.3304787
  59.1725883   8.1882925  53.6063652  12.9066343  52.1267014  61.9181938
  13.0722942  52.9656792  61.4881897  13.6239414  52.0330811  62.5450401
   5.5786633  35.4538841  14.6423111   4.9233127  35.8070602  15.2439880
   5.3740759  34.5204811  14.5863276  72.6568146  40.4830589  70.5063324
  72.8276062  39.6031609  70.8422546  71.7246475  40.4796638  70.2888947
  26.4718990   9.0741539  38.8977318  26.3471127   8.2262049  38.4715385
  25.5897541   9.3482742  39.1485558   5.0808315  62.2122078  80.2865219
   5.9652658  62.5219383  80.4816513   5.0402308  61.3403511  80.6795197
  77.5912704  12.5216541   0.5369341  77.0169067  13.2255917   0.8382819
  77.0793839  11.7231522   0.6657859  27.8953743  70.5080490  25.2531147
  28.1717510  71.0443115  24.5099678  27.5327454  69.7164383  24.8555164
   9.6748524  48.8166962  88.0893707   9.9376783  49.2311897  87.2675781
   8.9711828  48.2172279  87.8409424  39.2825317  57.9530449  23.4274063
  39.5807991  58.8109207  23.1252270  39.9883537  57.6395950  23.9929104
  73.3928680  30.9546947   7.9355230  73.7554703  31.4069653   8.6972313
  72.4936752  31.2765427   7.8714972  34.3711433  58.6347084  45.7415085
  34.5917931  58.9696732  46.6106148  34.1729546  57.7092667  45.8847160
   0.5933632   5.1982989  50.1048317   0.1451823   4.3814378  50.3241577
   0.5975533   5.2197204  49.1478806  13.1456289   4.2994795  86.5043030
  13.6728563   3.5066352  86.4060059  13.7032652   5.0011277  86.1681976
  29.1659813  58.6986351  58.4672546  29.1817036  58.2949142  59.3350067
  29.7118282  59.4798508  58.5566216  25.4541130  51.4016228  25.8070431
  25.7684917  52.1113052  25.2469120  26.1997795  51.1921806  26.3694897
  54.0361938  26.5938549  70.2673035  54.2433815  25.6938686  70.0156479
  54.8881760  27.0234985  70.3432236  45.1077957  44.8302307  80.1167526
  45.0147667  43.9956093  79.6574173  46.0432091  44.8946762  80.3093109
  37.4774475  61.5197563   7.2748690  37.0742302  60.7522659   7.6805897
  36.8408737  61.8068237   6.6201940   4.2155709  13.0312843   9.1579580
   3.5352712  13.5927544   9.5296774   4.7252412  13.6135244   8.5945168
   5.0796251  70.2635880   5.6473861   4.2969069  70.0266495   5.1499486
   5.8082862  70.0386429   5.0688663  51.9921684  39.1523590  85.5574799
  51.9209061  40.1045647  85.4906921  52.6583366  38.9161758  84.9119797
  68.2264252  46.6320419  28.0755329  67.2786560  46.5829811  28.2003021
  68.5662308  45.8509560  28.5121841  57.6927834  51.9951096  26.3180733
  57.9787407  52.2688179  25.4465561  57.3454399  52.7925758  26.7176151
  78.6970215  69.4899597  53.2509117  79.4965286  69.8928452  52.9122353
  78.2308197  70.2071609  53.6804657   0.2375096  39.9244614  26.8275757
   1.1690460  39.7113686  26.7722282  -0.1023323  39.3389511  27.5042706
  24.6632633  46.0001373   7.6978531  25.2784290  45.2962761   7.4919853
  24.6451283  46.0302315   8.6544085  72.9390717   7.0633445  46.4770012
  73.1456070   6.3947005  45.8239365  73.3298416   7.8654609  46.1303825
  39.5176849   3.3998241   3.1424751  38.8750839   3.1481822   3.8057780
  40.3501015   3.4285181   3.6141639  50.4622078  67.9974518  42.3424034
  49.6297951  68.3992920  42.0937119  50.2137756  67.2420731  42.8752365
  58.6669273  70.2784348  36.5281487  57.8966866  69.8962479  36.1075668
  59.3071289  69.5670853  36.5472145  39.3907166  57.6853752  11.0046463
  39.4545670  57.3398590  11.8950262  38.6717491  58.3160973  11.0434713
  19.2919159   0.5586536  49.2704773  19.4747314  -0.1423363  48.6448364
  19.9730339   1.2106314  49.1054459  23.7584877   9.3688717  30.8096409
  24.2466412   8.5635138  30.6383591  23.3477955   9.5827770  29.9719009
  11.5914183  26.2187977  41.9743271  11.2377853  26.2539482  42.8631134
  10.9181881  26.6300678  41.4322472   8.3352585  28.9969215  81.2604294
   8.6117535  28.1081581  81.4837723   9.0344086  29.5570927  81.5975189
   8.6737547   2.3352425  71.6350479   9.1708450   2.1437476  72.4303284
   8.3237190   1.4874048  71.3614120  82.6263275  57.6066475  61.2404709
  83.4436798  58.0927963  61.3492393  82.2245178  57.9855347  60.4586639
  19.3123398  33.4110641  10.4079895  19.4109497  33.3685875   9.4568300
  18.4283428  33.7528114  10.5421143  61.6114998  60.5487289  61.4782715
  61.7379227  59.6302643  61.2402077  61.4307289  60.5298653  62.4180603
  14.4570513  20.7451820   0.4959892  14.5687523  21.2209511   1.3190317
  13.5246468  20.5305367   0.4680576  41.0146866  40.1998558  11.8437281
  40.3736420  39.9347382  11.1841803  41.1310120  39.4229012  12.3905773
  52.0403481  53.8977814  30.4062157  52.8206673  54.4415894  30.2984753
  52.3006744  53.0374527  30.0771255  60.2237015  43.2599716  82.3048782
  59.7923126  43.5752335  81.5106812  59.9754715  42.3372917  82.3621140
  82.9649887  42.2464409  88.9821930  83.8789673  42.4074745  89.2165985
  82.9683914  42.1947327  88.0263977  11.2657967   9.3973408  42.2541046
  10.5211887   9.0262957  42.7275124  10.9322052  10.2158270  41.8866386
  86.1891327  47.2396011  42.8288574  85.5883560  47.7101669  43.4066734
  85.8221283  46.3575974  42.7687950  74.7687988  38.6896248   5.1916318
  74.5536041  38.8508873   6.1102800  75.7099991  38.5153122   5.1931510
  27.8116226  50.5062561  54.9083633  27.0946732  50.3142700  54.3039169
  27.3787804  50.8312035  55.6978493  36.6887665  62.7907677  87.7338943
  36.8650055  63.3438988  86.9728317  36.1165962  62.0996780  87.4003601
  22.6060467  41.8017769  83.2887955  23.0563374  41.1921883  82.7040939
  22.1892452  41.2417984  83.9437256  24.9929771  30.4874516  77.6670761
  24.6147804  31.0460701  78.3461533  24.6240711  29.6206989  77.8370209
  13.0417576  67.5825119  64.5194626  13.1353827  67.1416931  63.6749802
  13.8133764  67.3125381  65.0174103  26.5900230  31.9174290  88.0326233
  27.1370373  31.9913845  88.8146362  25.8685856  32.5274353  88.1864090
  39.9132233  71.4775620  37.9124718  40.1483002  71.1572266  37.0416374
  39.0112724  71.7842560  37.8194427  79.9747543  52.0818214  33.0941315
  79.2701950  52.1319160  33.7401352  79.9640274  51.1716042  32.7981224
   2.9216325  31.4655685  21.1360664   2.1564806  32.0302467  21.0269279
   3.2052865  31.6181374  22.0374508  71.5491791  43.0298424  10.7483263
  71.8049088  43.9277649  10.5372038  72.3536682  42.6202126  11.0664978
  59.2849121  53.0995750   6.0315466  59.8839798  52.4756432   5.6215973
  59.1120300  52.7316437   6.8981328  28.3994579   7.4961100  63.2164154
  28.7352180   7.2186198  62.3640671  27.7904911   8.2064085  63.0142593
  68.6281281   1.8757241  74.0227356  69.3049774   2.4593835  74.3654404
  68.1893463   2.3897681  73.3449020  85.5483551  35.4496803  88.5021057
  84.9311295  35.2512627  87.7979050  86.3952942  35.5285225  88.0631180
  17.7698574   9.2744951  32.9997902  18.0536366   8.8086214  33.7863426
  16.8140125   9.2322178  33.0281334   1.3141614  41.3243103  34.4350128
   1.5010089  41.7915306  35.2492790   0.8195818  40.5522728  34.7099380
  77.6619949  56.0650101  70.4989548  77.6836090  55.7457466  69.5968246
  78.5817947  56.1982803  70.7279587  66.4462204  15.2774429  75.1256714
  65.5493698  15.6091318  75.1688843  66.4663696  14.7442789  74.3309631
  33.7079163   0.6101143  77.2519226  34.3494148   0.7586939  76.5571976
  32.9178123   1.0568029  76.9478836  65.2978745  17.0888004  69.5120087
  65.2240219  17.1611156  70.4636154  66.2350006  17.1753597  69.3372421
  66.6970520  60.0361824  21.7445393  66.2394257  59.3302956  21.2878876
  67.4366455  60.2495537  21.1755905  70.1674042  47.6113281  67.7950592
  70.5150146  47.6809349  66.9059296  70.3988342  48.4430389  68.2084961
  57.9670219  60.0778999  10.1535349  58.1273956  60.6574326   9.4087839
  58.7389793  59.5129890  10.1880150  65.8829346   8.4660358  77.8564072
  66.6045380   9.0907850  77.9285965  65.6110992   8.3085794  78.7605896
  40.8171921  46.4694519  64.7586517  40.6142654  46.6716881  63.8453369
  41.6449661  46.9201889  64.9255600  60.6073341  42.5865135  47.2332573
  60.7157784  43.5094490  47.4627419  59.9666443  42.5902176  46.5221062
  42.4821663   4.8919439  84.2290955  43.3859367   4.7993755  84.5305176
  42.0019913   5.1927018  85.0005951  56.5605202  58.7141457  35.1893158
  56.2115440  59.4484444  35.6945419  55.7854309  58.2710876  34.8441048
  64.4292145  25.6028080  60.8698997  63.6493263  25.6318035  61.4241219
  64.8629990  24.7838688  61.1094894  51.8169136  28.5185833  15.6856966
  51.4498901  29.2518063  16.1795673  51.3983383  27.7437572  16.0607605
  25.8001995  56.4048042  23.6231022  25.8151016  56.8604202  22.7814217
  26.6010170  56.6891975  24.0636101  39.5098114  60.1812286  59.0701981
  40.0887489  59.4861450  59.3831253  39.5543671  60.8540344  59.7495956
  53.9087982  59.8926277  69.0811462  54.8540878  59.8915443  69.2316589
  53.7899284  59.3514862  68.3005905  86.7093201  38.4820328  50.7559242
  86.1141663  38.0811768  51.3894310  86.8663330  37.7958145  50.1073265
  40.5125732  53.2173767  76.9971161  40.9473801  54.0455132  76.7937241
  40.7493248  53.0398140  77.9074249  30.1924171  20.9360828  89.1552124
  29.9374332  20.1694756  88.6418610  29.4017334  21.4744091  89.1906433
  68.5048599  44.2654991   1.1507466  68.9866867  45.0873375   1.0576944
  68.7742004  43.7430878   0.3952499  32.4640198  66.7852249  85.1753693
  32.4527931  66.1767273  84.4365692  33.3170624  66.6466293  85.5868759
  71.2214203  67.8837738  57.0891762  70.5433502  68.2090149  56.4970016
  70.8726273  68.0471649  57.9654579  24.5146084  66.8131714  11.4880810
  23.6217995  66.9617233  11.1765461  24.5083103  65.9126968  11.8126497
  78.6730118   2.8283126  71.3633881  79.0729599   3.4107354  70.7175903
  77.7591324   2.7567062  71.0878448   9.1206646   2.0106502  86.3451080
   8.4371119   2.6793010  86.3015976   8.6577778   1.2108105  86.5945587
  68.1238861  54.5026703  51.3970528  68.6884460  53.8224831  51.7642860
  67.6632996  54.0694542  50.6784363  51.9914856  66.3782425  13.7535982
  52.6634941  66.9817429  14.0704966  51.5212822  66.8739548  13.0832176
  71.6370392   8.0707531  30.6775780  72.2521439   7.3379545  30.7072220
  71.3807068   8.2053566  31.5899448  78.3743820  16.5707302   9.3255844
  77.9389038  17.4127541   9.1929636  78.0768738  16.0294228   8.5943470
  63.5968361  13.4120150  56.2514114  63.4796982  13.0059767  57.1102753
  63.2990456  12.7477875  55.6298409  31.6778355  64.3270874  37.9149818
  31.8289452  64.3369980  38.8601265  31.2327232  63.4954376  37.7523003
  57.4979706  65.4735794  47.4027100  57.7532921  65.8903198  48.2257347
  58.3272095  65.2490845  46.9805756  84.2067184   9.2344484  42.3300400
  83.4030991   8.8669119  42.6979370  84.8759689   9.0563183  42.9908028
  30.5388184  45.8269653   1.4580034  30.3882809  45.7306862   2.3983760
  30.0920601  45.0767174   1.0658731  73.8239670  44.1193657  72.8483582
  72.9976196  44.2727432  73.3064651  73.7805786  44.6876984  72.0793686
  53.9428139  46.0388985  28.8496876  53.8712158  45.3611374  28.1775646
  53.3749924  46.7444382  28.5398159  28.9232025  42.9403267  54.3371735
  28.5867310  42.7043915  55.2016716  28.1416817  43.1439590  53.8233757
   5.3929534  37.8712654  65.4772339   6.1738820  38.2028999  65.9204025
   5.0766101  38.6133690  64.9620285  75.9904022  45.5605736  48.3408546
  75.3416443  46.1603584  48.7091026  75.5741577  45.2121544  47.5524521
  72.0439529  40.5167198  28.8971920  72.0979156  39.6444206  29.2875977
  71.2741318  40.9140968  29.3042450  20.1643009   6.1669512  57.3345413
  19.4196548   6.3049612  57.9199371  20.3825169   7.0421462  57.0141563
  48.1312294  53.2870293  43.7316437  47.8820381  54.0524483  43.2136917
  47.7786865  52.5426826  43.2439041   9.3493576  37.8043251  43.3463554
   9.1977701  37.9938393  44.2722816  10.1016064  37.2124290  43.3430557
  39.2820244  10.2993116   2.4898593  39.6188087  10.9006186   3.1541164
  39.5371704   9.4309473   2.8014312  29.5372162  70.5755615  83.4884338
  28.6827717  70.6469727  83.9139481  29.7051773  69.6342163  83.4449005
  85.1648788  25.1091061  16.4399395  85.8802795  25.5784225  16.0107765
  85.4146423  24.1868839  16.3819790  38.1885796  10.9064093  38.8874702
  37.5001373  11.3231964  38.3692360  38.6903610  11.6363363  39.2503128
  36.7587662  31.7342777   7.5357690  37.1374664  31.8927174   6.6710629
  36.7771111  30.7823620   7.6345134  49.2237091  70.1238098   8.2328043
  49.7575798  69.7400055   7.5371671  48.6952400  70.7880173   7.7903366
  76.5402756  59.2287254  55.5102463  76.3952103  58.3661118  55.1215439
  75.6834641  59.4847412  55.8516617   9.6071854  42.4351540  87.8424606
   8.7710466  42.7294502  87.4812241   9.5016851  41.4900360  87.9513321
  18.3797913  25.8929329  22.0298519  18.6150990  25.7537403  22.9471798
  19.2030163  25.7880611  21.5528488  42.9627419  57.9709167  53.8988724
  42.2087288  57.6008148  54.3579140  42.9582863  58.8974609  54.1391487
  19.9694061  59.0182800  54.7278976  20.3419762  58.8231621  53.8680420
  20.3932152  58.3962975  55.3192978  84.8001404  10.8216887   5.3973703
  84.4363708   9.9829865   5.6810651  85.6962204  10.8202238   5.7339191
  33.0090981  51.6535072  53.5044174  33.3843231  52.3276787  54.0709267
  32.1519852  51.4680862  53.8880997  62.6281624   5.4807053  81.9300308
  63.3038483   5.5384183  82.6055603  63.0094604   4.9163265  81.2574844
  64.7040176   7.3394442  44.1378288  65.2425308   6.5542321  44.2362137
  64.2687988   7.4390287  44.9845276  64.2374649  53.4294128  86.2715759
  64.1793823  53.6206818  85.3354797  63.3283730  53.3201332  86.5505753
  24.4153786  17.7056580  84.6158981  24.9840050  16.9477978  84.7520752
  23.7884388  17.6675663  85.3382034  64.3129807  50.8893204   8.1416464
  64.2160263  49.9496727   8.2962236  65.2456970  51.0588531   8.2740679
   9.8627577  54.4578819  76.2638397   9.4329987  53.7537766  76.7494125
   9.6869879  54.2568626  75.3446426   6.3696513  59.4285622  19.4038086
   6.5859017  58.7688751  20.0628090   7.0535913  60.0919189  19.4955330
  46.1778183  29.7235527  83.9417572  47.0510254  29.3322697  83.9670334
  46.0025635  29.8582077  83.0104218  85.7237091  55.6348801  48.0183029
  86.6364136  55.5709152  48.2995720  85.6785736  55.0974884  47.2274780
  41.4194756  21.2006607  26.6222477  41.7236404  21.7813301  27.3197708
  42.0437317  21.3353443  25.9092312  39.5386963  29.6297569  27.2650204
  40.1432877  30.2356358  26.8365173  39.3607788  28.9611111  26.6035919
  54.7645187  55.7116356  73.1959686  53.9281311  55.7604599  72.7330322
  55.0677910  56.6185036  73.2389145  54.2895126  70.7277908  40.4972725
  53.6515961  71.2765808  40.0410652  53.7917595  70.3210373  41.2065163
  85.4896851  33.1794434   8.6413994  84.7518158  33.5519562   8.1586771
  86.2613525  33.4426880   8.1399412  61.0340652  45.9670219  36.4538765
  61.2410851  45.5183601  37.2736816  60.0902977  45.8479042  36.3473587
  37.2515182  61.2977257  27.7669010  37.6283646  61.3639107  26.8894978
  37.2316170  60.3581772  27.9487782  85.1285934  36.9060593  52.3436584
  85.2796021  36.0505447  51.9417648  84.1756668  36.9889717  52.3795509
  50.2261925  21.0756092  86.4812775  50.7926979  20.3430500  86.7234802
  49.3869362  20.6685181  86.2664337  13.6252108  47.9944000  71.4819107
  13.5301943  48.0908623  70.5343323  14.3301163  48.5986786  71.7146835
  51.9421654  43.7916260  76.0950775  52.3658218  43.1770439  75.4958801
  52.4738274  44.5856323  76.0391998  79.4501572  52.3587265  10.5889702
  79.4616241  51.4111748  10.7240505  79.7674255  52.4768791   9.6936417
  40.3027725  62.5765610  60.7344398  40.9922066  63.2400970  60.7597389
  39.6626472  62.9199257  60.1110840  20.4633465  66.4994812  86.5433731
  20.1258850  65.6384430  86.7902679  20.5214863  66.4691315  85.5884171
  79.4650726   1.1928573  65.3977890  79.7547531   0.3245143  65.6776123
  79.7170410   1.7725648  66.1166000  78.3727264   9.8119917  69.8690796
  79.0519867  10.4085712  70.1836090  78.5003052   9.0128908  70.3803482
  42.1086044  11.0589743  20.4102020  42.1641159  11.3948317  21.3048248
  41.1872444  11.1624746  20.1722527   9.7680044  46.4295273  53.1052475
   9.9932060  46.3955116  52.1755371  10.5993118  46.6031456  53.5468521
  46.0879326  24.3750401   9.3661747  46.9648514  24.7576752   9.3950672
  46.0695076  23.7625809  10.1015558  59.3088303  33.8420143   4.3246756
  59.1453514  33.5674858   5.2269726  60.2603340  33.7986870   4.2298040
  70.4660797  24.8592110  40.3397560  71.3862610  24.5998821  40.3872337
  69.9880142  24.1132412  40.7019844  84.8035049  68.0540848  12.1939516
  84.2738342  68.5649033  11.5817871  84.6043015  68.4275742  13.0524721
   8.5532475   9.7719316  38.7656403   9.1943169   9.5727959  38.0832863
   7.7111144   9.5277061  38.3817177  39.1633301  47.4561729  17.2509136
  38.5895348  47.3447762  16.4929008  39.9435692  46.9441986  17.0379810
  66.9541168  46.2665634  61.0113449  67.0034332  45.9575348  61.9159470
  66.4184647  45.6118240  60.5634346  86.0808792  41.0749245  72.7911682
  86.3908691  40.6343765  73.5824127  86.8397980  41.0817261  72.2078781
  48.5470886  52.0872231  77.3783875  48.5092049  52.6358299  76.5949097
  49.2106743  52.5021744  77.9294739  59.4287834  17.0611610  67.6307907
  59.9482422  17.7822857  67.9862823  58.8945732  16.7647896  68.3676834
  56.1531754  53.6028366  39.1376686  55.7772408  54.4662552  38.9661865
  56.1609192  53.5302391  40.0920830  83.6861343  55.1366844   2.7414873
  84.4893265  55.5591011   3.0459225  83.0127716  55.8113632   2.8288090
   2.6980813  27.5273972   9.2454329   1.9963567  26.9053745   9.0533352
   3.1847661  27.1248074   9.9646626  22.7971401  13.9267817  73.8247604
  23.6952858  13.6239958  73.9584961  22.2520943  13.1954622  74.1151505
  36.9532890  48.4369011  29.4237823  36.2011681  48.2565765  28.8598404
  37.4357147  47.6106148  29.4511223  68.2088013  15.0377035   9.5526695
  68.7019196  14.3063068   9.9243145  68.1602631  15.6787767  10.2618246
  78.8318253  57.5171967  21.3242435  78.0520477  57.0495033  21.6233101
  79.2088165  57.8888016  22.1217518  60.5163574  53.4614029  81.9628983
  60.8535118  53.0837479  81.1505356  60.1744614  54.3175240  81.7052231
  67.3421860  58.3943176  81.5071564  66.8271561  58.4810982  80.7050095
  67.9208603  57.6501808  81.3409195  24.8044453  68.6532135  82.5858841
  25.4874973  68.9390182  83.1924973  24.9617863  69.1624985  81.7908325
   4.6380658  13.3895512   2.9593172   5.4960961  13.8136511   2.9717927
   4.4073377  13.2886086   3.8827927  70.1504974  37.5559845  20.4011078
  70.1105652  38.5097885  20.3311119  69.8996887  37.3715439  21.3062649
  17.3611069  53.9415131  28.3175488  17.0870667  53.0322609  28.1975689
  17.5947571  54.0009995  29.2438850  22.9398232  25.8939934  17.9468136
  22.9104214  25.6239243  17.0289745  23.3884754  25.1760540  18.3934746
  42.2587776   6.5895615  18.8348637  42.4168282   5.6582847  18.6800232
  42.3840332   6.7002926  19.7773514  13.6464739  56.7202377  73.0683670
  13.4961061  56.3071404  73.9186478  14.3331747  56.1907921  72.6629562
   4.4316087  71.6216202  34.6645393   4.1521869  70.7074814  34.6144905
   3.6870856  72.0785675  35.0558395  12.3047066  16.1696167  67.1433334
  11.5824604  15.5860825  66.9107819  13.0717926  15.5982752  67.1804581
  46.2866325  58.1483917  49.9855614  46.0093994  57.2767830  49.7033005
  45.5503578  58.4789467  50.5002098  52.0161018  66.1815338  65.2606430
  52.7610512  66.7771149  65.3416824  51.5203209  66.5182724  64.5142899
  30.2051868  22.0292416  83.9281464  30.5911579  22.9045601  83.9609680
  29.9157333  21.8613300  84.8249512  82.9935913  40.7367973  61.2362442
  83.1112213  40.7981415  60.2882843  82.2557449  40.1373138  61.3477402
  21.5837841  19.3425560  10.3836040  21.0752754  18.7721329  10.9600306
  21.5204754  18.9302940   9.5220575  14.8999872  38.6758156  73.8581848
  14.2637234  38.1588440  74.3522949  15.6129827  38.8333130  74.4771042
  36.5732498   6.5799770  70.0058975  36.3679581   7.4431629  70.3650589
  36.7721214   6.7451558  69.0842667  43.9016991  47.0557938   3.4133580
  44.0499992  47.9186897   3.8002043  43.0803108  46.7565002   3.8032007
  45.4986305   7.8218989  20.1090584  45.5081100   7.6105552  21.0425854
  44.9003868   8.5657263  20.0379448  66.3953857  62.9642448  68.8681488
  66.1876984  63.2341499  69.7627106  66.3969421  63.7793427  68.3663025
  33.6517525   9.8755722  77.6602402  33.8219719   9.0092335  78.0299911
  33.2942314  10.3814116  78.3899918  83.0038681  20.5330925  67.6757431
  83.1974106  21.0229416  68.4750061  83.7879791  20.0060329  67.5220566
   3.1359327  21.7555656  10.0070372   3.5142965  22.4500885  10.5462141
   2.4051611  21.4203243  10.5264769  40.5823517  68.9500809  63.3067017
  41.1200218  69.4742432  62.7130699  40.5398788  68.0878754  62.8931351
  46.8857689  67.2349854  34.3826141  46.7322464  66.4127426  34.8479919
  47.0881042  66.9684525  33.4858131  83.1513977  16.3001652  30.0269833
  82.9590836  16.8355999  30.7967606  83.9128189  15.7790918  30.2818279
  12.7343969  46.0992241  84.4415359  12.1697721  46.5648079  83.8245621
  13.4961195  45.8421097  83.9220123  68.5146255  36.1536102  12.1398478
  68.4307327  36.1780472  11.1866436  68.9363861  35.3138046  12.3217144
  54.9253731  36.0707207   7.6703000  55.8058586  36.0216522   8.0425482
  54.3962708  35.5035057   8.2311449  65.2857819  46.6307259  64.1611938
  65.1142807  47.2086220  63.4176483  65.0522156  47.1525002  64.9289322
  46.3605881  57.5705070  33.8844337  46.9781609  57.5548439  34.6155891
  46.0729408  56.6620026  33.7943726  75.0920486  41.0358315   1.0891280
  74.7234497  41.3740883   1.9051867  74.5396347  40.2855606   0.8696678
   5.4491982  42.5622749  59.3373184   5.1174111  43.0531616  60.0890999
   5.3570728  41.6439972  59.5913048  20.6827469   6.9362421  71.5803986
  19.9028416   6.8422294  71.0334549  20.5397301   6.3305016  72.3076248
  33.8876839  11.5187349  60.5778160  34.8203964  11.4063711  60.3943672
  33.7921715  12.4514294  60.7706604  32.0589714  57.1143761  38.5635910
  32.2526360  58.0459137  38.6683044  32.4220123  56.8890762  37.7070465
  41.8915825  33.7121506  13.7384825  41.0362358  33.7225914  13.3089371
  41.8527107  32.9616814  14.3313704   2.1932688  71.5726089   5.0073671
   2.0401227  71.2482071   4.1199331   1.6338497  71.0281296   5.5612850
  73.2743759  11.0018682   6.6481204  73.6342850  10.5441332   5.8884001
  73.7653961  10.6536140   7.3923311  65.9838486  63.1961632  10.6971359
  66.0515366  63.3140030   9.7496319  66.7241287  62.6325111  10.9218864
  67.7635422  24.8809185  38.6763420  67.2715302  24.4754829  39.3903275
  68.6813660  24.7670326  38.9230461   7.1864038   6.1096621  44.0559769
   6.5175633   6.0331817  44.7364426   6.7015266   6.0349107  43.2340622
   2.1524982  25.8844719  40.1890450   2.0874348  26.8380013  40.2417603
   3.0847416  25.7012100  40.3055344  23.2834682  33.8412209  28.0372753
  22.5553493  34.3876724  27.7415295  24.0621643  34.3764229  27.8842449
  25.3816299  70.3675385  80.5573273  26.0182323  69.9913406  79.9495087
  25.3521786  71.2965622  80.3286667  25.3900318  32.8692055   6.9731908
  25.2605362  33.4732094   7.7043824  25.7770443  33.4079742   6.2831335
  60.5072021  58.9995613  70.0890121  59.8431168  58.3498039  69.8587036
  61.2961082  58.4853134  70.2604980  10.2280521  52.0926437  60.9010963
  11.1301956  52.1683846  61.2119522  10.3087368  52.0012436  59.9516907
  61.1267853  39.4197769  40.4520264  62.0607491  39.5233574  40.6342850
  60.7815361  40.3125381  40.4559631   5.8251143   9.4709959  25.8938828
   5.1919789  10.0403538  25.4566135   5.7043982   8.6163244  25.4801235
  74.6257248  37.5631294  46.0962868  74.4273453  38.4993095  46.0750961
  74.4313736  37.2570076  45.2104263  35.2443848  69.3193893  79.8837585
  35.9244347  68.6636963  80.0381317  34.4395256  68.9086151  80.1995010
  14.6337900  53.3857536  51.2405663  13.9113674  53.3196754  50.6160889
  14.7458181  52.4949112  51.5723534  67.9984512  65.2429047  21.3313522
  67.6598969  64.8669662  20.5187740  67.5488205  66.0841064  21.4116459
  81.7658310  18.3077431  81.2390137  82.0118408  18.9671783  80.5902786
  80.9740753  18.6575031  81.6476974  14.9435387  10.0960922  35.8811684
  15.7597809  10.5049734  35.5934258  15.1655951   9.6773272  36.7127686
  30.1652603   1.9514592  85.8406601  29.9435215   1.3243679  86.5290070
  31.0344410   1.6829098  85.5429382  21.5807552  26.8688583  39.8303642
  22.1770020  26.6177921  39.1248932  20.7733688  26.3898907  39.6434097
  38.2260056  48.2664108  25.9574051  39.0577202  48.3987045  26.4123573
  38.0684395  47.3240623  26.0155563  14.4729662   1.6387351  72.7808533
  14.1576376   1.5745721  71.8793640  14.4230604   2.5723217  72.9861755
  45.9123688  35.7142601  10.7038116  45.0331993  35.6420593  11.0753956
  45.8730469  36.4900780  10.1445351  51.7474213  13.8666191   3.7219198
  52.3676796  13.9495554   4.4462337  52.2977066  13.8071556   2.9409726
  72.0317612  46.5959053  18.7989998  72.4392319  45.9174042  18.2606316
  71.1483154  46.2687645  18.9685001  45.6627884   5.1656179  46.2499580
  45.1917343   4.7666655  46.9815178  46.5873909   5.0405841  46.4637413
  25.4207325  49.2274094  44.0040588  26.1437149  49.2586555  43.3775215
  25.6472607  48.5097656  44.5955849  70.5369110  47.0158844   3.6278777
  71.0055237  47.8405762   3.7564166  71.2154007  46.3432312   3.6864088
  30.3258362  63.8213158  43.2975388  29.6323185  63.2262688  43.5824738
  29.8615513  64.5966415  42.9820366  36.2966309   0.5421556   9.7210836
  36.3816605   0.3677659  10.6584148  35.3700180   0.7488502   9.5990076
  43.5039101  34.4930153  11.9207983  42.9306183  34.1262398  12.5938854
  43.3031044  33.9870567  11.1334515  67.2227020  50.7969627   2.1428659
  67.6323395  51.6225853   2.4012718  67.8652573  50.3801651   1.5687307
  42.3538094   1.6884900  84.5639191  42.0629311   1.7570580  85.4732666
  43.3066292   1.6177403  84.6219254  14.6534815  35.5010452  78.1262207
  14.5256195  36.2169151  77.5037918  15.1992569  35.8782082  78.8162231
  76.8332520  35.4843292  83.2017059  76.3961258  36.2377167  83.5986404
  77.2733536  35.0503006  83.9325714  18.9901161  13.3867302  82.7194595
  18.9642696  14.3435726  82.7155075  18.1055317  13.1242867  82.9741516
  85.3398438   8.2776775  72.1508331  86.2391891   8.1749134  71.8396378
  84.7979889   8.0796041  71.3870239  78.9713974  38.7310677  45.5460052
  79.6272583  38.7210121  46.2431297  78.8646164  37.8110542  45.3043289
  13.9817591  26.4901981  84.9443436  14.8382807  26.8539886  84.7201614
  13.4969521  27.2286320  85.3130035  40.5987320   1.8808891  72.6614304
  40.9889526   1.0366850  72.4349823  40.0468063   1.6936609  73.4207458
  42.2707024  47.9396591  13.5383520  42.5364990  48.4004784  14.3341093
  42.3640785  48.5901375  12.8423710  84.8755569  43.4833031  48.5536194
  83.9436035  43.6172943  48.7260933  85.1730042  44.3152275  48.1852989
  45.1431656   6.7359056  83.1470490  45.2841606   7.6701961  82.9939041
  44.4748573   6.7035780  83.8315582  28.2716484  43.5173225  87.9657822
  29.2119236  43.3565559  87.8866272  28.0421886  43.1757889  88.8300400
  69.3731384  61.7264557  43.1686440  70.0272293  61.3528709  42.5780258
  69.8143234  61.7715111  44.0169106  33.3469582  37.9394417   3.8011007
  34.0360184  37.7718239   3.1581924  32.5565262  37.5708847   3.4066155
  79.6963501  64.6900940  82.1115646  78.8773804  65.0750580  81.7995911
  80.2101212  65.4368515  82.4191818   1.8698890  35.1922722  20.5833778
   1.1619645  34.6236267  20.2805309   2.4165664  35.3271217  19.8093033
  77.6884308  32.4888382  68.5060654  78.1101227  31.6491661  68.3234329
  78.3233337  33.1438179  68.2160110  75.7972870  36.9692688  12.3966026
  75.9054871  37.7820816  11.9027786  76.5256271  36.4172783  12.1118898
  26.9612885  56.6078377  40.3074799  27.0616722  56.0198708  39.5588493
  26.0814629  56.4266129  40.6380806  23.1278496  50.2744484  25.1885509
  22.6465874  50.1331635  26.0038166  23.8848572  50.8009186  25.4454498
  64.4089508  30.2754250  88.3460159  64.6841278  29.3973999  88.6097946
  65.0160370  30.8622570  88.7969055   7.0769286  39.7039490  22.1435795
   6.7468204  40.2738037  21.4489403   7.6409211  39.0767479  21.6910706
  82.6786575  31.2590103  53.3725815  83.0473099  31.5050297  52.5241699
  81.8463821  30.8372574  53.1588669  75.5973206  48.6308556  81.8121033
  75.8198853  48.6926613  80.8831940  76.2851791  48.0809250  82.1871414
  73.2740326  59.1212807   4.8630085  73.7738495  58.7045860   5.5649924
  72.6751175  58.4396362   4.5582304  82.0491867  20.8105373   8.5553885
  81.5498810  20.1354618   8.0958214  81.3834457  21.3785000   8.9432535
  65.7683182   9.8063307  16.5339298  65.3296585  10.6101913  16.8125343
  66.7003479   9.9878321  16.6548061  12.2096682  19.7008629  37.7488022
  12.6766624  20.2187042  37.0930672  11.4728403  20.2532558  38.0099106
  39.1805344  16.2107735  33.2956429  39.3415718  16.7748547  32.5392647
  38.3304596  15.8083677  33.1176567  55.9364777  21.6163540  84.5859146
  55.3526917  22.1337261  85.1406708  55.5359650  20.7473125  84.5616608
  43.2947960  37.9604340  16.4881783  42.8429756  37.8558273  17.3255253
  43.2375488  37.0985107  16.0758171  45.9509392  64.2103424  54.9793167
  45.8066826  65.0431671  54.5300751  46.3774109  64.4523621  55.8013725
  11.7945671  44.4208336  75.2331085  12.5141640  45.0445099  75.1359482
  12.0221844  43.6992722  74.6467819  41.9552612  25.8134212  25.4720020
  41.1757736  26.1119747  25.9405117  41.6330261  25.1344643  24.8792000
  68.1198730  61.8326073  12.7505379  67.1782532  61.8431282  12.9222202
  68.2076797  61.3543396  11.9260502  46.2432709  61.6738930  68.4600525
  46.7259140  62.3567543  68.9258804  46.5084724  60.8593521  68.8871689
  77.9576416  45.2308083  31.3677692  77.0610123  44.8999557  31.4208126
  78.3395538  45.0255623  32.2211456  75.0294113  38.5839539  76.6585999
  74.3937149  37.8700066  76.6095657  75.7027054  38.2643204  77.2592163
  55.7766609  68.9911194  67.6494598  56.7284851  68.9330368  67.7324905
  55.5552292  69.8440247  68.0233002  25.0979519  13.3587313  27.5147705
  24.2152691  13.5746822  27.8155479  25.6523170  14.0445480  27.8870163
  76.5414276  66.3695831  62.5516968  77.4541779  66.2765961  62.8245811
  76.0694427  65.7157898  63.0674706  42.1885338  18.9238129  67.5123138
  41.7531967  19.2424583  66.7216339  41.6605797  18.1757793  67.7914963
  81.9146576  54.3532524  72.8162384  81.4620667  53.5171928  72.7049179
  81.5772247  54.7001724  73.6420822  72.3744354  20.3592548  75.6054153
  72.4813766  20.0169449  76.4928894  71.8857269  19.6782055  75.1432800
  78.8998642  37.7247314  13.1263723  78.0278015  37.7643967  13.5190067
  79.4933624  37.9712296  13.8357601  50.3504944   4.9819279  83.4269943
  51.1358681   4.8748641  82.8903885  50.6755905   5.3141484  84.2637634
  68.1181793  48.9039612  49.0405807  69.0131531  48.8702507  49.3783989
  68.0351028  49.7824669  48.6696892   0.6682472  17.7645912  42.8714066
   0.7501714  17.1528301  42.1397858   0.2642882  18.5432835  42.4884148
  49.2666512  17.2510433  20.6507950  48.5947151  16.6585274  20.9879284
  49.9203415  17.2937660  21.3487186  60.5273819  19.8808899  83.9401016
  60.7823486  20.6505814  84.4488220  60.0849724  19.3127556  84.5707550
  54.1757584  68.4493866  45.6335831  54.6721230  68.2778397  46.4338493
  54.6332436  69.1816025  45.2203064  71.4264908  43.9924316  84.2478027
  70.8424530  44.2942543  84.9435349  72.1634369  43.5931854  84.7101288
  37.1780815  24.1381512   4.6683946  37.4220276  23.9165440   5.5670667
  36.3133659  24.5409698   4.7473464   3.0833356  66.1388474  57.2567863
   2.9033406  65.4679871  57.9154015   2.3513277  66.0747681  56.6433601
   9.3971272  25.8891716  22.9910030   9.0769024  26.4566841  22.2898464
   9.0218658  25.0307827  22.7945881  18.8458366  34.7566223  71.0628662
  19.3502789  35.5692673  71.0257721  17.9329357  35.0385284  71.0047989
  36.2691956  51.1625748  18.3780575  35.4577904  51.6198311  18.5989132
  36.8747940  51.3960114  19.0816116  28.8506813   5.4055023  50.2802124
  28.5307770   6.3026056  50.1848259  29.7118282   5.5003071  50.6872406
  81.4801788  34.0075073  57.8751183  82.3635025  34.3657761  57.7878876
  80.9488068  34.5318298  57.2759857   3.4732194  62.2379456  61.0333595
   3.2294762  61.3131371  61.0727234   4.3371482  62.2756195  61.4437752
  17.3519001  53.3423119  85.4123383  17.8797646  53.3362617  84.6138687
  17.5889015  52.5313835  85.8622894  51.2546234  62.2517319  73.8898621
  51.0183868  63.1416626  74.1514893  51.7369843  62.3630142  73.0706100
  25.8653698  21.7910233  21.9092236  25.2557850  21.2387791  21.4196701
  25.4970837  21.8302479  22.7918663  60.5832520   5.2869143  79.5963821
  61.4311600   5.1821585  80.0280228  60.6940117   4.8637547  78.7449722
  83.4534149  37.8913689  56.5921173  83.8749390  37.2946053  55.9737129
  82.6261902  38.1266670  56.1719246  77.3625793  54.1129227  11.5482445
  77.4511490  54.3440933  10.6236105  78.1031647  53.5318756  11.7218647
  51.7103081  47.1215477  14.4328747  52.1455727  46.3931770  14.8758802
  50.8975525  47.2483253  14.9223547  32.7144814  55.6212273  36.3774643
  32.8914909  56.2875328  35.7134361  33.5809555  55.3344688  36.6659584
  10.0482140  45.0285187   6.2333789  10.6081324  45.2903862   6.9642334
  10.5857744  45.1755981   5.4551582  79.2248383  69.9645844  19.4846268
  78.3973694  70.4301834  19.6060371  79.8149414  70.6185913  19.1100807
  20.0378761  54.1429482  57.6834984  20.8727703  54.1025429  58.1499214
  19.9308014  53.2690392  57.3079300  19.0966034  51.5717010  23.2801075
  19.3784180  52.4582100  23.5057430  18.8140469  51.1912384  24.1117592
  40.7472725  52.9426842  65.1611176  40.9780197  53.2290344  64.2773819
  40.5270271  53.7505913  65.6248169   5.4566059   5.8139615  33.8517265
   5.2916541   5.6624436  32.9211006   5.6276665   4.9428110  34.2095909
  46.6108589  55.0013390  84.6391907  46.8912315  54.9943810  83.7240067
  45.8034325  55.5154343  84.6384354  76.2323456  25.4209366  58.6511459
  75.5974197  25.1830196  57.9755020  76.2661743  24.6574707  59.2275200
  61.4101295  27.2692966  34.6799049  62.1722069  27.1320858  34.1171951
  61.5103645  28.1640377  35.0049019  11.8169556  59.9928856  80.1451874
  11.1508217  60.6139259  79.8505630  12.5209532  60.5423203  80.4897842
  74.0605240  55.0377502  81.9209595  74.7388458  55.4663467  81.3990173
  74.0102005  54.1502228  81.5660019  53.1457214  12.5652466  18.4289837
  52.5852127  13.3078146  18.2039204  53.3250504  12.6749020  19.3628178
  54.4091187  51.7429504  63.3502502  54.5541420  51.5633163  62.4213104
  55.2486115  51.5465775  63.7660866  47.6397209  45.7813339   6.6529570
  46.8368988  45.5224648   6.2005239  47.3367691  46.1851578   7.4662070
  48.1889458  38.9873886  15.2705173  48.7901917  38.2425995  15.2656021
  47.6717796  38.8829880  14.4718485  33.1687927  70.0815201   8.1930447
  32.2395020  69.9221497   8.0279703  33.6075783  69.7888794   7.3942590
  30.5516453   5.3292141  26.0448017  30.2342625   4.5140243  26.4333439
  30.5554256   5.1599431  25.1026936  31.6934299  47.6244240  18.6432362
  31.1284409  48.1700935  19.1902885  32.3968201  47.3450584  19.2292652
  80.2578506  25.4372959  19.8359165  80.7239380  24.8380013  19.2529545
  80.0495377  24.9085732  20.6061687  85.7035828   1.4871655  66.7120285
  86.3062363   1.0848317  66.0865936  86.0868378   1.2992363  67.5687866
  53.8193092  30.2083664  14.1989231  53.1629791  29.5207558  14.3114223
  53.6201096  30.5922070  13.3449812  33.0075455  44.2672958  55.2343979
  32.6368752  43.5762138  54.6855469  33.4291801  43.8000908  55.9556313
  10.9576998  22.2091084   8.8459196  11.4053593  21.7261982   9.5406361
  11.4246416  21.9664478   8.0463495  62.4936180  44.5273972  27.0157623
  62.8353157  43.8663025  27.6177826  62.9357262  44.3471947  26.1861229
  41.3785858  48.2068901  75.7603989  41.0877495  48.0171356  76.6523819
  40.9811516  47.5183487  75.2273102  68.9834213  26.0107632  88.6859741
  69.0600815  26.8400135  88.2140579  69.5038757  26.1376152  89.4792328
  39.7257156  21.7734566  86.3987350  40.3701859  21.0834026  86.5559616
  38.9014168  21.4094048  86.7215881  77.3988419  34.8825684  11.5348082
  78.3367386  34.7305489  11.6508760  76.9851608  34.3670807  12.2271814
  31.7759762  33.1618195  83.8358612  32.2960358  33.8120766  83.3637009
  30.9287968  33.1632843  83.3903122  45.9316330  68.9989548  11.5345678
  46.7544365  68.8942719  11.0567894  45.2544365  68.9433594  10.8603687
  46.8161926  29.7531166  17.1287804  47.1431236  29.4843216  16.2702370
  46.7736435  28.9411182  17.6338367  55.1236153  40.7183533   4.9130216
  54.5206451  41.4073792   5.1921310  55.5582199  40.4394684   5.7189841
  12.6161661   2.3716576  27.7031555  12.3831577   1.4518927  27.5767765
  11.9163656   2.8580792  27.2673740  10.0719728  28.6638660  66.3403244
  10.4835453  29.4458046  65.9723434   9.1329079  28.8437576  66.2953033
  77.4631042  69.9376984  22.4544849  78.3200989  69.5231476  22.5541878
  77.3117142  70.3788071  23.2903900  70.3081131  49.3978691  80.5489731
  70.1984100  48.7708969  79.8340530  71.2524261  49.5480461  80.5930405
  13.8351355  49.8140182  45.3784485  14.6032209  49.3429031  45.0554543
  13.4280567  50.1764450  44.5915794  77.5558929  40.7815552  46.6011391
  76.6747131  40.4196320  46.6947594  78.0039673  40.1722984  46.0143967
   4.2469158  37.3348732  71.2003555   5.0998597  37.3170547  70.7663040
   4.0327725  38.2652435  71.2695465  72.9090881  55.1152611  69.4022751
  73.0576324  55.8988304  69.9316025  73.5332565  55.1918411  68.6806259
  30.8748226  37.1348953  88.2458191  30.8516884  36.2073669  88.0104752
  30.0580521  37.2813759  88.7229538  67.6205368  15.3624935   3.4853430
  66.9747086  15.8876219   3.0127187  67.2043533  14.5066681   3.5882313
  45.3876724  13.3697901  22.6454811  45.4241753  13.7609549  23.5183449
  44.9507141  12.5285339  22.7781029  24.0418110  70.5166321  18.9627342
  24.4889507  71.3473511  19.1246033  23.2372379  70.7626648  18.5062675
  15.1111641  41.6133461  76.1059418  14.2142200  41.3068390  76.2392731
  15.3406954  41.3078575  75.2283096  37.4632378  11.8895912  81.1476364
  38.1662636  12.0583591  80.5203323  36.7598038  11.5083799  80.6221924
  59.6700859   2.7324922   4.2282238  59.2457809   2.6934378   3.3710957
  59.0293198   2.3538980   4.8301516  66.3138580  28.5001354  72.4185867
  66.3061295  28.2756939  73.3490753  66.4182281  27.6607113  71.9705887
  72.0000458  58.7145157  28.2304840  71.4741898  57.9466667  28.4543514
  71.6041260  59.4295044  28.7287483  35.6282196  48.8170776  19.4255543
  36.0475121  48.8046761  20.2859459  36.0627899  49.5300941  18.9575939
  10.5179348  56.3402176  33.4454651  10.3574657  57.2339287  33.1425438
  10.8866282  56.4470940  34.3223190  64.3841476  42.0127335  49.9797592
  64.7066345  42.2203255  49.1027527  65.1725769  41.9692116  50.5207901
  30.5578232  55.2558403  28.4618874  31.2628670  54.8463974  28.9633865
  30.6072598  54.8441887  27.5991421  55.5417633   6.7537317   3.6153996
  55.9936752   5.9126039   3.6825683  55.0609131   6.8337350   4.4391823
  61.7021675   4.2043352   3.2012873  60.9609680   3.6608796   3.4687073
  61.8906174   4.7462063   3.9675074  71.9751892   1.6561517  12.9253454
  71.3365402   1.2040818  12.3739882  72.5177460   2.1482928  12.3091822
  15.0551634  38.1914635  42.1390533  15.6179609  38.8358688  41.7098312
  14.1695566  38.5391617  42.0339851  20.7560406  43.3997688   3.7583556
  20.1005936  43.6279755   3.0991580  21.4623661  44.0313339   3.6224754
  69.1720352  25.2532101  55.7253113  69.2997055  24.9383812  54.8304291
  70.0570526  25.4229965  56.0480270  13.5980406  41.0359688  32.8087654
  14.0659389  41.7639465  32.3996773  13.5810556  41.2554359  33.7403107
  75.4850388  14.8441734  42.4679070  76.1099548  14.9498119  43.1852303
  75.9609451  14.3399820  41.8079529  81.3360214  56.7969856  82.9868088
  81.8314514  57.0589523  83.7627869  81.0152817  55.9189110  83.1925735
   9.1006250  28.0181179  75.0876160   8.7638378  27.1897259  74.7461853
   8.3185463  28.5445862  75.2531891  66.2437592  36.2479935  19.5561466
  66.5776901  36.6937790  20.3346081  65.9873047  35.3803062  19.8685284
  14.4682589  11.8037519   8.8448620  15.2703094  11.2935581   8.7323923
  14.1027822  11.8729887   7.9628954  68.2456665  51.5661469  47.9563599
  67.3543091  51.8071213  47.7040787  68.7323074  52.3900719  47.9327011
  19.0579681   0.4225240  87.8920517  18.6991405   0.0103493  88.6779175
  18.4190674   0.2277116  87.2064285  66.0617676  51.2680244  84.5580597
  66.0617294  51.9215965  85.2573929  66.5862579  51.6627274  83.8613892
  22.9549923  59.4193497  73.4683990  22.6545067  58.5484924  73.7283020
  22.1709709  59.9666138  73.5135727  79.9761658  48.6265259  46.4680519
  79.3589706  49.3072929  46.7361145  79.6315536  47.8234978  46.8587189
  69.8286667  68.3888855   9.2818394  69.5403442  68.8104706  10.0913858
  70.6884995  68.0256958   9.4940119  56.3734474  34.9493942  21.1704521
  57.1688576  35.1163826  20.6648178  55.7062378  35.4954147  20.7546082
  12.8402624  22.4152336  18.6513596  12.9805517  23.1395702  19.2611866
  12.2826729  22.7836533  17.9660912  58.5920792  46.1894493  35.2350616
  59.3868980  46.2424965  34.7043228  58.1300354  47.0086098  35.0569572
  12.9632120  35.6726875  81.1212921  12.9545488  35.3808250  82.0328674
  13.6586571  35.1581192  80.7116470   3.5772061   8.6472626  15.7518187
   2.7703650   9.0962467  15.4995241   4.2773423   9.1976147  15.4008865
  74.5488434  45.6550026  33.8492470  74.8821411  45.0724640  33.1667557
  75.0975571  45.4696426  34.6113434  63.9320602  13.0599680  42.1872368
  63.5867691  12.3513260  42.7302208  63.1547775  13.4801750  41.8191414
  59.6115456   9.5031166   3.8074374  60.1283760   9.5147991   4.6130319
  60.2570686   9.5998421   3.1073124  51.9246025  34.7541466  13.4710207
  52.3910751  35.2832909  14.1180458  52.5291252  34.6922836  12.7314548
  78.4963226  42.2275391   7.1876397  79.1394501  42.6590309   6.6251125
  79.0063400  41.5939636   7.6923060  30.9064503  70.4115982  65.1771774
  30.7794952  69.8399200  65.9343414  30.9325790  71.2946930  65.5455322
  85.0493774  68.9746475  87.9309006  84.7682648  68.7307968  87.0490036
  85.4157715  68.1695404  88.2966919  74.8317795  29.3843822  81.4789658
  74.5065536  29.8909092  82.2232056  75.2398224  28.6137371  81.8737335
  20.9794884  39.6859169   7.1006055  20.9108429  40.5392799   6.6724849
  20.5979939  39.0718307   6.4732347  38.7036819   2.6284664  85.3056335
  37.7810707   2.3850300  85.2297897  39.1160583   2.2491422  84.5295639
  35.1104507   6.3951426  74.8798599  35.8529778   6.2639203  75.4694901
  34.9451981   7.3375235  74.9088669  45.9942322   3.7397017   7.5939450
  45.8308029   3.1368918   8.3193026  46.1861343   4.5767479   8.0167446
  15.4977665  11.9939594  16.6517982  15.7130575  12.7173395  16.0630684
  16.3307610  11.5440645  16.7930374  21.5892181  50.7377014  42.9449921
  21.5881901  49.7956352  42.7754593  21.8174934  51.1322823  42.1033134
  60.6057014  51.7132797  28.4054832  61.5023308  51.4556541  28.1912117
  60.0579414  51.0653839  27.9622898   8.1502743  64.9788132  53.0425568
   8.6362934  64.2794037  53.4794197   8.0412397  65.6510086  53.7152367
  27.1409740  63.9381752  49.0649452  27.8067989  64.5941010  48.8583870
  26.6588001  64.3105927  49.8032188  46.8567467  13.1268539   1.4566579
  47.2157822  12.2399530   1.4295994  45.9122467  13.0059767   1.3589596
   0.6960428  57.8695717  34.6649399   0.4606998  58.2321205  35.5189896
  -0.1323942  57.5579491  34.3005028  10.2474833  60.8601112  44.3873444
  10.8231993  61.2839432  43.7508278  10.6557665  61.0372849  45.2347794
  61.8522949  34.9354439  13.3997822  62.5181847  34.5785561  12.8120279
  61.8279877  35.8701134  13.1947689   0.1601055  42.9706421  79.2844391
   0.9822869  42.6529846  78.9111481  -0.5199600  42.5128975  78.7902603
  60.1161499   0.9638212  72.1230392  60.1788445   0.5074596  71.2839661
  60.0204277   1.8865724  71.8872375  65.4198837  62.8723030  34.4288673
  65.6383591  62.9366226  35.3585777  66.1630936  63.2750130  33.9797592
  19.9971867   8.5194664  68.4071198  19.9356785   9.2056551  67.7425919
  19.6996746   8.9399910  69.2138901  44.7181702  42.8677559  83.8233185
  44.6707840  42.0566521  84.3293839  44.9800873  42.5878716  82.9462280
  27.9896564  39.0476341  34.8327560  28.8501740  39.1663628  34.4307022
  28.0434418  38.1961212  35.2666435  40.7074776  57.6903458  42.2062492
  39.7590370  57.8104515  42.1586494  40.8460159  56.7766647  41.9568024
  19.4333878  45.2263985  24.8856983  19.2309837  44.3969536  25.3184605
  19.3486023  45.0360489  23.9514542  60.3241043  46.4700317  33.1558647
  60.6124573  45.9761238  32.3883133  60.6449356  47.3588409  33.0031471
  79.8017273  54.3808937  16.6499119  79.2826691  54.9574928  17.2105808
  80.6961288  54.7129250  16.7275677  14.2477770  39.2440567  52.3536644
  13.8015461  38.4209976  52.1544609  13.5741348  39.7895508  52.7597122
  14.3690653  18.1725254  67.5560989  13.6721134  17.5169430  67.5295944
  14.4142714  18.4370270  68.4749146  70.0628433  70.8933792  47.8308945
  69.2795792  70.3848190  47.6209183  70.3020859  70.6112137  48.7137184
   0.4614479  15.5718937  62.0584869   0.9758512  15.6275845  62.8637962
   1.0482144  15.8985424  61.3764038  27.3057461  54.6377029  26.8731499
  26.5164051  54.4686165  26.3587742  27.1450748  54.2002144  27.7092266
  56.0772438  65.9138641  36.6626549  56.7524757  65.3648453  36.2640724
  55.8798294  66.5722656  35.9964981  13.7677231   6.7364526  27.4063606
  12.8534794   6.7052932  27.6881771  13.7753372   7.3683558  26.6874218
  73.4947968  40.0735550  41.0139236  73.7328644  40.0285149  41.9399529
  74.3303299  40.1653328  40.5560112  50.9777870  68.1090775  16.5057011
  51.7646179  68.5875168  16.2445049  50.2684364  68.5325546  16.0222549
  60.1661682  46.0238457  82.9339371  60.5877800  46.1114693  83.7888031
  60.1638908  45.0819588  82.7634201  44.9689407  24.5495853  79.6851730
  44.5455971  25.1778908  79.1001587  44.6191177  24.7560120  80.5519180
  75.4576111  17.7841511  20.3253307  75.4547272  17.1015911  20.9963989
  75.7473450  17.3369999  19.5301323  50.1314621   0.3878245  79.9041672
  50.7657623   0.8119748  80.4820862  50.1907272  -0.5417468  80.1246567
  45.4241524  16.6582375  12.1344604  45.1701546  17.4563427  11.6710539
  46.3489952  16.7874031  12.3447332  76.2913971  29.1688156  58.3319855
  76.4878845  30.0769463  58.5620346  75.4579849  29.2153664  57.8634834
   6.0897903  14.2777615  42.8986511   5.9234447  14.3146124  43.8405685
   5.5816731  13.5255566  42.5949478  83.7433090  37.8183022  82.3127365
  82.7977371  37.8713760  82.1737671  83.8478622  37.1599007  82.9996185
  13.2534885  63.9863396  64.1298828  12.3149109  63.8080139  64.0706787
  13.6589994  63.3229942  63.5715179  12.3224106  40.8080063  75.8538742
  12.1611681  40.8912773  74.9140320  12.1453371  39.8872833  76.0466156
   2.8229244  37.4657898  50.8498192   2.5805821  38.1830559  50.2641335
   3.7155082  37.6734428  51.1262360  15.4386597  67.1817474  14.6630049
  16.2337513  66.8326035  15.0656977  14.8974428  67.4586411  15.4023590
  50.8400726  51.5986023  12.7548866  50.7243958  51.0668716  11.9674149
  51.7765732  51.7955132  12.7754936  17.3444328  27.8061543  32.0791359
  17.4487534  27.2170582  31.3319302  17.1657410  27.2254829  32.8188095
  23.3550186  19.6027126  26.4519329  23.7352047  18.7454529  26.6437569
  22.9693546  19.8847084  27.2813740  15.3372459   8.4014463  55.7449074
  14.8018265   8.3299093  56.5351219  14.8297272   8.9661684  55.1620293
   6.1416397  52.2700577  48.6080093   6.7585883  52.6145897  47.9623260
   5.6650205  51.5835495  48.1413498  44.8533363  47.1320305  85.5502853
  44.5268402  48.0164032  85.3843994  45.8015633  47.2373962  85.6277466
  70.5602570  53.0873528  50.6083717  70.9758072  52.3016357  50.9636078
  70.5321732  52.9370766  49.6634598  26.2720146   6.6060915  32.5963058
  26.5067997   7.1935349  33.3146515  26.3420525   5.7284732  32.9719582
  58.3088913  40.2261887  16.1522808  57.4078560  40.4067459  16.4201756
  58.2268524  39.8423996  15.2792358   2.0144315   1.8626491  73.2949371
   1.8160901   0.9451544  73.4822769   2.1436906   2.2603877  74.1559372
  40.2507362  30.1039658  14.5019169  40.0196915  30.2202415  13.5803261
  41.2078552  30.0940800  14.5094862  58.4261665  24.0214062  66.7194901
  58.7995491  23.7946415  65.8677902  59.1775093  24.2968063  67.2447281
  52.0953255  51.7812805  34.9173355  51.8523598  50.9760284  34.4604263
  51.4553413  52.4279099  34.6198082  16.7641487   8.5758963  40.8426094
  16.5620651   8.4031553  39.9230690  15.9111347   8.5905647  41.2766380
  82.8676910  59.9530029  53.0304832  82.1585846  60.5821915  53.1628418
  83.6440430  60.4939766  52.8860359  55.6525688  15.8250494  17.4464092
  54.7525101  15.9625721  17.1511002  55.6141319  15.9441986  18.3953876
  84.7591400  36.5588074  62.5028915  84.2480774  36.9888382  61.8172417
  84.1587143  35.9171524  62.8823624  73.2816925  17.0496120  35.2701035
  73.8281860  17.5917015  34.7011414  73.5554733  16.1521244  35.0809250
  10.2452650  10.9309025  10.3704395  10.3431473  10.9645586  11.3220263
  10.8567944  10.2497187  10.0907030  21.0727921  37.7677269   8.9155922
  21.2483349  38.5533371   8.3976803  21.4975929  37.9355392   9.7567911
  41.4735184  50.8003540  82.3109894  41.2833443  50.0216980  81.7877731
  42.2698822  51.1617622  81.9218597  30.0007191  58.8154373  72.0521088
  29.4443874  58.1097565  72.3818665  29.6741047  59.6019783  72.4890442
   5.0007563  66.9619980   1.7655916   4.8767190  66.3634033   2.5021603
   4.1140876  67.1502075   1.4579777   0.2760555  12.6977434  65.1641541
  -0.6031231  12.3787403  65.3679047   0.8620773  12.0856581  65.6093063
  86.4026413  63.5314102  45.1132545  85.4476471  63.5956688  45.1229935
  86.6686096  64.0332184  44.3427467  38.4833755  33.7137299  20.3848705
  37.8947334  33.2723312  19.7725792  38.4806252  33.1568489  21.1633987
  76.7437057  45.3084450  25.1515045  75.9034271  45.7422867  25.2996502
  76.8975983  44.8050728  25.9509811  62.6394196  17.6690521   2.2929235
  61.7360077  17.3873596   2.1489408  62.9793434  17.8415375   1.4148973
  84.5534897  66.8225174  76.7423248  84.7820358  66.4041519  77.5723648
  85.3684006  66.8194046  76.2401810  32.8446121  54.1684990  30.0252285
  33.1082726  54.6806068  30.7897301  33.5011368  53.4746590  29.9636955
   6.8166289  24.1167564  35.9091492   6.8333941  23.4030228  35.2715454
   7.6366296  24.0239658  36.3941422  52.5762787   2.2684758  58.5736198
  51.9754448   2.0987411  57.8480721  53.0019760   1.4262998  58.7340965
  38.9158096  52.7193527  72.1365891  38.3142319  52.0771179  72.5132446
  38.3669662  53.2538986  71.5627747  80.1798706  26.4243565  63.4361153
  79.3123245  26.1586685  63.7410927  80.0314941  26.7546539  62.5500488
  11.7495785  12.7211256  42.6395226  11.4482327  12.9155207  43.5270081
  11.0334845  12.2213526  42.2475166   4.2005482  19.0869637   1.9358494
   4.8728571  18.7304516   1.3552194   3.3821721  18.9741917   1.4523472
  77.8687286  69.6736908   3.1931577  78.6592484  70.2133026   3.1821373
  78.1585922  68.8177414   2.8776345  84.8781357  52.2323456  62.9761047
  84.7614975  53.1272354  62.6570396  84.0533829  52.0253677  63.4156189
  29.3215446   3.8019185  71.7049103  29.3087273   3.5583751  70.7793045
  30.2193375   3.6260211  71.9864502  82.5148621  11.2676229  82.8404388
  83.2717896  10.7752419  83.1580200  82.7678146  11.5565815  81.9636536
  28.3804436  70.6106491  14.6045256  27.6157169  70.1331863  14.9261675
  29.1258011  70.1766739  15.0196581  15.2563429  53.1964111  70.1012039
  15.3316994  53.1833878  71.0553436  15.8728266  53.8731194  69.8214722
  50.4627190  45.6886635  41.4816437  50.4895554  44.9870758  42.1322517
  49.7991219  45.4063683  40.8522186  34.3435287   1.3371772  65.6950455
  35.1123276   1.0166175  66.1666641  34.6861610   2.0121362  65.1091614
  78.5284119  70.1199722  86.0214920  78.2451859  71.0070648  85.7999573
  79.3551483  70.2420425  86.4882202  73.7341614  63.6112518   6.3161640
  74.6571121  63.7845993   6.1308455  73.5442429  64.1332474   7.0957050
   3.2849953   6.8562813   4.7936082   3.0549760   7.5770335   5.3799858
   3.7104897   6.2128849   5.3603773  14.0413132  19.1984787  31.6651344
  14.8853064  18.9784279  31.2708168  13.5980806  18.3563194  31.7678242
  76.8113937  37.6671982  78.2534103  77.2630692  36.9392014  77.8265152
  76.3505783  37.2645912  78.9894714  53.2591782  31.7867107  62.8864098
  53.5935974  32.1504707  62.0666084  52.4197655  32.2271843  63.0190887
  16.0092773  22.3785362  36.5757561  16.1409359  21.4454689  36.4075890
  16.0309544  22.7835655  35.7087440  38.6646957  55.5259705  60.8707008
  39.0642281  54.8005409  61.3506622  39.0734138  55.4948082  60.0057068
  75.8837585  59.5992851  45.8013916  75.4595108  58.7781067  45.5525551
  75.9545746  59.5529594  46.7548447  13.0828781  52.5208549  21.1632328
  12.9019766  52.5955887  20.2262592  13.3577986  53.3995895  21.4249249
  41.5088120   2.9380257  39.3099823  40.9684410   3.0531151  38.5283241
  41.3106651   3.7012398  39.8526344  33.3171539  54.0095329  51.8462372
  32.6433029  54.6556625  52.0576057  33.0447807  53.2185020  52.3113327
  54.0342522  68.3941040  31.2254791  54.3112068  67.7558594  30.5680771
  53.2552795  68.0054092  31.6234093  52.6974564  18.1712341   0.5096183
  52.4188499  17.3100433   0.8210000  53.4038010  17.9852505  -0.1090261
   6.6489382  62.9668007  48.2124672   7.1319323  62.5085182  47.5247688
   6.3027964  62.2684593  48.7681084  54.1318817  33.4865608  85.7465134
  53.9409027  32.6034470  85.4304886  54.0741920  33.4176178  86.6994781
  43.3435402  39.1193123  13.9053421  44.1157379  38.6826134  13.5458536
  43.2743111  38.7855721  14.7998018  81.5874405  46.3582993  44.0984955
  82.0279999  47.1289864  43.7404747  81.6282883  46.4782257  45.0472717
  41.0863152  17.3840790  17.4141693  40.5034180  16.7741852  17.8663807
  41.2553940  16.9706669  16.5675678  26.4633141  13.7399483  86.5881577
  26.2134972  14.0545177  87.4569931  26.6845894  14.5334110  86.1006317
   2.9334400  13.1790276  39.1924896   2.7650681  13.6638756  38.3845253
   3.8860173  13.0907955  39.2247849  20.2568111  14.0556669  11.7592993
  19.8742619  14.6426907  11.1071548  20.7239590  13.3976460  11.2445068
  23.8723450  53.4218178  13.6712198  23.6386108  54.3488159  13.6235075
  23.5788345  53.0575180  12.8361349  23.1431465  34.2570190   1.5773852
  24.0691319  34.0709457   1.7328225  23.0400372  34.1834335   0.6286042
  22.2485027  54.4522591  85.4934998  21.5022926  53.9917603  85.8773575
  22.2620411  54.1666985  84.5799942  36.3324890  20.5331001  23.8163185
  35.7981300  20.9841385  23.1626720  36.5250473  21.2032700  24.4720821
  68.7592773  56.5042305  26.8449860  68.5668564  57.4380112  26.9302139
  67.9088135  56.0989151  26.6756859  38.4072533  36.7196159   7.3977723
  38.7748528  37.5707664   7.6357760  38.6690788  36.5921555   6.4859433
   7.9238076  68.0583801  19.3780632   8.4952822  68.3058395  20.1049843
   7.8494849  67.1064301  19.4451675  10.7725334  48.5522957  48.6950607
  10.6242094  49.0875626  47.9154968  11.7246380  48.4727516  48.7533798
  72.7967682   2.4299946  42.0537949  73.2949448   3.1846149  42.3678093
  72.3273544   2.1146963  42.8261070  41.6276474  51.7045288  40.1056366
  42.2214775  52.2508163  39.5906944  41.5207672  50.9091988  39.5838547
   9.5997219   8.1256399  70.8771362   9.7680645   7.8629775  71.7820740
   9.0769653   8.9239130  70.9527435  76.0366058   8.5317335  69.3772659
  76.7303009   9.1886511  69.4361877  76.5007019   7.6949687  69.3514481
  67.4967880   1.2962557  46.2476845  66.9742889   1.3877658  45.4509125
  66.9925461   1.7560833  46.9189034  74.6979446  63.4965477  55.5127487
  74.6877975  64.3974609  55.8359833  73.9089661  63.1004562  55.8826828
  37.2914696   3.0126312  31.8208466  37.7380714   2.2670128  31.4198074
  37.8083420   3.7729716  31.5544720  20.7208633  36.4502869  22.9434357
  21.0402775  36.5031395  22.0426502  19.8722229  36.0134239  22.8713913
  56.5122604   8.9964638  70.4991226  56.3182907   8.8982792  69.5669327
  55.9419327   9.7085609  70.7887268  61.1944160  52.0639153  74.2109909
  61.8588638  52.4576683  73.6455688  61.0813751  51.1779747  73.8666687
  40.2765770  41.1847038  18.4962730  39.6102638  40.5889015  18.8387260
  39.9867401  42.0535240  18.7744522  75.8314514  60.9640961  57.7762680
  76.5923691  61.5341492  57.8870506  75.7304306  60.8810425  56.8280411
  45.0550728  55.8672638  37.0718765  45.7858162  55.2498817  37.0389671
  44.4094582  55.4442673  37.6379967  63.8666000   6.9076958  76.8651276
  64.2306061   7.5732632  77.4488678  63.4998207   7.4049873  76.1340942
  29.9975224  58.4469261  31.7087669  29.6726093  57.6885033  32.1940079
  30.4276409  58.0729370  30.9397640  39.8712997  45.6774139  81.7706985
  40.7349701  45.3361969  82.0028229  39.2842865  44.9271545  81.8642883
  39.7866516  71.1629791   4.1021390  40.0182381  70.6829071   4.8972054
  39.2523270  71.8945694   4.4111695  52.3099213  67.0026627  57.0037880
  52.2890244  67.8116989  56.4926529  51.4447098  66.9537582  57.4102898
  50.8979874  23.7853298  11.9711237  50.6305466  24.0967808  12.8358231
  51.7604713  23.3952656  12.1132421  29.1337452  69.6381683  73.2717514
  28.7637463  70.4266586  73.6687622  29.6876335  69.2627029  73.9561996
  56.8851089  28.1948261  12.9488621  56.8099632  28.2564297  13.9011173
  55.9801216  28.1884155  12.6371069  23.1161232  44.8561668  86.0731659
  23.8532658  45.3300743  86.4582138  23.2488651  43.9472313  86.3423386
  48.4963379  71.4403381  62.7104645  48.8288956  71.1067963  61.8771667
  48.1173630  70.6740570  63.1410637  77.4596786  48.8670044  27.8237572
  76.8858185  48.2223358  28.2376575  77.9542007  49.2482224  28.5492592
  41.6365318   8.4327936   6.9076824  40.9782677   8.0299625   7.4739375
  42.0846329   9.0628910   7.4719677   5.3386049  50.6455193  31.8645630
   5.6136932  51.1134300  32.6529884   4.5931458  51.1479034  31.5357265
  12.4048252   3.9594703   4.6325598  12.6003590   3.1177382   4.2208738
  11.9961329   4.4764390   3.9383371  35.4832573  60.3120613   9.0376587
  34.7518997  60.1624565   9.6367979  35.3222084  59.7128448   8.3087969
  65.8791199  67.6595459  46.2916031  65.3789520  66.9852982  46.7514343
  65.6482468  67.5423737  45.3700829  75.0036469  42.0809288  60.4353752
  74.0846481  42.3005524  60.2823181  75.4754715  42.5168152  59.7257118
  16.6888142  29.4892998  61.5282135  16.4113731  28.8299656  62.1642418
  17.2159653  29.0033913  60.8939934  63.1123886  52.2495117  88.7999725
  62.6900749  52.7431641  89.5029602  62.4695702  52.2451324  88.0907516
   9.0972891   4.3489680  18.9965153   8.9401665   3.8951004  18.1685371
   8.8299580   5.2526436  18.8287754  19.8897533   3.0259056  35.0971107
  19.9806900   3.9363260  34.8158684  18.9444637   2.8842149  35.1479607
  23.8588982   4.9853425  38.4149818  23.6422615   4.9203067  37.4848900
  24.4724083   5.7182102  38.4673309  31.1354370  62.3186722   5.0337901
  30.4936943  62.9586716   4.7258916  30.7873821  61.4740028   4.7480960
  10.0081835  20.5591469  21.1912594   9.8953171  19.9944286  20.4266777
  10.4409351  20.0023289  21.8384933  45.3267632  37.8375740   8.6965599
  46.1965904  37.9190979   8.3054228  44.8749046  37.1991539   8.1447678
   2.1611342  47.2569771  23.6179638   2.8818076  47.7928162  23.2866955
   2.3582613  47.1384163  24.5471115  47.5137634  13.9007683  20.5580063
  48.4101562  14.0058365  20.8768692  47.0723991  13.4006968  21.2445621
  29.8759995  48.6432610  69.0418701  29.2515144  48.5341034  68.3247070
  30.1092567  49.5712776  69.0171890  46.5247002   5.3940525  33.1382980
  46.2518997   5.2966752  32.2259750  45.7524223   5.7430844  33.5832596
   6.4468932   3.9666708  84.9867096   6.1613379   4.8762321  84.9007568
   6.9513431   3.9498434  85.8000183  81.4661179  28.6553993   4.0415430
  81.9406662  29.1075611   4.7390990  80.9401321  29.3394756   3.6272848
   5.2116814  14.8909464   7.6134663   5.3526959  15.8255672   7.4623647
   4.5855823  14.6308699   6.9377503  40.4442215  12.2444944  25.0601234
  39.6386757  12.6556616  25.3736019  40.3907166  11.3421087  25.3748779
  73.0508347  21.3928604  69.0970459  73.4674988  21.3028164  69.9540863
  73.7743607  21.5725746  68.4966736  67.9468002   3.1463819  88.2193451
  68.6615372   2.8599675  87.6507111  68.2010498   2.8477769  89.0925140
  36.0501289  56.2904243  47.9403915  36.0007477  56.0716057  48.8709335
  35.1499062  56.5062866  47.6970062  25.3531532  13.0600100  73.3340378
  25.1707897  12.2025785  73.7184677  25.7286091  12.8627958  72.4759140
  46.8022461  49.1599617  46.2441406  47.4542427  49.4285088  46.8914528
  47.2155342  49.3388290  45.3994904  69.1557083   4.6292715  31.9899292
  69.3142242   3.6984732  32.1471558  68.9223251   4.9809508  32.8490486
  12.0816364  30.4874401  33.6014862  11.3120461  30.1422195  33.1489525
  12.1788206  31.3777485  33.2636452  52.4520874  58.5268097  78.3572540
  52.5945244  58.0742416  77.5259171  51.9558525  57.9032326  78.8874741
  71.5587158  36.7091141  62.6390076  72.4134979  37.0770836  62.4149857
  71.5540924  36.6792717  63.5957336  41.5555992  43.4399452  80.2941818
  42.3470383  43.5418396  79.7655258  40.8594971  43.2846298  79.6557846
  16.8829403  21.6111240  22.0138321  17.7450237  21.7624016  22.4013329
  16.8317699  22.2372246  21.2916050  81.5932541  16.4997177  62.1508255
  81.3503876  17.3765755  62.4480896  80.8259811  16.1885853  61.6704941
  58.6615791   7.5370855  68.0156097  58.0332031   7.1238055  67.4235153
  58.7800865   8.4185572  67.6617737  57.0564384  62.0633965  80.0133820
  56.2414665  61.5944252  79.8341599  57.6366615  61.4007378  80.3881531
  84.8283463  59.6816216  -0.1441293  84.3992767  59.8720856   0.6900488
  85.7630005  59.6790466   0.0623776  28.5124493   2.0080426  16.5978184
  28.5744076   1.0976309  16.3087788  29.1014233   2.4854541  16.0135078
  46.8249550  71.4540863  58.8912544  47.0553017  70.5380325  58.7363014
  47.2143631  71.9267197  58.1555824  60.7424927  32.9427071  27.8747540
  60.2268448  33.7470703  27.8169861  61.4683533  33.0792770  27.2658958
  32.4891968  69.0636139  28.9531517  31.9952755  68.6284561  28.2582359
  32.6739807  69.9360580  28.6053944  76.7117615  26.0293465  41.9186668
  76.5663681  25.1862469  42.3479385  76.0763168  26.6181488  42.3257942
   8.4099045  43.6057968  62.9603119   8.5879574  44.5368576  63.0931892
   7.9111209  43.3444748  63.7343636  18.5132923  42.7616425  -0.0792246
  18.3351803  43.5695381  -0.5606962  18.4462585  43.0121994   0.8421656
  33.4321098  29.0353298  13.5150299  34.2305756  28.5696812  13.7637415
  33.3238983  28.8444710  12.5833139   8.1687956  47.4697456  68.2299271
   7.7768378  48.2105675  68.6923065   8.0977716  46.7392159  68.8443527
  46.6907234   1.1220632  83.3038940  47.4353676   0.5230248  83.3576355
  47.0865822   1.9916018  83.2453232   2.3903372   2.6849451  75.9058456
   1.5822587   2.3294411  76.2757874   2.2970624   3.6335092  75.9939270
  43.6378174  69.0453491  72.4800339  43.9182663  69.8012466  71.9640808
  44.4528618  68.6552353  72.7958603  76.4876556  10.7021503  37.5229378
  77.2139130  10.7649307  38.1432877  75.7668533  10.3346481  38.0344238
  53.3739777  67.0317535  88.1986160  53.9325104  66.6089630  87.5462952
  53.4479599  66.4754105  88.9740067  19.8005123  40.4604645  70.1508942
  19.3197212  39.7793312  69.6806488  20.2196159  39.9995079  70.8776016
  54.8704414  21.4205303   0.8423995  54.6999664  20.9052181   1.6308308
  55.7328606  21.1284466   0.5471898   5.8204794  33.9443550   6.6919723
   6.2763901  34.6818542   6.2864208   5.0388074  34.3327599   7.0848613
  54.9265709  50.1415100  78.8280640  55.5096016  49.3825417  78.8447266
  54.9306068  50.4266167  77.9143219  55.5181351  63.5101891   8.9594793
  56.4704094  63.5427589   9.0508118  55.2885895  64.3423538   8.5459099
  12.5939426  63.2286072  80.0146561  13.3430719  62.7668076  80.3911972
  11.8469324  62.9414062  80.5397491   8.7091093  28.6840324  50.9806709
   8.2707415  29.5324268  51.0461998   8.0438108  28.0978947  50.6200447
  65.2216263  19.7403946  68.8499298  66.1668243  19.7735004  68.9973679
  64.9865189  18.8259964  69.0075073  66.7322311  51.8204002  41.9192696
  67.3827515  52.1145401  41.2816658  66.6745834  52.5374069  42.5507851
  66.0665817  24.1785393  12.5402508  65.6587296  25.0026779  12.8061161
  65.6577301  23.5177193  13.0991726   1.2243954  39.2974205  18.3931789
   0.5176120  39.6141930  18.9556236   2.0173566  39.6847649  18.7638683
  34.2088470  66.6449661   6.5193558  33.4520950  66.1181717   6.2623563
  34.1144905  67.4579010   6.0229063  34.2559395  49.7601280  86.0225677
  35.1232567  50.1107635  85.8199615  34.0603905  50.0955582  86.8974838
  71.4624634  22.7206173  37.2442703  70.6193390  22.6464901  36.7971992
  72.0742493  22.9891052  36.5588036  86.2472992  27.9953423  88.2356491
  86.8059158  27.4803810  88.8178864  85.3557510  27.7981453  88.5228577
   5.5408101  34.2007103  29.4498119   6.4065075  33.9157906  29.7424240
   4.9727888  33.4479256  29.6138229  26.9797878   3.7710602  33.3161430
  26.3781338   3.6905279  32.5760345  26.6760349   3.1156461  33.9441528
   9.8991737  14.9005585  66.1861267   9.5318251  14.6209536  65.3476105
   9.1759491  14.8099661  66.8065872  30.1961861  33.0339622  88.1996918
  31.0528526  33.0809822  87.7752533  29.8508720  32.1774368  87.9479828
   5.0538697   0.5197995  53.6154366   4.4514875  -0.0738553  53.1671715
   4.8420830   1.3851738  53.2654266  25.2462044  54.2267609  43.8551865
  25.5769577  54.0931244  44.7434311  24.4065266  53.7674561  43.8406487
  45.3052788  53.7428398  23.8462429  46.0330887  54.1188507  24.3413582
  45.0445557  54.4361305  23.2399387  37.4250870  68.3221054  53.1890373
  37.8348541  68.2951584  52.3243980  38.1076851  68.6629562  53.7670593
  37.5404320  51.4413109  65.8035049  37.9448624  51.2552681  66.6508865
  37.7441635  50.6749077  65.2674484  54.5017929  12.0143480  42.7137108
  55.3302193  11.6251545  42.4335861  54.6199875  12.1820621  43.6486626
  32.2279320   8.1617289   4.0293293  32.7818985   8.6178904   3.3958681
  32.4845428   7.2426624   3.9538236  24.6896877  64.0631790  70.1268921
  25.4480476  64.5967255  69.8892975  24.0377903  64.6950912  70.4301147
  12.5078936  52.5341568  47.0076256  12.7163734  52.2665176  46.1125641
  13.2912731  52.3145103  47.5119095  59.4846191  32.4814034  88.4539795
  59.3666763  32.0742836  89.3122253  58.5947113  32.6524277  88.1456833
  20.6811333  16.2246971  16.9527493  21.0170765  16.3550148  16.0659618
  20.1583424  17.0070858  17.1282043  34.1147194  62.1381569  12.9818201
  33.6803360  61.9930611  13.8223505  34.5110817  61.2934952  12.7680979
  41.7268829  29.0652065   3.5090382  40.8098831  29.1328831   3.2430308
  41.7653732  29.5155792   4.3527884  29.5957012  28.3019485  18.7791767
  29.6977768  28.7761440  19.6043758  28.9070873  28.7767010  18.3137188
  73.1273270  16.1508808  66.6877594  72.6806870  15.4359484  66.2343140
  72.4254837  16.6318893  67.1262665  61.6968689   5.9116693  66.9094086
  61.2517166   6.7363176  66.7144089  62.6130562   6.0753245  66.6856918
  57.1459885  32.4057426  87.0477371  56.3564034  32.8586121  87.3438721
  56.8900261  31.9924011  86.2231979  49.8088264  66.4090118  53.2917175
  49.4624329  65.7245789  52.7191849  50.1490250  65.9363403  54.0513763
  69.7685852  16.7782383  71.7672882  70.7155304  16.8969784  71.6936111
  69.6390839  15.8329105  71.6910324  45.8062286  11.8427820  28.8808079
  45.2216225  11.1236095  28.6415157  45.2200508  12.5766582  29.0653439
  22.4155788   8.2395477  61.4452057  21.8963051   8.1584530  62.2452126
  23.3177242   8.0923433  61.7292824   8.2658386  56.5954399  78.1909866
   7.5984120  57.0124359  78.7358551   8.5658741  55.8486938  78.7092361
  23.1849918   6.8350983  25.8971481  23.6275482   6.1768327  26.4329300
  23.7824898   6.9895291  25.1654510  70.6502228  34.0920448  44.6016083
  70.9381027  33.1951103  44.4317017  71.2757111  34.6385307  44.1258469
  10.8680449  20.8898811   4.2957735  10.2534475  21.6151218   4.4077106
  11.6291552  21.2844696   3.8700471   7.5223475  12.1675329  13.8161983
   6.9099517  12.2726307  14.5443182   7.0808887  12.5753174  13.0711765
  77.1489944  30.7524071  50.0030441  76.8315506  30.3911438  49.1754265
  77.5006790  29.9973869  50.4747391  17.3013878  57.9424324  63.5919380
  16.9766560  58.7930107  63.8874016  17.3526974  57.4154778  64.3893814
  58.8449860  25.1693382   5.5823202  59.0726547  24.8856735   6.4677200
  59.4309235  25.9060802   5.4087596  66.5875778  11.6492262  31.3831940
  66.2808685  12.5494747  31.4914093  66.0009384  11.2736120  30.7266884
  63.1268654  22.1666603  52.0532455  64.0256042  21.9098091  51.8470154
  62.7542763  22.4309177  51.2120667  52.9432526  15.6557226  11.7623367
  53.7889519  15.7811480  11.3318729  52.9063416  14.7176399  11.9490728
  83.1977386  51.7729492  21.9524498  83.3563614  51.0104218  22.5088882
  83.3291397  51.4503403  21.0608845  32.8813400  69.3980789  48.4734077
  32.2157631  68.7383347  48.6682587  32.5088120  69.9092102  47.7549324
   6.8067732  38.3676376  24.6776829   6.4908910  38.8285866  23.9005241
   7.7427692  38.5654449  24.7095623  70.3722916  18.3709049  85.5757904
  69.9949951  18.1598759  84.7217712  69.7598267  17.9945412  86.2078247
  86.6281281   7.9974418  30.8126965  87.0320587   8.3902330  30.0388851
  86.7311783   8.6577702  31.4979534  71.8763351  34.1656685  11.0290785
  70.9439316  34.1327438  11.2430010  72.3191986  34.0367393  11.8678160
  85.2433090  27.7030163  78.4907303  85.3293457  27.3449993  79.3742752
  84.9165649  28.5928497  78.6236343  63.2960167  39.9286957  88.7769623
  63.4275627  40.0483284  89.7174988  64.1678162  39.7273064  88.4368896
  56.2558136  13.1731138  85.0663300  55.6420250  12.4594345  84.8926620
  56.0183220  13.8522377  84.4349670  32.6461487  11.4884510  19.4180737
  33.2579651  11.3347549  18.6981487  32.3790627  10.6124697  19.6965580
  42.3525162  53.6220894  46.9214935  42.1084785  53.8143883  46.0161209
  42.0121841  54.3624840  47.4237099  62.4842758  51.4998817  61.6150894
  63.2877121  51.2919579  61.1381264  61.7927094  51.4426384  60.9557762
  35.6187401  14.6446896  81.8711853  36.2328568  14.5259247  82.5957489
  35.9942932  14.1353979  81.1529846  67.3155670  45.8536034  31.6915436
  68.1731949  45.4382668  31.6010094  66.8189850  45.5454330  30.9334736
  18.0301113  23.5190735  29.2766247  17.4416466  23.8148060  28.5820160
  17.8299026  22.5887966  29.3802280  27.9495316  36.4399986  27.9534683
  28.6657829  35.9806404  27.5150566  27.8418732  37.2488327  27.4530373
  52.6449013   8.3939114   7.9819880  51.7498055   8.6684093   8.1812048
  53.1683159   8.7413578   8.7041721  41.9461174  53.6699524  44.3021507
  41.7394943  52.7353897  44.2906990  41.2200699  54.0815353  43.8334465
  43.4967728  24.1713333  14.3017454  42.8969498  24.9147167  14.3635645
  43.1196022  23.5103207  14.8822947  38.5385094  54.3364449  41.2610626
  38.6715164  54.4536362  42.2017021  37.6899338  54.7435303  41.0866051
  16.4936371  16.2601452  87.5932159  16.7559853  16.7806225  88.3524933
  17.3147488  15.9102602  87.2473984  14.7806425  53.2950592  87.5351410
  14.9894314  53.3804703  86.6048965  13.8630428  53.0230255  87.5506592
  66.9437180  51.1283379  27.5694389  66.2058945  50.7296066  27.1080685
  67.5981750  51.2809906  26.8878136  84.6908646  40.6178703  81.8068008
  84.6783295  39.7183990  82.1339417  85.6085129  40.8828278  81.8696518
  -0.0293431  25.7334194  11.9755468   0.6913687  25.1173477  11.8441610
  -0.4690999  25.7722321  11.1262302  79.4995117   7.5881953  19.5738754
  78.7376709   7.4063835  19.0236225  79.1773529   7.4880567  20.4696522
  28.8259563  63.9894104  10.7950621  29.0346298  64.8948669  10.5652103
  29.1026917  63.4792175  10.0339108  66.1704025  56.1254730  23.1057205
  65.6425095  55.6578484  23.7529316  67.0643768  55.8201256  23.2600403
  39.3767281  66.3806458  62.9113388  38.9306679  66.7174835  62.1342888
  38.6847763  66.2972794  63.5674515  68.3413086  24.4331112  71.6985626
  69.2192917  24.0638294  71.7934799  68.0726471  24.6449585  72.5925293
  11.1669340  35.3812256  45.9563103  11.1158228  35.5923538  45.0240822
  12.0663357  35.0798416  46.0846672  26.1640816   6.1369319  39.0329208
  26.6902771   6.0083895  39.8221130  26.6753998   5.7276983  38.3348427
  31.1564178  43.5657272  87.9756851  30.8765163  43.5217094  88.8899841
  31.9533825  43.0365410  87.9434357  17.1978035   8.3333473  58.3948441
  16.3650570   8.6735325  58.7220116  17.3931866   8.8738575  57.6293983
  35.2021523   4.0957584  86.1052628  35.4848938   4.8587322  85.6011200
  35.9631958   3.8653560  86.6381454  62.9877434  58.6396980  45.2527161
  62.6758003  59.3702888  45.7867241  62.5905762  57.8651962  45.6510048
  74.1459503  61.4172783  44.2393646  73.8152924  61.6281624  45.1125336
  74.6912155  60.6415939  44.3706245  68.8486786  60.6640663  24.1579590
  67.9271698  60.8452835  23.9730053  69.3181763  61.4143524  23.7934399
  19.8644753  32.9465103   7.7740149  20.6421127  32.5166054   7.4180770
  20.0986691  33.8739357   7.8096223   5.5454035  10.2600412   1.8588293
   5.6551943  10.5111752   2.7759495   4.8356905   9.6178408   1.8696654
  61.3710213   8.5387659  39.2174301  61.9205971   8.9646425  38.5595322
  61.4720154   7.6027727  39.0443687  67.5060425  43.5238991  87.1549072
  67.0443039  43.7924728  86.3606110  67.0718231  42.7137527  87.4220200
   5.3321223   8.1435080  71.8528442   5.5927887   7.2537365  71.6149521
   4.5693173   8.0263109  72.4190826  31.1770725  21.2265434  27.6784229
  32.0708618  21.5646629  27.6232185  30.9691372  20.9523315  26.7852249
  42.1256218   0.9622820   3.6135397  41.3088036   0.4833722   3.7538266
  42.1052437   1.2045588   2.6877327  42.6784477  58.8682518   1.5978401
  42.7356567  58.7267914   0.6528809  41.8073845  59.2417946   1.7318023
  83.1629333  20.2090645  48.7519836  82.3641281  19.9693527  49.2217484
  83.7189941  19.4323463  48.8131523  33.4170151   6.6852922  47.5859604
  33.7679329   7.3720708  47.0190163  34.0429306   6.6275887  48.3078575
  63.4590607  28.9747925  65.5130310  63.9523163  28.2956867  65.9731903
  63.4294357  28.6751900  64.6044083  50.6396255  54.8656425  23.4743042
  50.8591766  55.1708679  24.3545704  49.8391991  55.3398056  23.2490864
  10.2478647  13.3729553  38.2875710  10.5809040  12.8897457  37.5313797
  11.0198793  13.5276690  38.8318939  66.1478653  35.2974358  88.4096832
  66.3418503  36.1054535  87.9346008  67.0067902  34.9383316  88.6322174
  51.9536057  47.9411545  32.8598862  51.5806618  47.5287399  32.0807457
  52.2499084  47.2085915  33.4000626  12.0586033  18.5154991  74.2966614
  11.9844809  18.1399784  75.1739960  12.3216295  17.7803688  73.7429199
  79.0219955   7.0870490  44.0458755  79.0254517   6.9677176  44.9956017
  78.3342743   6.4992890  43.7331276  16.2926674  32.9396896  39.4145584
  15.5369682  33.1649513  38.8719635  16.2209091  31.9940624  39.5444412
  84.7988739   2.3380132  74.7867508  84.3312225   1.5626407  74.4763794
  84.5217209   3.0376439  74.1951981   6.1904101  49.0468864  75.8593292
   7.0356588  49.4656830  75.6968613   6.0513887  48.4844589  75.0973663
  28.2488060   3.9045906  62.2610550  27.6637573   4.6044788  62.5510635
  28.1385002   3.2140002  62.9146233  67.6974564  57.7532845  83.9407578
  66.8716125  57.9101105  84.3985977  67.5277023  58.0280800  83.0396957
  59.9574280  27.1857185  31.6772881  60.0335999  26.6989346  32.4979401
  59.1071777  27.6215343  31.7353516  28.3471317  51.8594894  57.6926918
  28.7990150  51.4281006  58.4179077  29.0508366  52.2088280  57.1458893
  68.7554321  27.5854397  77.5538940  68.9605484  27.2663326  78.4327164
  67.8086777  27.4704342  77.4722443  29.1589870  59.6045456  79.0956955
  28.3016796  59.8800545  79.4202728  29.3892689  58.8501282  79.6379623
  86.2590637  55.5384102  19.9878216  85.8804779  54.7963715  19.5163536
  85.7491074  56.2936478  19.6949234  67.6761627   3.1144490  55.3830185
  67.5962982   3.7895882  56.0568428  68.6113739   2.9122276  55.3562393
  53.2136192  50.1522980  22.0081825  53.5698586  49.5795212  21.3290253
  52.2683182  50.1426773  21.8580246   6.6142344  70.9031372  66.4960709
   7.4539905  71.2919235  66.2513580   6.8427401  70.0454788  66.8544540
  82.2937393  50.8786049  49.2325172  82.3464203  51.8340607  49.2088242
  83.1897812  50.5851593  49.0675163  69.5394669  43.1720467  24.8205528
  68.9097595  43.0846825  24.1049633  69.9481659  44.0256348  24.6770706
  86.0984650  23.5595779  39.0914307  85.4425583  23.6622162  39.7809830
  85.5901794  23.3609085  38.3050423  11.1677656  32.0307465  72.6704865
  11.4641809  31.2714272  72.1686859  10.9440212  32.6836433  72.0072403
  60.8322754  44.2563629  38.9875870  60.5417023  44.2784920  39.8993530
  60.1055603  43.8511581  38.5143776  86.9856339  10.2535009  32.5584679
  86.9808273   9.7783613  33.3894005  86.4138870  11.0061531  32.7096252
  53.2839317  25.4896965  39.8132935  53.9564323  25.1648388  40.4119949
  53.1642036  24.7814865  39.1805725  17.3268833  32.5041046  23.2487755
  17.0376816  31.9769611  22.5039864  17.5725937  31.8625240  23.9152813
  39.0988655  58.5851631  36.0152016  38.7354927  57.8871498  35.4702530
  39.2909317  58.1607857  36.8514099  46.2092285  41.6895866  76.8432159
  45.3457642  41.6519623  76.4318161  46.8086090  41.8895378  76.1241913
  80.5425644  17.3729019  51.7527733  80.1380005  17.6005421  52.5898743
  79.9096527  17.6605167  51.0948029   6.2354569  33.6524162   2.8886251
   5.8819075  33.0334282   3.5274434   6.8875422  34.1546478   3.3772759
  72.4437332  47.1569252  55.6349220  72.8959427  46.7909813  54.8747749
  73.0101776  46.9432602  56.3763542   1.6888050  43.6646538   7.7974510
   1.6636883  42.8319054   8.2687635   1.4464453  44.3184319   8.4532452
  11.2639494   9.4080372  30.2065449  10.7120342   9.7956429  30.8857956
  11.8767881   8.8500357  30.6853924  85.3837738   1.2389796  86.2070847
  86.0501099   1.8871771  86.4352722  84.6884766   1.7471316  85.7892609
  43.8854904  17.6746807  14.1691055  43.9606171  17.3803997  15.0768423
  44.6041336  17.2351532  13.7145739  50.7176056  67.1364594  88.7969513
  51.5647240  67.0090942  88.3698654  50.8205528  67.9465408  89.2963638
  63.4058647  35.0844421  17.1907883  62.5765762  35.4341621  16.8648891
  63.8365173  35.8336716  17.6024036  60.9169922   8.3501062  21.1781502
  60.4688530   7.7814989  21.8043194  60.2121086   8.7368050  20.6586952
  35.1306534  16.7946758  21.0918980  35.7120094  16.9494152  20.3473759
  35.1543121  17.6127396  21.5883274  27.8696404  11.3415213  87.1231079
  28.2182770  11.4583893  88.0068665  27.3422260  12.1251335  86.9681320
  65.8009720  31.2429790  18.9007702  65.6795197  31.7480831  18.0968113
  65.2912750  30.4448299  18.7614803  43.8231087   3.7590406  66.5458908
  44.4460030   3.0975161  66.8469238  43.6240425   4.2739930  67.3278351
  75.7479401  27.9485474  67.5148010  75.0087357  27.5015640  67.9271317
  75.3546829  28.6954556  67.0634613  33.0196762  18.7909145  12.2688847
  32.2019768  18.5660229  12.7127628  33.6389351  18.1183319  12.5524015
  28.1158543   8.1369133  49.5817299  28.5406227   8.5334444  48.8210945
  27.5943947   8.8444633  49.9607887  34.6347008  58.8054543   6.7687020
  34.0829582  58.2907181   7.3576508  34.3019600  58.6062241   5.8935881
  86.7441711  28.6347675  12.0906496  86.6286926  28.8757133  13.0098019
  87.0314865  27.7220726  12.1165724  51.0119324  27.3116837  32.6230545
  50.5760078  26.9347515  31.8587723  51.8282928  27.6739445  32.2787323
  75.4250259  68.5516968  26.7397385  74.9804153  67.7441711  26.9975147
  76.3413849  68.4061813  26.9750080  74.1997223  55.1572342  73.0793839
  73.9283676  55.1210022  73.9965973  74.9475174  55.7547379  73.0742645
   3.1193604   5.3175917  38.8315582   2.7328322   6.0377293  39.3297844
   3.7050316   5.7456450  38.2070618  57.8115883  40.2627907  27.8582458
  57.3950119  40.3809776  27.0045910  57.8921432  39.3140259  27.9561462
  85.1218414  71.6565704  78.8488083  85.8750000  71.3632965  79.3616257
  84.6783829  70.8484497  78.5909042  50.4093857  56.5084763  19.0647736
  51.0586700  55.9095421  19.4334698  49.7339821  55.9355659  18.7016869
  61.2191925  29.0016689  13.8628778  60.7833023  28.6542873  13.0847025
  60.5436630  29.5140038  14.3071756  66.7729340   8.0603819  12.7683315
  67.1980438   8.8925629  12.9756708  66.8145676   8.0014315  11.8138552
  71.1910553  26.7728996  64.0708237  70.3341751  26.8339825  63.6486282
  71.5054169  27.6763020  64.1065369  64.9771271  28.1142979  51.2111092
  64.6361389  27.4484978  50.6138878  64.2656174  28.2647552  51.8334885
  65.1618271  22.5897846  14.7026081  65.5502319  21.9159069  14.1446981
  64.2649002  22.6796284  14.3806009  78.3448563  17.4940395  38.1504059
  78.4101562  16.8924141  38.8920364  78.2174377  16.9252911  37.3911133
  19.9889965   0.4379755  31.1015091  20.5077324   0.7425967  30.3569622
  20.4235363   0.8151086  31.8664780  11.1933727  19.2510643  46.1754799
  10.7894487  19.0680046  47.0237503  10.4785738  19.5933838  45.6387177
  47.8967743  27.6285381  25.7043972  48.6334381  27.0198231  25.7593937
  47.1213837  27.0753727  25.7993279  57.0745926  18.4263630   2.4709721
  57.3128395  19.3459873   2.3536801  57.8157806  17.9391460   2.1111245
  78.0424805  39.0210571  56.8951836  78.5842896  38.5790901  56.2414742
  77.5037842  38.3244438  57.2703781  63.0475006  24.1464138   4.7285032
  62.7732811  23.2306080   4.7768354  62.8084984  24.4216042   3.8434153
   1.2487986  30.6068192  56.7905464   1.1098573  29.7011185  56.5137177
   1.1652173  30.5814209  57.7437553  18.0851955  50.3313408  25.7291946
  17.9515057  49.3947639  25.8747387  17.6620102  50.7527733  26.4772167
  86.2241135  63.7490425  76.6003342  86.1265793  63.9973183  75.6810532
  86.1956635  62.7922821  76.5943451  53.6175041  38.9314651   9.4191713
  53.7653770  39.8721313   9.3216381  54.4739647  38.5780334   9.6595650
  33.0751953  62.8320847  71.7671356  33.2023430  61.8891945  71.6621704
  33.4533653  63.2143860  70.9752655  77.5101700  15.0342665  43.9337730
  78.2809219  15.6014633  43.9122810  77.8515472  14.1591988  43.7495117
  84.2563629  26.3756828  67.7506638  83.6879120  25.9686584  68.4044418
  83.6533890  26.7419434  67.1037369  86.5919571  70.0503540  31.7670021
  86.5041122  70.1503525  32.7149010  87.1725311  69.2971115  31.6584110
   9.4452534  68.5384903  47.1396408   9.1332064  67.8258209  46.5820007
   9.6208916  69.2578735  46.5331116  36.9624977  49.9930000  83.8173828
  37.4502983  49.2272339  83.5142517  37.4793854  50.3324165  84.5480347
  51.9441147  67.0321045  20.6892929  52.0897827  66.1341553  20.9871235
  52.4744720  67.5688095  21.2782745  72.4350204  56.7467461  83.2714310
  71.5925751  56.3086090  83.3920593  73.0128174  56.0647507  82.9289856
  35.3696251  47.0088272  74.8483582  35.0390205  46.2097054  75.2586517
  34.5839996  47.5168304  74.6459808  19.2853260  70.3026886  37.3079758
  19.9927959  69.7481232  37.6368713  18.4915791  69.9326096  37.6942902
  70.4151230  12.5560484  40.9007530  71.1689453  12.3030891  41.4336739
  70.4837036  13.5078039  40.8253174  60.5453262  65.9461060  48.8597717
  59.8093643  65.8328400  49.4612389  61.2843475  66.1706314  49.4251633
  35.7088966  24.2913399  13.0729246  36.3500519  23.5977249  13.2280025
  35.4168205  24.1505280  12.1723166  71.7523956  71.0187531  76.8875351
  71.9470291  70.9722443  75.9514847  71.0563202  70.3751297  77.0196991
  69.0146332  21.3650608  34.1585922  68.8880157  22.0315018  34.8339081
  69.8990173  21.0328827  34.3127403  66.0056610  51.2011986  17.8298721
  65.8187714  51.9794273  18.3549099  65.6284332  51.3949623  16.9717407
  27.7723141  15.6360064  84.4471512  28.6534939  15.3320189  84.6647339
  27.8076019  16.5839748  84.5749817  19.8098202  54.9773369  70.9997711
  20.7636795  55.0184784  70.9312744  19.5171108  55.8677177  70.8054199
  82.6056595  41.3452873   2.5103390  82.6304932  41.7599869   1.6479944
  82.6824112  40.4087486   2.3280265   9.2384615  36.8889008  61.3204727
   9.1324749  37.8385735  61.2645874   8.5482235  36.6057472  61.9201622
   5.3956208  16.4015846  76.5037918   4.7553668  16.1148911  77.1550369
   6.2438703  16.2665539  76.9262543   3.8919106  18.1113014   4.5363240
   4.5951719  17.5042744   4.3057294   3.6309688  18.5032482   3.7029462
  50.6361351  17.4227180  35.6014099  50.1540184  16.7823219  35.0782547
  49.9983597  18.1132450  35.7821045  27.8626518   3.1045310  74.4610062
  28.3858891   3.4905450  75.1634674  28.4334545   3.1341441  73.6931915
  27.0716267  14.7158623  70.8372574  26.3214703  15.2813749  71.0208130
  27.7853088  15.3218298  70.6380234  82.3506851  47.3878708  22.3490620
  81.9141159  46.9208488  23.0614719  82.4531784  46.7315941  21.6598377
   7.0431137  37.3688736  75.4177475   7.7100544  38.0074387  75.1654358
   7.1301966  37.2943802  76.3680573  27.1556988   1.2226847  13.8386803
  27.7105808   0.5289021  14.1950550  27.0265102   0.9789835  12.9220819
  67.8991470  39.6469269  13.7744122  66.9648819  39.7957344  13.6286983
  68.2622528  39.5267448  12.8969469   8.8803596   0.2289961  32.8999748
   9.6690750   0.7411085  32.7213669   8.4083099   0.2179420  32.0673409
  23.7480755   7.7222595  23.4079590  24.3770638   8.0420074  22.7611465
  23.2259026   8.4916916  23.6349869  10.1231995  71.4913177  49.5792770
  10.3098125  71.7708511  48.6830254   9.9901800  70.5457611  49.5124664
  39.9728470   1.0371374  40.3652496  39.9418449   0.5857255  39.5217438
  40.4199371   1.8627142  40.1787949  84.4043884  68.3295746  43.2657547
  84.0016327  68.1439819  44.1140289  85.0795746  68.9801407  43.4584045
  76.5589752   9.5755434  65.9116058  75.6124573   9.4633636  65.9996109
  76.7612762  10.3378487  66.4540024  55.4151115   6.2717705   7.8359175
  54.7942009   6.8067546   7.3414559  54.8758812   5.5938721   8.2432480
  48.9788361  63.1705284  29.9382782  48.2425690  62.7512245  30.3836155
  49.5518112  62.4456673  29.6882725  45.6129913  67.8168869  82.5120010
  45.1109123  68.2723770  83.1877747  45.5662460  68.3934784  81.7493820
  81.2413406   5.1634326   9.7733583  81.7393494   5.6641955  10.4194641
  80.7069550   4.5643907  10.2947111  26.6019764  26.1272717  14.3563766
  26.8148651  25.9144955  15.2650223  27.3547764  25.8147659  13.8545132
  23.0896149  26.9236717   1.5376806  22.8639069  26.3848648   0.7794102
  22.6680794  27.7659378   1.3670087  63.3805389  52.9679298   6.2044244
  62.8980637  52.2776909   5.7494287  63.9578705  52.4992332   6.8071198
  41.5599747  12.2905216   2.2437551  41.5884781  11.3361702   2.3118167
  42.2057419  12.5019560   1.5695807   1.4530776  34.5496063  67.9945755
   1.5336322  33.5963554  68.0270462   1.9128896  34.8556023  68.7763519
  15.3468151  41.2106438  25.8638992  14.6286383  40.8820190  26.4046955
  15.3816347  42.1477890  26.0556774  74.6168137  32.6234283  78.6815796
  74.2790527  32.0343628  78.0069351  74.0617523  32.4580803  79.4436798
  20.3520489  14.8791046  53.5194397  20.0298386  14.0771399  53.1080208
  20.0039368  15.5845842  52.9741402  15.3524599  63.9395561   0.4866471
  15.9304504  63.8071136   1.2380577  14.8425579  64.7179642   0.7109624
  35.1788902  69.3868484  17.1704578  34.6124763  69.2987671  17.9370403
  35.6262703  68.5431671  17.1050034  45.2004166  61.1864243  72.4897995
  45.7451248  60.5543633  72.9588699  45.2663269  60.9244614  71.5715103
  25.0081520  65.3969345  19.9766788  24.4253635  64.7713547  20.4070702
  24.4188728  66.0107803  19.5383034   7.5651169  53.7252121  61.3701973
   8.4204435  53.5205841  60.9923401   6.9587760  53.6757660  60.6311874
   3.2765017   1.5545805  27.9272175   3.1009040   2.3894324  27.4931450
   4.2291327   1.5266931  28.0163727  76.0224304   4.8823509  72.9280243
  76.7064972   5.4437003  73.2929382  75.6862335   4.3947911  73.6800232
   8.4881945  15.5702963   8.0794210   8.5815039  14.8699722   8.7252312
   9.2542877  15.4774923   7.5130987  50.3202019  30.1445866   1.5203658
  49.6211739  29.6282768   1.1190945  50.9920158  29.5019588   1.7482340
  63.0344429  67.2856216  84.8371277  63.0142021  66.3470993  85.0241928
  62.2630386  67.6354065  85.2830124  84.1105499   2.5064108  78.4737549
  83.1588593   2.4489160  78.3888702  84.3614273   1.6935202  78.9125061
  71.9735565  30.6560326   4.9404364  71.7414703  29.7294865   4.8781228
  71.4193649  30.9950027   5.6434379   2.4619913  17.0835056  47.4374619
   1.9771327  16.4877396  46.8663216   1.8122060  17.3914452  48.0692749
  46.7567596  60.1609879  58.9040146  46.0660477  60.1584320  58.2413368
  46.5321465  59.4356956  59.4868851   4.4363303  14.7060013  45.2394905
   4.2132821  15.6271191  45.3737411   3.8197279  14.4050751  44.5720520
  71.5978851   3.1754653  18.3030529  71.4702606   2.3722117  18.8077602
  72.3024597   2.9641004  17.6905746  48.0111885   1.3627883  35.6935844
  48.0843010   1.7486300  34.8206482  48.4401169   0.5106407  35.6154861
  82.7053146   3.4647679  51.6835022  83.1885910   4.1037326  52.2073364
  81.7918320   3.5836396  51.9435921  48.6049385  70.7027817  75.7077713
  48.1912460  70.5813980  76.5623779  49.1921768  71.4487762  75.8297272
  31.3994942  14.9890127  76.8133316  31.6891270  14.5824089  77.6300430
  30.7039719  14.4145250  76.4932632  60.4700508  43.9922638  70.5031128
  61.1876144  44.0449448  69.8718033  60.6337471  43.1813698  70.9846649
  51.3578224  66.0706406  35.4442406  51.2922440  65.2048187  35.0414009
  51.7760506  66.6143570  34.7766457  61.5273094  44.4027138   5.7452369
  62.1664925  44.0625687   6.3713202  61.9336700  44.2653008   4.8895378
  19.9905567  37.4283142   5.4278965  20.8194847  37.0092163   5.1966677
  19.4020538  37.2100792   4.7052135  51.2420731  38.8133812  20.5219288
  52.1597176  39.0691605  20.4284420  50.9326324  38.6988258  19.6233997
   9.4963770  58.8235130  77.2138443   9.8538733  58.4340706  76.4158707
   9.2350445  58.0745697  77.7495880  30.8321152  60.0865211   7.0822015
  31.1669044  59.3315620   7.5661273  30.7648258  59.7805786   6.1777105
  41.0491066  27.6125221   8.9918747  41.4882584  27.5262604   8.1457443
  41.7536049  27.5402374   9.6358385  39.4365120  56.6210136  69.9189911
  39.1692505  57.4164696  70.3794785  40.3924332  56.6659393  69.8983307
  73.7357178   2.2938082  71.9434891  74.3487396   2.1363628  72.6615753
  73.5942841   3.2404590  71.9525223  77.7323380  21.2044563  35.7407608
  78.5950928  20.9475574  35.4153519  77.1214066  20.6304417  35.2787018
  33.1475945  66.4239349  71.8289566  32.6495132  67.2366714  71.7416992
  33.7959595  66.4637222  71.1259155  22.0515575  70.8296585  68.5384598
  21.6292706  71.0246201  67.7018661  22.2033978  71.6871948  68.9357071
  65.8840179  39.4849510  87.6684265  66.0807724  40.0977020  86.9598694
  66.6764908  38.9549026  87.7536621  35.4380112  12.7838221  22.7548962
  35.6285095  11.8468103  22.7990742  36.0467834  13.1816053  23.3773079
  70.5511703  39.6347885  75.5684891  70.8477707  39.7175560  74.6621780
  71.3038483  39.2707748  76.0345306  29.2570972  59.0896873  46.4290733
  28.8192883  58.8455734  47.2445259  30.0662117  59.5169106  46.7102280
  13.7998676  32.6784286  23.8340302  14.0349493  33.6037827  23.7655697
  14.3966656  32.2344856  23.2315521  60.8905334  13.9272051  41.9233704
  61.4780998  14.3263607  41.2817497  60.3397293  13.3369751  41.4090996
  71.3211288  45.1051559  78.2039337  72.2749786  45.0275345  78.1846237
  71.0050125  44.2256317  77.9971848  22.0390472  60.2515297  43.8139420
  21.3611908  60.6558571  44.3554764  21.9528599  59.3133583  43.9831772
  29.6527672  45.4092522  11.8902311  28.8886452  45.6914062  11.3874998
  29.6676006  45.9910049  12.6502161   7.5277305  58.1609077  51.9934616
   8.2393398  57.5207863  51.9841347   6.9704351  57.8889008  52.7226181
  26.5555630  64.9365540   5.3276277  25.7502594  64.9763641   4.8117480
  26.3513069  64.3361053   6.0445476  74.1951599  63.4726982  82.8467178
  73.4281464  63.8894348  82.4539719  74.7947235  63.3349380  82.1133804
  76.8759842  47.9497719  79.2368011  77.5539398  47.5628090  79.7907486
  77.2870789  48.0304184  78.3761444  31.0262928  17.9568100  74.3086090
  30.8443298  17.9703312  73.3689575  30.8239594  17.0611305  74.5788879
   7.7003698  20.2778053  15.4102602   7.6323724  20.1927853  16.3612480
   7.6538382  19.3785973  15.0854654  60.9979248  47.4106979   7.7351022
  61.4913483  47.5908852   6.9349170  60.8897285  48.2675323   8.1478424
  77.1425858  20.4907894  30.7386131  77.8712692  21.1111164  30.7598438
  77.3020248  19.9084930  31.4814053  85.9747086  52.3019371  79.2937164
  86.8930817  52.0995140  79.4721756  85.8446121  52.0406265  78.3821106
   4.9536157  32.7153740  75.6440277   5.5699878  32.9231300  76.3462830
   4.4197664  32.0034561  75.9967422  71.4528275  55.5534897  11.2590790
  72.2164459  55.8995438  10.7971601  70.7821655  56.2280159  11.1520309
   2.5813363  19.1893444  40.0031471   2.2659168  19.9311733  39.4869766
   3.1418655  19.5836201  40.6714211  53.8212738  13.9860134  83.7162933
  53.3233452  13.9178076  82.9016495  54.2188530  13.1223564  83.8270187
  66.6469421  54.1122284   4.4646864  67.3304596  53.9909973   3.8056381
  65.8551559  53.7629776   4.0556178  62.7577019  35.9275093  23.4823704
  62.7314491  35.2585182  22.7982674  62.0137291  36.4977074  23.2884445
  28.1166306  12.3379698  71.7312546  27.8801918  13.2604399  71.6344223
  29.0167789  12.2864189  71.4098434  15.5426044  43.3915977  85.2190857
  15.4859829  42.7122383  84.5471497  16.4198723  43.7598381  85.1140442
  30.8939800  66.5111618  29.8464012  31.4300652  66.3420258  30.6211510
  31.0011711  67.4478149  29.6807976  86.6289902  12.3334522  87.9797821
  86.8036728  13.1870470  88.3761292  85.6745529  12.2606964  87.9786835
  33.8787498  30.8427448  85.9986191  33.2920265  30.1676083  86.3394623
  34.3487854  30.4130650  85.2840042  47.3211746  24.9160709  28.6961231
  46.5611382  24.4117069  28.4059620  47.7961082  24.3211174  29.2763805
  20.5961246  67.0953674  79.1969681  19.7842197  67.4939957  79.5102463
  21.1793671  67.8365631  79.0335922  41.4862709  67.1605835  39.4703140
  41.1419411  66.2707977  39.5474548  40.7135963  67.7037888  39.3149834
   8.3604221  66.3189774   0.8506073   8.3774595  65.3740768   0.6986298
   8.0030928  66.4131470   1.7336023  52.4619370   7.5763731  23.0580101
  51.6592979   8.0168247  23.3373070  52.7898026   7.1509290  23.8503056
  10.1133509  31.9159622  45.3686066  10.0315485  30.9894924  45.1423454
  10.1533718  32.3659744  44.5247383  16.5924683  25.8400135  19.8963833
  16.9930782  25.9777603  20.7547359  16.3506603  26.7178898  19.6012650
   2.3139565  65.0642853  44.3027840   1.9285015  65.9384613  44.2438469
   2.0538979  64.6324997  43.4890518   2.7848072  65.1677856  84.9151306
   2.7340837  66.0748749  84.6137314   3.7214804  65.0037842  85.0245895
  20.3839626  26.4937820  65.5353165  20.2316513  26.5851860  64.5947418
  20.8373508  25.6554661  65.6241760   8.5457964  39.9402237   2.6967866
   8.9829960  40.7906570   2.6537364   7.9676170  40.0063515   3.4567657
  47.5505409  71.3438950   3.8599737  47.3094978  70.4269714   3.9918566
  46.9700279  71.6460648   3.1614518   1.1826754  14.6264429  26.5405960
   0.4599940  14.0026226  26.6099567   1.2678171  14.9931707  27.4206486
  35.3047066  19.0642128  79.3826675  35.9556580  19.3276253  78.7321930
  35.3380318  19.7523880  80.0471497  77.9823914  11.6752844  62.0660324
  77.4170761  10.9047995  62.1208992  78.3844376  11.6161394  61.1993790
   1.3518305   6.6017737   8.0075455   1.7792569   6.7859573   8.8439751
   1.2664200   5.6486135   7.9869843  70.3241730   8.4474239  51.6085358
  69.4611588   8.8311644  51.4530449  70.3957901   7.7479014  50.9590950
  64.5654755  61.5973434  21.2700920  65.4095306  61.3448448  21.6443100
  64.5435104  62.5509148  21.3503990  80.1575317  46.8658752  66.3913422
  80.2074432  46.3355675  67.1866455  81.0680923  46.9693604  66.1149368
  73.1116257   2.6680815  82.1192093  73.7290955   2.0728900  81.6941147
  72.8648529   2.2195871  82.9280319  12.0387621  17.1323051   2.6144917
  12.2029600  17.3518887   3.5315819  12.6908150  16.4626331   2.4081030
  15.1194544  31.0648384  63.4429398  14.1714411  30.9849510  63.5483932
  15.2971535  30.6882076  62.5810776  28.1937428  56.2529335  85.7504959
  27.3829422  56.5247383  85.3204346  28.0440826  56.4318924  86.6788330
  69.8582611  68.9181824  77.8217239  69.0715866  68.4868240  77.4880981
  70.3797684  68.2085266  78.1967545  14.6624804  56.6433449  35.3199043
  15.4417305  57.1410904  35.0724144  14.6219654  55.9296494  34.6833305
  54.5731239  32.3772087  27.3113804  55.3458977  32.7112236  27.7668839
  54.9114532  32.0383568  26.4825573  31.1375694  54.8505402  43.8553162
  32.0899010  54.7544098  43.8625679  30.9867725  55.7122574  43.4668083
  52.0035210  67.1709061  85.6140518  52.3175774  66.8543549  86.4610367
  51.0585442  67.0202255  85.6374512   7.9542718   5.1317430   2.4300015
   8.4496756   4.6562233   3.0968506   8.5967236   5.3262205   1.7476045
  15.9005079  19.2082062  21.3485985  15.8712883  19.0346584  20.4077168
  16.3576584  20.0458374  21.4235630  70.3472137  65.1207047  17.5055084
  71.1600723  65.6114502  17.6266289  69.6725540  65.6738281  17.8993549
  81.8587799  23.8433399   0.4677964  82.2184982  24.5250568  -0.0997422
  81.5574417  23.1639080  -0.1353611  45.7812691   6.3258181  30.3569889
  45.7352448   7.2069979  30.7279816  46.5813293   6.3286710  29.8315067
  55.8694611  39.2108765  46.0337639  56.3728180  38.4688225  46.3687477
  55.5376701  38.9124870  45.1869392  54.2956848  46.0671692  57.1336975
  54.0201263  46.8844528  56.7185516  54.0925179  45.3902435  56.4881554
  20.3949852  31.7611198   0.0480172  19.7620068  31.0488434   0.1387397
  19.9282112  32.5372543   0.3578033  21.8323612   2.6407647  65.1573868
  21.4052486   1.7871860  65.0852127  21.1127186   3.2714612  65.1335678
  47.3603020  11.0124512  19.2571411  47.2794724  11.1772137  20.1965828
  46.5226746  10.6207876  19.0097218  76.3257828  22.1033878  40.8845482
  76.3885117  21.7145405  41.7569580  76.4216537  21.3633747  40.2850304
  84.8953934  30.9552345  73.2466888  84.2058182  31.0813732  73.8984604
  85.1347809  31.8417988  72.9766312  28.7708397  49.4363594  14.9788074
  28.7921619  50.1043701  14.2935781  29.1602612  48.6627197  14.5712986
  79.6836929  17.1543999  49.1843224  80.5521088  17.3707314  48.8447838
  79.4324341  16.3610249  48.7113991  35.5526237  51.5970573  10.3609715
  35.3843384  52.1615906   9.6065083  36.3896866  51.1767921  10.1636677
  49.0296021  16.8413963  85.8464355  49.4508438  16.4278469  85.0929337
  49.0962143  16.1905479  86.5451431  33.2417297   1.1101836  22.2250690
  32.6286201   1.2155212  22.9525528  32.7555656   0.6050971  21.5733318
  23.0258255  69.8059998  48.3691673  23.8559132  70.2374496  48.1665916
  23.1364746  69.4813156  49.2627945  39.8153419  66.6117401  59.0986557
  39.5960007  67.3279266  59.6946449  40.2649956  67.0370026  58.3684502
  11.6888885  69.2052231   4.0313339  11.0949554  68.8359909   4.6848965
  12.4549932  69.4828186   4.5335836  63.1132584  61.8430977   1.6295729
  62.9601746  62.0714798   2.5464365  63.0821419  62.6799126   1.1658856
  85.1247330   9.8172073  49.7681923  85.1747894   9.0378399  49.2147369
  85.7640610  10.4209538  49.3900604  24.0805969   5.4025874  44.6016960
  23.9065075   4.6869450  45.2130737  24.9216805   5.7607598  44.8854599
  64.0375671  26.9437771  58.5896912  63.4448891  27.4851856  59.1110725
  64.3851624  26.3032207  59.2102547   4.7335000  10.7957802  88.5311279
   4.8475327  10.9589453  89.4673996   4.0848665  11.4422541  88.2526016
  33.7527847  45.0000496  83.6037292  33.8413734  45.6488533  84.3018951
  33.0365677  44.4342384  83.8920364  31.2939968  18.5331631  28.7148018
  30.3702297  18.3545799  28.8908482  31.3020172  19.4196892  28.3539162
  58.3264732   1.4825476  29.9458408  58.5838509   1.8265895  30.8011913
  58.2624474   0.5366168  30.0775509   4.0726318  68.0772247  38.8804283
   4.2598281  68.0426941  39.8185120   4.5202756  67.3124390  38.5185585
  59.0995789   3.1139205  64.1741257  59.9147110   3.4241841  63.7797508
  58.4796600   3.0777581  63.4456863  14.3194065   1.7430696  80.9111404
  14.6463995   1.6746250  81.8081436  13.4237947   2.0670588  81.0067596
  54.7400932  50.4417114   3.2544756  54.4956322  51.3652954   3.3133547
  55.2048683  50.3696518   2.4207962  60.2106590  57.2768631  45.7348938
  59.3230934  57.4272423  46.0602303  60.1625633  57.4863930  44.8021469
  77.3841248   0.2823988  51.0403557  76.8346481   1.0286239  51.2800484
  77.1048203  -0.4193675  51.6283531  11.5843649  49.1238670   5.0865207
  11.0462236  49.3431892   4.3259063  12.4222507  49.5555077   4.9195871
  73.2457657  51.7062111  29.5708733  72.4007416  51.4536591  29.1988773
  73.4846497  50.9752197  30.1408005  25.6556931   5.7774892  73.5102081
  26.5218506   5.8603163  73.1112823  25.6020107   4.8600392  73.7778625
  75.5435104  39.4534035  60.4433975  75.4836807  40.4083595  60.4701385
  76.2824173  39.2759209  59.8613739  18.3009644  47.7420120  37.9330444
  18.7872009  47.4057922  38.6858788  18.8205814  47.4764328  37.1742973
  62.0988808  46.2734146  55.6741066  61.7293587  45.6096306  56.2564087
  63.0448036  46.2065392  55.8044281  23.2761307  60.6549530  16.3731785
  22.8347988  61.4700546  16.6120605  23.7890282  60.4243774  17.1477776
  28.2797318   9.0833130  40.9437408  28.7471714   9.3322601  40.1463966
  27.4389114   8.7472315  40.6334152  17.1140919  34.7218246  16.1914921
  17.6694736  33.9456596  16.1183357  16.6375656  34.7544098  15.3619785
  82.0513611  67.3342438   0.4891434  81.1732483  67.7083130   0.5614539
  81.9707565  66.6631622  -0.1886348  22.2392502  63.0981293  13.8434410
  22.6135979  63.2093887  14.7173500  21.5116749  62.4892159  13.9702883
  66.3479233  59.9055901   3.4768827  66.1139374  59.9262924   2.5489521
  65.5201035  60.0480309   3.9358652  73.5395889  16.3469105  62.6351814
  74.1427002  16.0223942  61.9664688  73.2466583  17.1951656  62.3021812
  34.1629677   6.1560082  39.5065842  34.3213348   5.9754696  40.4331665
  34.2766151   7.1028624  39.4242210   3.5724063  63.0220032  50.4520569
   4.1216192  62.9365654  51.2313499   3.9620135  63.7465668  49.9627266
  35.8516922   8.5360746   5.8095636  35.8430023   8.5438404   6.7666926
  35.4201431   9.3530569   5.5594878  20.8664951  17.5910339   4.8680887
  20.4490280  18.1500626   4.2127709  20.9283752  16.7336197   4.4470854
  51.7317581  51.6530762  38.2318306  51.5343590  52.4847374  37.8010063
  52.6312943  51.4557190  37.9708366  13.5025892  21.8572407  24.7184162
  13.8044586  21.1461792  25.2836590  13.4045439  21.4528046  23.8564129
  83.6781540  10.5091944  88.8835907  83.5883865   9.7951231  89.5146790
  83.8435822  10.0714712  88.0485687  31.3778152  71.2780075  20.6278973
  31.1713314  71.1916199  21.5585594  30.5394802  71.1508713  20.1837540
  25.1661739  49.2411957  88.2966995  24.2383060  49.0081329  88.2654953
  25.2526474  49.9638481  87.6749802  65.8610306   1.4566687  43.8130112
  65.6214523   2.3741124  43.6821213  65.1740036   1.1084518  44.3813210
  16.5689011  24.4392586  86.1008835  16.7345428  25.3804398  86.0463638
  17.1970024  24.0498867  85.4925232  72.6054153   5.2610626  23.1182880
  72.4133224   6.1899562  22.9898777  72.4592819   4.8652587  22.2590904
  61.3702698  19.1307945  72.8633118  61.0453453  18.9250221  71.9867706
  60.9251747  19.9448509  73.0987473  54.7984695  45.3587112   1.5940388
  55.2924995  46.1646996   1.4438680  54.6424637  45.0066147   0.7177272
  31.3671169  64.5864105  72.7809143  31.9019814  63.8658867  72.4477539
  31.7464581  65.3700943  72.3832016  22.1553345   1.6125212  40.3917885
  21.5789719   1.3966385  39.6586914  21.6109791   1.4878662  41.1692009
  32.1069679   9.8614063  15.7991352  31.7645054   9.4348497  16.5846291
  32.9270592   9.4030323  15.6158991  13.2281380   6.1452413  88.9329147
  12.7644787   6.7182927  88.3222885  12.8020105   5.2939644  88.8330383
  76.1542511  65.7495804  38.8216019  77.0000763  66.1969070  38.8481712
  76.3623810  64.8605957  38.5341454   6.2612853  46.9246254  37.3993797
   5.4122858  47.3448410  37.5366783   6.0791440  46.2106895  36.7883530
  19.3566914  48.1203766  47.4629021  19.7425041  48.9804726  47.6290855
  19.7144337  47.8571815  46.6149788  12.8264055   0.9048831  19.3052235
  12.9193850   0.3198570  18.5533371  13.5883741   1.4820660  19.2552700
  66.2574387  40.0815964   3.2842698  66.5069809  39.3943481   2.6664855
  67.0618668  40.2742920   3.7659347  74.9692154  49.2409973  59.3737640
  74.2202988  49.7312813  59.7128525  75.3204803  48.7821732  60.1368675
  86.6244659  22.4982796  70.3146133  86.8862762  22.2052555  71.1874390
  86.5777512  21.6949348  69.7962646  71.1493683   6.5270128  42.4057007
  71.4577484   6.3164754  41.5243340  70.3841400   5.9660430  42.5320816
  56.4409943  15.1390181  67.5291672  56.1457901  15.7395935  68.2135620
  55.6358452  14.8538065  67.0971680   6.9888887  44.7244949  18.4352245
   6.9498057  45.1470375  19.2932224   7.3511057  43.8563080  18.6120815
  47.3540192  23.6697025  80.8467102  46.7683983  23.9464722  80.1419525
  46.9258347  23.9734497  81.6471024  18.9238911  25.8429222  27.0390911
  19.1500931  25.3555737  26.2469082  17.9683685  25.8035965  27.0798454
  62.6645546  36.1583405  53.3749275  62.5315781  36.5671349  52.5196877
  63.5987434  36.2700310  53.5511246  67.9053345  33.6281433   6.4898663
  68.5297394  34.3436928   6.3701539  67.4370346  33.5769882   5.6566105
   5.8317895  16.9044819  17.8935070   6.3817258  16.2507973  17.4616528
   6.4466815  17.4444523  18.3900681  21.7471085  69.0741653  70.4992752
  22.0092049  69.7279816  69.8511505  20.8254852  69.2654190  70.6732407
  76.1837997  68.6753616  76.6535110  76.3885117  68.8533173  75.7355499
  76.5190277  69.4374847  77.1257629  82.6410294  14.0473537  73.7032852
  82.5896301  13.2792864  74.2721939  83.5578003  14.3186893  73.7494507
  24.2967014  38.2956696  62.9197273  24.5638943  37.4159355  63.1860123
  24.6649990  38.4026718  62.0427208   2.5378604  61.6455803  86.8977127
   3.1624789  62.3660889  86.9810715   2.1354582  61.5760765  87.7634354
   0.8277809  67.8060379  13.0325661  -0.0975514  67.9480820  12.8330297
   0.8233654  67.3289871  13.8624086  26.7371159  63.8206367  27.9928455
  27.5751762  64.2803421  28.0433998  26.5405521  63.5806847  28.8983917
  32.8125229  58.9951591  30.3688259  32.4489822  59.8804436  30.3871765
  32.2139435  58.5020142  29.8078117  72.5972748  67.3774643   9.4524908
  73.4482574  67.7366486   9.2014227  72.6085129  66.4800034   9.1198053
  30.2447300  54.2442551  36.2953033  30.2613506  53.6280441  37.0275879
  30.9901428  54.8236961  36.4529076  15.4551144   2.2209673  58.7682800
  15.9076967   1.6092240  58.1876144  14.5258512   2.0320580  58.6378365
  64.0638275  44.5870247  35.9767685  63.6706581  44.8795357  36.7990150
  64.9953842  44.4943275  36.1763649  55.6057472  17.2974739  24.1263123
  55.7149773  18.1361656  24.5745277  55.1152954  16.7570057  24.7456532
  31.4820538  40.2312126  87.4611130  31.8279095  40.6077919  86.6519089
  30.6125946  39.9093552  87.2230377  75.6010971  47.9630508  12.3073845
  76.3547745  47.9512672  12.8973541  74.9066010  48.3835983  12.8143883
  32.0573997  55.3370018  63.2688866  31.7495098  54.4538956  63.0650177
  32.6767960  55.5423241  62.5685844  37.6508293  70.3134766  21.4665146
  38.5708160  70.5709457  21.4068050  37.2742424  70.5736847  20.6258564
   3.0350904   3.3248281  45.6789856   3.6129558   2.8146238  46.2464333
   3.0372403   2.8513730  44.8470802  30.5025272  39.8086739   1.0254351
  29.7415981  40.2704430   0.6733200  31.1536617  39.8511467   0.3251128
  36.1803284  13.1134520  58.0215721  35.2794800  13.2170544  57.7150230
  36.3894005  13.9497366  58.4376869  85.3408585  26.5357800  18.9010868
  85.0389633  25.9594498  19.6031780  85.1781311  26.0407066  18.0981827
  28.7269192  10.8867598   1.6115608  28.9377842  11.8188066   1.6668407
  29.1584492  10.4980288   2.3724170  46.9121933  59.9133797  37.4555359
  46.2139359  59.3979836  37.8593178  46.7050209  60.8191261  37.6856079
  74.5836716  63.8640175  75.7703400  73.9761810  63.4468498  75.1594696
  74.9387589  63.1404381  76.2866516  38.5852165  51.9898453  35.5871735
  37.9564629  52.0914955  34.8726311  38.9845734  51.1333847  35.4347725
  23.7144871   5.8036408   9.0849180  23.6323128   6.5277972   9.7054634
  23.7741547   6.2274914   8.2287502  25.0765514  43.5168571  83.1990433
  25.5943451  43.4087715  83.9968185  24.2148495  43.1656036  83.4233704
  72.6974487  49.8254852  42.3440437  72.5938721  50.3625641  43.1295662
  72.6910629  48.9245529  42.6673317  58.2582664   7.8930597  38.5909157
  59.1620216   7.6296511  38.4174919  57.8894920   7.1669688  39.0939369
  70.8889618  54.3469162  35.8164444  71.7316208  53.9470139  35.6014404
  70.7519989  55.0003815  35.1305466  24.9719334  12.9768314   8.1859007
  25.2558708  13.6813803   7.6034722  25.7731762  12.4918423   8.3834581
  28.8009472  59.0654259  21.3551674  29.3746204  59.5500069  21.9487267
  27.9211388  59.3808708  21.5617237  63.1531563  68.1661835  36.6841354
  63.8338699  68.3293304  37.3370056  63.1690979  67.2181015  36.5532722
   0.9533988  17.9937592  64.3860168   0.0990230  18.4132996  64.2847290
   1.2554654  18.2712593  65.2508774   0.6257771  62.8234177  51.6059532
   1.4292202  63.0655670  51.1454391   0.0689813  62.4377632  50.9295845
  72.5495529  11.3486986  42.5185051  73.4515991  11.4657440  42.8165779
  72.2451477  10.5660505  42.9778900  60.9065056  38.6633110  78.8153915
  61.4756050  39.4311638  78.7629013  60.0385857  39.0208168  79.0028534
  51.9317818  49.9445152  69.7167740  51.1438255  50.3770676  69.3877563
  52.6480789  50.3438492  69.2231293  17.7729931  19.0093040   5.1073494
  17.4398823  18.3451862   4.5038447  18.5764160  19.3264141   4.6948166
  35.3989983  43.7940750   3.7658799  35.0485344  43.8489685   4.6549215
  34.8538399  44.3933716   3.2560987   1.7903308  55.1219749  49.0742226
   1.7758495  54.1874237  48.8677406   2.5887325  55.2412796  49.5885696
  21.1382313   9.9067430  20.0982323  21.2297897   9.4541521  20.9366894
  20.9348373   9.2119894  19.4719887   0.3362028  62.4852867  57.2995605
   0.4513561  62.4394417  56.3504219   1.0386158  61.9392624  57.6527023
  70.0082703  24.4516048  84.5261078  70.7171478  24.1543446  83.9557037
  70.2389603  24.1130028  85.3911819  59.4613152  51.4312592  17.3576202
  60.3915405  51.4082680  17.5820827  59.4378548  51.7890968  16.4701328
  80.4044952   4.1523857  65.6528931  80.5526810   4.0957255  64.7089310
  80.1447296   5.0617795  65.8004074   0.3494705  56.9840279  50.9603462
   0.5682570  56.2651291  50.3674278   0.8651805  56.8104019  51.7478256
  45.8126717  68.7045670  24.1622562  46.1137161  68.4770355  25.0419331
  44.9094849  68.3892975  24.1291847  44.8154907   3.2553864  12.5039539
  44.0484543   2.7082751  12.6729383  44.9184723   3.2361770  11.5525036
  47.1562233  53.1181145   0.3332666  46.3608284  53.6493301   0.3704391
  46.8706970  52.2410965   0.5892848  49.8347130  26.3315907  30.3962040
  49.1836548  25.6463318  30.5471230  49.3468933  27.1499634  30.4885616
  15.8518867  40.6273041  40.6575127  16.4342804  41.2790375  40.2672653
  15.2952042  40.3396988  39.9338951  30.5403252  64.2094345  49.9622726
  30.7709198  64.9343643  50.5432510  30.2200451  64.6332169  49.1659966
   5.7215033  19.6381969  65.9946442   5.5341687  18.7829895  65.6076508
   6.5539470  19.5172329  66.4514084  66.3507690  64.1031799  54.9681664
  66.8506165  63.5158348  54.4012451  65.4375458  63.9509277  54.7251244
  65.4471588   5.1955013  37.9169044  65.4058533   5.1684761  38.8728294
  64.5386734   5.3175540  37.6412659  76.3640366  64.8148193  86.6517181
  76.6257324  64.3022079  85.8868790  76.6742783  65.7006531  86.4639130
  24.1771202  34.2093124  34.9230766  23.4600410  34.7973900  35.1601295
  24.3898716  33.7511482  35.7361298  63.8943863  36.9461327  32.1137695
  63.4866066  37.6594353  31.6227016  63.1932220  36.6068802  32.6701012
  27.7339916  17.3196125   0.2762899  27.6225376  16.7080135   1.0041339
  28.6816139  17.4311771   0.2001573  31.6550217  64.0661316  61.3239899
  32.2151718  64.7290955  61.7276497  32.1727600  63.7276497  60.5935020
  27.9410172  11.5187244  49.4674911  28.0539970  12.4074373  49.8046227
  28.5160656  11.4775114  48.7033882  16.0790062  14.8710938  45.3213654
  16.5256443  15.4410114  45.9474144  16.7073975  14.7600994  44.6078987
  76.5721970  51.5072021  81.5908508  77.0479584  52.3022537  81.3504868
  77.2143784  50.9773636  82.0631943  56.6421890  47.0628014   9.4118624
  56.6434288  47.0614853  10.3690605  56.2839508  46.2082901   9.1716404
  42.5393219  63.9610405  30.6847553  41.8361855  64.0983734  31.3195534
  43.3400497  63.9672394  31.2091904  44.7675323  25.2226410  43.2535210
  44.1162262  24.6058903  43.5876579  44.2760124  25.7934532  42.6629143
  33.0066261  38.4127731  84.1059647  32.8552818  39.3287086  84.3391876
  33.3814354  38.4484787  83.2259293  29.4665985  32.6364250  18.0546913
  28.9722118  32.0134277  18.5873146  30.3248138  32.6835442  18.4759750
  65.4277649  13.8471165  50.2822685  66.2291183  13.3255682  50.2369843
  65.5781326  14.5705652  49.6737938  25.9377575  35.4542618  24.5619678
  25.3172073  35.8931885  23.9801655  25.4882221  35.4153595  25.4061470
  68.7431641  35.7294540  41.7297363  68.4601364  36.5614166  42.1091652
  68.1450729  35.0809937  42.1012383  57.8474770  33.0141869  75.7765427
  58.1992569  33.5922546  75.0995560  57.7847214  33.5675316  76.5550690
  57.4333916  69.7702866  13.6678553  56.6824341  69.7080231  13.0775843
  57.1759872  70.4275131  14.3144054  19.4625149  50.4428406  58.1375198
  18.5088882  50.4278679  58.2187920  19.7779770  50.5396156  59.0360489
  85.9750519  69.7304382  44.9180031  85.7823029  69.8179474  45.8515015
  86.6231537  70.4125900  44.7422829  74.9206772  62.7406845  38.9729805
  74.4465408  61.9649239  38.6736069  75.1912460  62.5263138  39.8657722
  80.9230957  23.2457218  51.0675888  80.6912155  23.9216423  50.4307213
  80.5835800  23.5743980  51.9000130  18.0462112  47.3038750  28.2539120
  17.1134872  47.4983940  28.3456821  18.3668270  47.9563904  27.6312847
  49.8590813  10.6007175  66.0023499  49.8606911  10.0836582  65.1968231
  50.7641983  10.8968935  66.0986557   8.7505140  46.6877670  83.7372055
   9.4434814  46.7762871  83.0828476   8.7953005  45.7716751  84.0110703
  69.5566483  40.2895546  86.4546738  70.1608810  40.8465691  86.9454727
  70.0280075  40.0762482  85.6493454  34.0667953  60.3104248  70.6554794
  34.1160088  59.4628372  71.0975189  34.9796829  60.5534210  70.5011368
   9.8389845   3.9975426  61.0110512   8.9646378   4.3747506  61.1083336
  10.3006020   4.6080198  60.4361954  46.4844627   2.4593191  48.5511055
  45.8745117   2.4250031  47.8142128  46.1360397   1.8274461  49.1800499
   6.8881607  34.7791481  33.7716217   7.1514349  35.5995674  33.3546944
   6.9891067  34.1188812  33.0859909  17.3761444  65.2079163  77.9482346
  16.6888332  65.8454514  78.1416092  17.1300392  64.8404770  77.0993271
  28.3097382  21.6058121  86.4514771  28.4072437  22.3007565  87.1024551
  28.1345692  22.0682278  85.6318893  43.5716934  64.9457703  17.5121670
  44.2758293  64.7919006  16.8822861  43.8897591  64.5565720  18.3267765
  61.0518112  49.1653748  74.8435898  61.7239380  48.5026245  74.6847229
  60.2347069  48.7480049  74.5708618  76.4428101  66.9665070  23.3478355
  76.9206696  66.1403427  23.4209270  77.1070328  67.6408157  23.4904785
  37.3102951  19.1634026   7.1985164  37.4643974  19.7757778   6.4791551
  36.3699379  19.2234497   7.3668904  71.9934769  37.8972893  22.9028416
  72.4920578  37.7293663  23.7024956  72.5419846  37.5474930  22.2006912
  40.6476784  64.5107422  64.5259094  40.0895500  64.6949615  63.7704048
  40.7864685  65.3648682  64.9350967  53.3862839  59.9648094   6.2917247
  52.8516769  59.5804367   6.9864802  54.0946693  60.4123726   6.7544451
  57.5981941   4.9695005  77.3217773  57.8467522   5.6143179  76.6594620
  58.4308548   4.6504116  77.6697540  26.5224934  13.9779434  78.3877258
  26.3802662  13.6511765  77.4993362  25.9598694  14.7496653  78.4520035
  23.2007599  33.4996758  18.0235233  23.4254112  34.1338768  18.7043724
  22.4898548  32.9829063  18.4027271  84.7850952  35.9234848  78.7366791
  85.5981064  35.4377327  78.8755798  84.1520538  35.5021782  79.3180466
   5.1126823  53.9290161   7.9542551   4.2318611  53.5690536   7.8502803
   5.4880023  53.4366531   8.6842861  80.1760635  26.8241520  50.7022362
  79.7013702  26.0668182  50.3596840  80.7998962  27.0482025  50.0116844
  33.0024567  45.4590797  19.8675213  33.8014259  45.0456886  19.5404358
  32.3445625  44.7643738  19.8394260  27.1227322  40.4187851  80.5113678
  28.0715752  40.3073959  80.4520264  26.7636623  39.5982590  80.1736832
  69.2349854  65.6657562  51.9299545  69.8231659  66.0816040  52.5603065
  69.7432098  64.9377213  51.5723152  33.5592537  17.6832561  30.8709755
  34.1037216  17.0725803  31.3678226  32.6638336  17.3765965  31.0138721
   0.2597932  43.2047234  51.9849396   0.3153892  42.3897247  51.4860229
   0.6536270  43.8632240  51.4126587  18.3378372  12.6174679  53.2193565
  17.7183380  13.3206177  53.4143753  17.8995247  11.8216686  53.5207176
  66.6415863  16.0688515  28.2188587  67.2087479  16.5687027  27.6317425
  67.0068817  16.2197018  29.0906582  41.1981544  45.4830399  27.5402336
  41.4402008  45.9189186  26.7231312  41.9244156  45.6692810  28.1352921
  17.0395126  17.0082054  10.6547031  16.4152679  17.3435936  11.2981825
  16.5013866  16.5228043  10.0293741  41.6978073  67.8396072  30.0226345
  41.8332748  67.7528763  30.9662209  40.8957596  68.3558426  29.9422646
  75.2913818  70.3260498  28.9068279  76.0887604  69.9410477  29.2704277
  75.1990128  69.9174042  28.0461826  69.3947983   8.6876497  78.0961914
  69.6844101   7.9099593  78.5732193  68.9863663   9.2394781  78.7632065
  17.5561886  10.3450193  16.9810638  18.3410339  10.0155983  17.4189339
  17.6392574  10.0385857  16.0780506  41.3429527  11.1508913  63.5926247
  41.0421104  11.8768129  64.1392136  41.3566780  11.5090580  62.7050667
   5.7862349   0.5569887  37.9261055   6.0001950  -0.3175770  38.2510490
   5.2855554   0.3992475  37.1256866  48.6846542  55.1385498  78.4168854
  49.4460678  54.6563034  78.7392578  48.4399910  55.7127724  79.1425858
  53.5517883  67.3471527  38.8561935  53.5271530  66.6545563  38.1959457
  52.6415443  67.4436798  39.1361389   2.8289797   2.8697100   5.1538119
   2.5603235   1.9931191   5.4288473   3.7484093   2.7717845   4.9062409
  21.2908077  64.7510834  50.1699982  21.4073162  63.9270134  50.6428337
  20.7829838  65.3002243  50.7673149  69.5992813  34.0776978  39.5145264
  68.7649918  34.2181206  39.0667801  69.6835709  34.8267899  40.1044312
  82.7791748  62.5497398  58.2001572  83.4730682  63.2087936  58.1804123
  82.0655746  62.9676437  58.6821976  61.8474541  14.5297537  66.2002258
  62.4378471  15.0838919  66.7107162  61.1570625  15.1234646  65.9051056
   5.6574769  63.4353828  35.2924995   5.3766136  63.2392197  36.1862946
   5.2935562  64.3020782  35.1118546  23.8312435  43.4722633  38.8121300
  23.0284157  43.4745750  38.2908897  24.5124683  43.1907043  38.2014847
  48.8227921  59.9764748  56.2493210  49.5741997  59.9232941  55.6587334
  48.0797348  60.1626358  55.6753540  14.8794956  39.5161362  87.2135544
  15.4243727  40.2454529  87.5092545  14.1265888  39.5246658  87.8045654
  33.9982910  65.8757019  55.3218727  34.0178146  65.3888397  54.4979668
  34.3410034  66.7407227  55.0970993  47.6328278  65.7605972  61.8216667
  46.9234238  65.2116928  62.1558456  47.3681068  66.6539307  62.0410233
  71.9856644  53.2747917  71.4191132  72.2087326  53.8801842  70.7120285
  72.5300446  53.5549164  72.1549225  70.7088089  13.4771175  68.3292007
  70.0142670  13.6739292  67.7006226  70.3842163  13.8226194  69.1607666
  62.2764091   3.1873162  32.2932625  63.1783829   3.2604723  31.9813004
  61.7906418   2.8442571  31.5432167  52.5222092   2.8774908  42.0116806
  52.1653862   3.4933538  42.6516953  53.2908058   2.5031354  42.4422073
  22.6705742   7.6641936  64.7844467  23.4309769   7.0909295  64.8813324
  22.6107159   8.1260567  65.6207047  13.4461346  21.7719269  29.2092457
  13.4940939  21.7327538  30.1644402  14.1802769  21.2353287  28.9103642
  16.9367142  50.5037155  61.9534111  17.2428703  49.6025505  61.8514023
  16.4965134  50.5123558  62.8033409  60.6953850  19.7682228   8.3632421
  60.1829910  19.9352131   9.1543159  60.3434753  20.3797665   7.7164006
  69.5156479   6.7175207  39.4305611  69.1101456   6.3166771  38.6617165
  68.8377380   6.6809692  40.1053467   7.4730697  71.4437790  83.2516251
   7.0165615  70.6601410  82.9454498   6.7932596  72.1164017  83.2924728
  17.1359501  70.9195328  61.1884384  17.2991161  71.8447952  61.3714943
  16.4534054  70.6689529  61.8109894  34.3496552  26.9564304   7.8383241
  33.7412109  27.3069744   7.1878271  34.1714630  26.0160446   7.8506770
  52.8011971  64.4500427  20.8220367  52.6830788  63.7187881  20.2157784
  53.7414207  64.4632874  21.0010262  78.4592667  25.8038940  33.8554382
  78.4290466  24.8641052  33.6762276  77.7480164  25.9518623  34.4787064
  28.6183529  55.7495270  -0.1636791  27.6765900  55.7119598   0.0033590
  29.0151539  55.3526573   0.6117410  57.4765129  65.8712234  68.3075485
  57.5102043  65.7551651  69.2570877  56.5480423  66.0020370  68.1150436
  68.2547531  46.3298683  76.1314850  68.6009903  45.5239143  76.5146179
  67.3221664  46.3160057  76.3467255  66.2890549  58.8879776  38.5818405
  66.2888107  59.2978249  37.7168236  66.1539001  57.9568710  38.4057579
  40.8738136  67.5034332  80.4653473  41.0844574  66.7503052  79.9133759
  40.5642471  67.1198807  81.2858887  16.8601685  63.5265465  39.9968262
  15.9825087  63.6554718  39.6372108  17.1161060  64.3906174  40.3194847
  79.6893539  16.7762852  43.4244957  80.1824341  16.6870136  44.2400475
  79.8940811  17.6590595  43.1162338  50.0720711  20.5127068   5.3266349
  50.1476440  20.5580025   4.3734984  49.3796997  19.8702126   5.4817367
   8.2295465   2.1150713  20.3693371   8.1575994   1.3289269  19.8280125
   8.2250738   2.8386123  19.7426796  81.3864365  25.4502945  67.1024170
  80.5132446  25.0840359  67.2424698  81.9041595  24.7158451  66.7725983
  75.4181900  49.3770218  43.4684639  74.5533524  49.6856842  43.7386780
  75.3132935  49.1489906  42.5447578  83.9455490  18.8702087  85.0175705
  83.8159637  19.3156414  85.8548431  84.8935394  18.7553673  84.9515762
   2.6211519  47.9972763  85.3121414   2.1081095  48.2518616  86.0790863
   3.1536126  47.2612305  85.6137238  71.0258102  15.6008797  12.4075136
  71.1221924  14.8214588  11.8602982  71.9237289  15.8707285  12.6002693
  78.8880005  48.5904655  59.6147995  78.3029633  47.8334427  59.6445198
  78.5522079  49.1245537  58.8949242  42.2965965   0.5983419  24.4118195
  41.9476357  -0.1545987  24.8888321  42.6428986   0.2279828  23.5999451
   2.0173900  68.6965332  42.0055885   2.3966334  68.5117798  42.8648148
   1.8546743  67.8334579  41.6250000  32.8500671  64.5174561  44.3846626
  32.7258148  65.3247681  44.8837013  31.9644051  64.2467194  44.1427269
  10.7800474  38.3543968  76.4037628  10.4545240  38.4318466  75.5069504
  10.0226755  38.5594215  76.9520187   6.2464175  69.0288162  79.9275131
   6.1516557  69.6084442  79.1716843   5.4826136  68.4534454  79.8853607
   5.4858575  46.5392151  60.2373199   6.1657910  47.0856819  59.8432426
   5.5882111  46.6719322  61.1797333  45.6393814   7.0528851   4.2828670
  46.5044746   7.4144654   4.0902438  45.1061478   7.8150029   4.5088587
  49.1461639  48.5110359   6.0784817  50.0019760  48.0873489   6.1441088
  48.5328331  47.7907143   5.9329133  41.9059982  15.7670946  86.6573257
  41.2086868  15.5461521  86.0399323  41.4456062  16.0510788  87.4470215
  48.3224754  13.9434032  26.4991035  47.8931618  13.6245708  27.2929974
  49.2517014  13.9770718  26.7263393  47.3478470  63.8358231  69.8688202
  48.2343483  63.5334396  69.6715469  47.3963089  64.7884216  69.7885666
  41.0299034  21.5943451  32.2186623  40.5559807  22.3071556  32.6470680
  41.9519844  21.7775421  32.3987503   7.5185084  31.0480251  50.9608498
   6.9469790  31.5316582  50.3644562   8.2341557  31.6545086  51.1512642
  14.6429701  50.6408463  69.6459122  14.7206440  51.5948257  69.6572113
  15.4233599  50.3315392  70.1058578  22.7844543  16.9148560  31.3294601
  23.3255348  17.5285034  30.8325691  23.4115505  16.3131599  31.7306366
  69.8439865  68.1961746  59.3765945  69.7253113  67.2675095  59.5759277
  70.3208694  68.5438614  60.1302032  84.8321533   9.0564699  21.3864899
  84.6047363   8.6113882  22.2028332  84.8269196   8.3633842  20.7263107
  19.0935726  26.9922848  11.3597689  19.2426338  27.9361458  11.3037434
  19.9686508  26.6170197  11.4579859  71.0236435   3.4376483  74.4446793
  71.5751419   3.5360901  75.2208176  71.5015488   3.8935831  73.7518845
   7.9351759  61.6749344  80.9747849   7.9600930  60.8972740  81.5323257
   7.9326181  61.3296127  80.0820465  60.3690186   8.1143856  30.2174149
  60.6827011   7.3192015  30.6481323  60.8696327   8.8210382  30.6251640
   6.5772753  64.2429886  59.9572678   6.3967586  64.3124847  60.8947220
   6.1121526  64.9836349  59.5682411  72.4882278   2.6420608  15.3831682
  71.5869141   2.8775148  15.1631060  72.6945267   1.9122528  14.7991714
  18.8723488  11.4896622  42.5754700  18.8478909  11.1385765  43.4656219
  19.1799259  10.7594833  42.0383797  12.9959402  35.6069260  26.1865635
  12.1815910  35.3434296  26.6150932  13.6389036  34.9591942  26.4751377
  77.5720062  33.4135666  30.4627476  77.7562790  34.1218605  29.8458214
  78.4194031  33.2175102  30.8623867  83.8955154  35.5041161  12.1523981
  83.2209549  35.7258415  11.5104952  84.2497025  34.6683388  11.8486595
  24.5682240   7.8341231  53.0091248  25.0962048   7.1851430  52.5440521
  23.7905197   7.3525867  53.2911339  15.7293968  49.3465347   9.4451475
  15.7202168  50.1565247   8.9351797  14.8458414  49.2816620   9.8075733
  71.5366592  25.3384609  34.6543694  72.1907806  24.7217999  34.9831352
  70.9352875  24.7987614  34.1412392   3.5422316  27.7608929  84.6893997
   3.8948548  28.4458256  84.1212845   2.7316592  27.4873295  84.2600174
   9.3458996  55.7214737  51.1671181  10.0600786  55.3773232  51.7035294
   8.7103901  55.0067863  51.1273079  36.1834106  64.1456146  41.5632057
  36.7193260  64.1156540  40.7706566  35.8426819  63.2559052  41.6557083
  18.1172028  28.1930714  41.4639740  18.1193333  27.3217621  41.8602638
  18.9796982  28.2730274  41.0566139  60.4284172  25.2209263  68.1684418
  61.3155174  25.0187073  68.4657516  60.5482864  25.6008511  67.2980881
  41.8421478  30.6882401  11.8482561  42.3382721  30.7269897  11.0305824
  41.2372627  31.4283009  11.7966967  19.9980373  45.3964310   7.3640509
  19.7101345  44.8832397   8.1190186  20.7798004  44.9422302   7.0497575
   9.7884588  41.8862305  61.2888527   9.6908903  40.9481049  61.4520531
   9.2587080  42.3038483  61.9679642  29.9170055  58.5737953  65.8559494
  29.6337376  59.1065063  66.5990601  30.5102501  59.1428833  65.3656158
  49.3914452  62.9130058   7.4750757  49.1306992  62.7357178   6.5712991
  49.1653786  62.1137199   7.9507561   6.1890736  40.8282356   4.2207603
   5.3114448  41.2094269   4.1944423   6.7751222  41.5812912   4.2961864
  59.1219978  51.8582687  71.9945145  60.0117607  52.2074509  72.0457230
  58.7933235  51.9075813  72.8921661  68.0019760  33.5511971  23.4131050
  67.0666580  33.5753441  23.2110500  68.0856171  34.0575180  24.2211113
  81.8283691  57.4756775  10.6643600  81.0200806  57.8653450  10.3311033
  81.7531281  57.5451813  11.6160631  51.7335892  36.9382477   8.3667440
  52.0885391  36.0525360   8.4425974  52.3995018  37.4981384   8.7658863
  22.1099110   2.9983950  16.2606888  22.7122555   3.6636584  16.5936146
  22.1070824   3.1307588  15.3126898  11.3099852   7.8548861  18.5896797
  11.0680180   8.6628017  19.0424023  12.2653551   7.8277769  18.6422710
  33.6821365  51.3388748   3.6480546  33.3573494  50.4387169   3.6694326
  34.2950859  51.3549500   2.9130285  64.1267166  39.6198807  58.6516724
  63.8117599  39.1630096  57.8717384  63.3810616  40.1475754  58.9376221
  31.2053261  41.0007324  25.1581898  30.7488689  41.6275673  25.7193985
  31.4749165  40.2998657  25.7517700  53.9741707  16.5103664   6.3084898
  54.3283501  16.6091518   7.1922503  54.6422310  16.8915596   5.7387342
  22.4563923  66.1138153  81.5059891  21.8863430  66.2078934  80.7428207
  21.9404125  65.6017075  82.1286774  49.5489197  40.5928574  59.6106453
  49.4746666  39.9223251  58.9315987  48.8770638  40.3601685  60.2515030
  40.9933205  61.7729874  52.1958389  40.1431847  61.4480820  51.8992958
  41.3319359  62.2714081  51.4521027   6.8807387  30.0566006  59.8916855
   6.4874434  29.3180408  59.4268456   6.8213534  30.7865562  59.2753487
  17.7364140  12.0989370  66.4392319  16.9142704  12.3406610  66.0127563
  17.8580914  12.7624588  67.1183243  80.8531265  61.2008629  11.7420568
  81.5124664  61.0485916  11.0650663  80.4115982  60.3572960  11.8404226
  86.2541046  47.4775887  28.1139183  85.8402939  46.6565437  28.3801575
  86.9817810  47.5884819  28.7258148   7.4996247   3.0156450  14.1181955
   7.1384087   2.1984076  14.4615297   7.0608864   3.1363058  13.2760668
   7.5417151   2.6226091  25.5016766   6.9882665   2.7617674  24.7331963
   8.4186659   2.8770173  25.2145081  77.8393402  52.9597435   4.7654438
  77.4781265  53.7729683   4.4127088  78.7878342  53.0830917   4.7284713
  17.2520733  20.5630779  17.5455379  16.3243523  20.5087852  17.3161488
  17.5264206  19.6521244  17.6510334  72.0791779   3.2277942  25.5355644
  72.4472504   3.6761231  24.7741432  71.5389938   3.8906062  25.9658031
  78.7938156  35.0621910  36.7264786  79.1294174  35.5097389  35.9497528
  78.7678909  35.7405472  37.4013062  64.6526031  44.1627960  78.9334335
  64.6531143  43.8774529  78.0197525  65.0907288  45.0137215  78.9188538
  79.9503860  70.3056946  66.4257202  80.8699646  70.1300812  66.2263107
  79.8990250  70.2582016  67.3803635  51.5289421  68.4588852  34.2919731
  51.7657547  69.3843994  34.3517761  51.1535797  68.2519073  35.1478310
  41.2009735  48.1974792  81.1961823  40.9170494  47.5944366  81.8831711
  42.0207825  47.8236237  80.8731079  37.7800827  71.0744934  86.0292053
  37.5031548  71.8346634  85.5176544  37.4517365  71.2471008  86.9116058
  47.4559212  65.2951584  32.4708099  46.7538795  65.6100006  31.9013863
  47.0130463  64.7396851  33.1123238  75.8530121  52.6805305  35.6521492
  74.9403915  52.3941612  35.6154594  75.8994598  53.2331390  36.4323387
   3.5714889  39.9866104  71.3247452   4.0888319  40.6961632  70.9437943
   2.7288973  40.3899460  71.5335312   0.2167155   7.7971449  64.0072403
  -0.2137231   7.0206437  64.3650131   1.1442682   7.5630612  63.9743347
  39.1210556  16.4757328  27.2782879  39.5009155  17.2622719  26.8867588
  39.6405830  15.7555189  26.9210567  49.2892342  29.1381798   4.4631376
  48.9171906  29.8831615   3.9911022  48.5639229  28.5186462   4.5427208
  15.9407358  17.1830902  34.9060631  15.7257481  16.6640892  35.6810799
  16.3971844  16.5720596  34.3276825  14.9619789  14.8857517  40.8092842
  14.6703529  13.9775620  40.8891411  15.3013010  14.9507389  39.9166107
  23.8250256  18.3501358  22.4114990  23.2179508  17.8959064  22.9957657
  23.5128994  18.1399231  21.5313740  42.0799942  14.1676149  32.9162712
  42.7140923  13.4622726  33.0452957  41.7873001  14.3911362  33.7997856
  42.6469307  49.6860199   6.0914898  41.8407364  49.1922112   5.9417124
  43.2086143  49.4579659   5.3507233  57.0346642  50.1739578  29.7832203
  56.1166611  49.9408035  29.9215660  57.3764191  50.3336563  30.6629524
  76.3290329  32.4862976  -0.1075089  75.7261429  31.7460651  -0.0381909
  76.0593643  33.0811806   0.5922217  57.7858696  58.0610161  46.2043953
  57.6493073  58.8339157  46.7523079  57.2090034  58.1955032  45.4524841
  68.3934402   6.7983994  67.7530899  67.4864502   6.5069380  67.8461609
  68.6156540   7.1665483  68.6082611  13.1556501  66.0263672   9.0185337
  12.4736176  65.5687408   8.5269585  13.9281244  65.4675598   8.9333544
  43.7443314  12.5274868  17.1417294  43.8191528  11.9739466  17.9190502
  42.8137894  12.5027790  16.9187698  77.5017471  45.4546356  52.0875092
  77.5616837  46.2940369  52.5436287  78.3574982  45.3458290  51.6726685
  28.8478451   5.5581660   9.8484793  29.0478039   5.0562425  10.6386194
  28.8999653   4.9181809   9.1385965  10.0456009  11.6146765  46.6497078
   9.4448586  10.9362516  46.3413582  10.3861799  11.2749062  47.4772339
  68.6232147  61.2480621  47.9082832  68.4969101  61.3180656  48.8545265
  69.0626984  62.0626793  47.6643944   5.2932382  10.5954103  30.2410011
   5.2628441  10.8051586  31.1744442   4.8665333   9.7412510  30.1734333
  67.3165894  31.7263126  74.6283340  67.7612305  30.9739799  75.0188828
  66.4425735  31.7170410  75.0185165  16.2119503  31.3858738  58.8276596
  16.1715336  32.1795883  59.3611526  16.4691219  31.6941757  57.9587288
   2.7896531  23.7301655  23.1083794   3.4768705  24.2262840  22.6635971
   2.0129545  24.2858391  23.0435810  43.5015678  67.9068909  17.1121006
  42.5992241  68.1431351  17.3270416  43.5969620  67.0097809  17.4319897
  35.0146942   6.3938189  23.5659256  34.5808983   5.6052470  23.8918209
  35.5084343   6.0970187  22.8014908  85.7964554  40.9020081  62.3679924
  86.1676407  40.2394028  61.7854080  84.8552170  40.8714027  62.1966248
  65.6978149  42.1796494  19.9108715  65.2626038  41.6784325  20.6005096
  64.9938126  42.4189949  19.3081036   3.6391227  64.8655396  16.2500839
   3.7313421  64.3669968  15.4381790   2.9668510  64.3963470  16.7441940
  82.1506882  51.6309853  79.2710342  83.0113373  51.2206230  79.1866531
  82.2510834  52.2518425  79.9926224  82.9302063  48.5702934  69.5013123
  82.7648087  47.6343346  69.3879242  83.5604782  48.6167717  70.2202301
  55.0531883  41.4553871  87.0729904  55.9111595  41.8406944  87.2509155
  54.9863319  41.4501610  86.1181488  23.4492054  59.3703880  48.7006454
  22.7497845  58.7749176  48.4314613  23.0009708  60.1929588  48.8973465
  13.2257748  16.6028023  33.0735283  12.9336805  16.5639534  33.9842453
  12.5141153  17.0468864  32.6124878  83.7284393  11.1016445  25.1710911
  84.0548706  10.9312868  24.2875462  83.7832565  10.2548962  25.6140862
   3.7789581  24.5412216  47.2024345   3.5725670  24.5788307  46.2685051
   3.0816844  24.0053463  47.5804253  80.6096802  71.2004318  81.4840851
  80.7040482  72.1494370  81.5660248  81.4225311  70.8468399  81.8452911
  39.2355156  29.2713718  85.6284866  38.9006271  29.6053848  84.7963104
  39.3013573  28.3254223  85.4978027  28.3229218  55.5146637  59.7895241
  28.0649548  54.7585983  60.3168297  28.4787846  56.2102509  60.4283485
  11.9488735  67.8466873  44.9381752  11.8368130  66.8976212  44.8838730
  11.1109648  68.2040100  44.6441345  84.5961609  61.4549561  72.0282669
  85.2472305  60.7565384  71.9607468  84.1921768  61.4904404  71.1612244
  73.6467209  13.9768286  50.7680511  73.1254120  13.7423601  51.5358315
  74.5440521  14.0343046  51.0962753  64.6384506  20.6781807  28.9846382
  64.7597122  20.2348938  29.8242950  64.2134476  20.0253887  28.4283409
  62.3824692  69.1501694  25.8623276  61.8514786  68.7423630  25.1782417
  61.9885864  70.0133820  25.9886150  66.6447754  56.9005280  58.2869911
  65.9230804  57.2293930  57.7510529  67.4216309  57.0168037  57.7399979
  40.5480232  57.8493462  17.3541126  40.3831711  58.4505005  18.0805187
  39.6788864  57.6504364  17.0058708  71.6487885  34.2484322   7.5444136
  71.3228378  35.1236687   7.7540588  72.5094910  34.2071877   7.9612122
   0.2008357  68.1811600  23.0981636   0.8838404  68.7503510  22.7435379
   0.6638479  67.3847504  23.3581371  43.2137184  64.2358398  13.7019053
  43.6334038  64.4712982  12.8744659  42.3277702  63.9712219  13.4543142
  50.1170387  23.8833694  80.5493240  50.2559586  24.5451412  79.8718338
  49.1653442  23.8137131  80.6245346  60.9368134   0.0816825   7.9261360
  60.1964073   0.5523896   8.3088465  61.5722008   0.0145630   8.6388845
  74.5062332  12.1637135  60.5341187  74.1143875  11.6832056  59.8048744
  74.0924606  11.7943211  61.3142281  85.1779251  29.2957764   9.7662449
  85.8652802  29.0419636  10.3821611  85.6338043  29.8021259   9.0939236
  83.9673538  21.6490707  22.5051994  83.3061142  20.9606533  22.4339008
  84.7226105  21.3061333  22.0274868  14.3718395  42.2686996   7.6313825
  14.6385498  41.7081184   6.9027901  13.5460300  41.8911400   7.9342394
  84.3804169  66.1884079  47.0377007  84.9659042  66.5048752  47.7256622
  84.0058594  66.9830856  46.6576614  34.5253448  63.7228775  74.0566559
  34.0077209  64.1972885  74.7072144  34.0192986  63.7970047  73.2475510
  52.6727867  58.5979691  43.8239517  51.7405663  58.6671944  43.6180305
  52.8859406  57.6787338  43.6633034  50.3340797   3.6484613  74.4520340
  50.1918755   3.8419628  73.5254440  49.4532585   3.5613258  74.8164444
  17.4263401  44.1794701  47.3541908  16.5913849  43.9701157  47.7728233
  17.8899994  44.7141342  47.9986916  10.2705879  24.6618652  52.6207314
  10.9352579  25.2844315  52.3260193  10.6932058  23.8063908  52.5446396
  71.4042587   4.2291212   1.1493106  70.6619339   4.7781944   1.4016987
  71.7082291   3.8446150   1.9714948  80.0601883   6.8434672  50.2718544
  79.9588165   7.5751567  50.8806114  79.2455521   6.3478446  50.3553047
  73.3135223  21.2557812  33.2419853  72.4254150  21.4728870  32.9584923
  73.6718674  20.7309647  32.5261726   1.8697518  69.5941010  81.4680328
   1.8203247  69.9248352  82.3649139   1.7910807  70.3750076  80.9201050
  10.1183882  69.9799042  77.1498642  10.1645718  70.5074310  77.9472427
   9.8766012  69.1054153  77.4548874  11.7941866  71.2182617  87.2576141
  11.0931654  70.7360535  86.8191223  12.4600449  71.3409729  86.5810013
  33.2111855  40.7630692   3.2370667  33.0093727  39.8367958   3.1046968
  33.0904350  41.1601486   2.3745244  11.5492935  39.5856781  83.4615784
  11.3316746  39.1067276  82.6619034  12.1708498  39.0190163  83.9185104
  15.1352787   3.4986372  69.2626495  15.1842642   4.3135519  69.7623978
  16.0485535   3.2527828  69.1152802   7.4155841  37.6239166  38.3668213
   6.4716959  37.5424690  38.2301750   7.5239558  37.5883293  39.3172035
  17.4267349  53.0234261  65.5178604  16.8914013  52.4376984  66.0531845
  18.2993641  52.9739685  65.9081192  30.4909267  30.3429623   1.2522806
  31.3714676  29.9779892   1.3398862  30.2658443  30.6397324   2.1340387
  54.8226433   2.8073432   7.6770964  54.6079750   3.4947097   8.3077116
  54.2710114   2.9976439   6.9183354  18.3664970  37.9732513  36.9864388
  18.8562565  37.2946320  36.5218468  18.9361515  38.2244492  37.7135048
  81.9520111  64.1830444   3.4136491  82.8923645  64.2844620   3.2664137
  81.8847504  63.8395271   4.3045487  55.5653763  35.4139061  79.2177429
  55.1579323  35.8404655  78.4639053  55.1738472  34.5407104  79.2393799
  39.7169800  17.7507591  23.6206055  40.5107117  17.2366924  23.4724236
  39.0011826  17.1562748  23.3959866  48.9940224  71.1995621  12.2002058
  49.6107254  71.3570175  11.4852848  49.4765739  71.4419632  12.9905329
  10.6350632  57.8064804  74.6771927  11.1228161  57.3541794  75.3654938
  11.2989874  58.3059769  74.2018661  81.8942490  10.4296131  65.1299133
  80.9742813  10.6479740  65.2789307  82.3586884  10.8377333  65.8606415
  58.4473343  63.7023735  42.9325142  59.0063133  63.1396294  42.3967018
  57.6098938  63.2404404  42.9718895  10.3361244  70.1674500  26.2380505
  11.0025358  70.5866852  26.7824478  10.3448372  69.2504578  26.5124283
  43.6871758  24.1024799   7.8805127  44.4328041  24.0883312   8.4805708
  42.9381332  23.8566303   8.4234028  25.5761509   9.7003031  87.8544235
  24.9905720  10.4574137  87.8437881  26.2033195   9.8726997  87.1521606
  37.6112022  14.7211018  83.8408661  37.4971695  15.5082397  84.3734512
  38.5555611  14.5648680  83.8435059  84.1138153  45.6900635  79.9467316
  84.0974121  45.0901070  79.2010651  84.9134064  45.4613419  80.4206238
  58.7357559  50.9692535  52.7900543  58.4861374  51.7023773  53.3525925
  58.4584846  50.1910934  53.2736053  79.8044510  17.9066029  21.1510029
  79.4624557  17.9442997  22.0442276  79.0811539  18.2137680  20.6044426
  24.6563587  69.9923553  51.8197098  25.4380856  70.2427139  52.3121071
  24.3528271  69.1898346  52.2440338  29.1032810  70.5182571  19.3881378
  28.4055004  70.9270630  19.9002018  28.7859249  69.6318207  19.2156487
  23.9175377   3.2308905  18.8478336  24.6444168   3.3200467  18.2314491
  24.2789497   2.7199094  19.5720654  71.2993622  11.2630301  26.6641159
  70.9802856  11.1650467  27.5612335  72.0798035  11.8111572  26.7460098
  17.4248695  61.7077599  60.0328331  17.4411621  60.9045448  60.5532227
  17.1025696  61.4309349  59.1750908  54.3814316  61.6430550  41.9608574
  54.4880104  61.6958084  42.9106407  54.7075729  62.4823952  41.6362534
  18.8472538  47.9212036  54.8847847  18.1445007  48.5192261  55.1392212
  19.6253910  48.4758682  54.8292694  60.4445496  41.6881371  27.9801865
  60.8168602  41.6440964  27.0994606  59.6010323  41.2417755  27.9062366
  19.0167103  22.1247883  57.9416924  18.1280060  22.4499016  58.0856972
  19.4473667  22.2205658  58.7911606  44.6175919   2.8605947  36.0985718
  44.3560677   2.6855428  37.0025597  43.8233757   2.7098479  35.5860023
  67.0084381  54.3311157  57.0381546  66.4524231  54.0832405  56.2994843
  66.5634384  55.0817146  57.4316101  30.4619942  17.4891415  24.1393490
  30.5988083  17.2231789  23.2300777  31.2700138  17.2376118  24.5866375
  17.8428421  60.8389702  49.1227951  17.2277946  60.1130791  49.2278099
  17.2951603  61.5823555  48.8704948  22.1800232  48.7889862  86.1010971
  22.0575371  48.0239868  86.6632385  22.1155453  49.5361214  86.6959610
  81.3263397  33.3173180  10.6501446  80.9066238  33.8126564  11.3535061
  81.5205612  32.4650841  11.0402737  53.5298386  10.6950283   4.8061352
  53.2371025  11.4666014   5.2911229  54.2808342  11.0020714   4.2982373
  43.1269798   4.0734334  55.9988632  43.9261665   3.8704057  56.4849777
  42.4169693   3.8331733  56.5941734  39.9003029  38.3620071   9.1143293
  40.4645844  37.6296844   9.3623638  40.5065804  39.0456924   8.8293104
  23.1239147  26.6033707  31.3489208  22.7154655  27.2319660  31.9441261
  22.4671345  26.4563694  30.6682873  79.8316879  60.9935913  36.8677826
  79.6437531  60.2470856  37.4366798  79.8148041  61.7509041  37.4529572
  42.1970825   6.2226238  36.7327232  42.2841759   7.1755371  36.7081566
  41.2881927   6.0717959  36.9923401  65.9130554  57.0199280  26.3423195
  65.0024109  56.8394432  26.5755196  65.8566284  57.6700630  25.6420536
  34.9239922  65.3884277  80.9335785  35.0957108  64.5934067  80.4289169
  35.7432365  65.8815308  80.8898087  75.9524460  51.8881607  19.0467091
  75.6454391  52.1737671  18.1862392  75.2092590  52.0430489  19.6297226
  21.2557831  21.9604454  76.9379730  21.7248096  22.4161682  77.6369476
  21.9447727  21.6464939  76.3523407   6.4695435  48.1518936  28.4737663
   6.4045386  47.4722824  29.1446877   7.3781509  48.1082153  28.1758461
   7.8203282  13.4151745  25.8956070   7.7487044  12.4933147  25.6480637
   7.0453639  13.8267698  25.5131779  81.9377823  70.0691452   7.2538409
  82.0182724  69.2542191   7.7494617  81.0651855  70.0264130   6.8627105
  12.3424883  28.2244282   3.5823789  12.7079992  27.4976730   3.0779374
  12.8647175  28.2459335   4.3842802  54.2490082  48.5706863  76.0092239
  54.0771599  49.5084038  76.0951385  55.1271286  48.5217438  75.6314087
  45.6148300   8.4124660  38.3164062  46.2983093   8.1628685  37.6944847
  45.4589958   9.3405256  38.1413231  72.5911331  24.1783218  74.8293686
  71.9416046  23.9021282  75.4759445  73.2546692  23.4886475  74.8467636
  44.0002861   6.1715217  38.9879723  44.4996529   6.9881353  38.9903717
  43.4938660   6.2028413  38.1763153  29.5175190  33.3369598  82.1686630
  29.4863682  34.2916985  82.1075439  28.7945595  33.0379372  81.6171722
  54.6159096  -0.0012383  77.3882980  54.5137367  -0.3711965  76.5114212
  54.7466240   0.9352340  77.2394180  31.5880013  19.8268280  33.9706726
  32.2792549  19.3588886  34.4391060  31.8677731  19.8137760  33.0553627
  75.0205078   0.5825809  25.3137741  74.6831665   1.1963459  25.9662514
  75.0754395   1.0960391  24.5078125  16.7823696  32.7386284  32.5679970
  16.9747047  31.9297295  32.0937386  16.5201187  33.3586502  31.8875351
  54.8821335  34.7244682  34.9918747  53.9850883  34.9218674  34.7224770
  55.1066322  33.9275856  34.5114479  23.3166103  28.6279335  18.9742928
  23.3455544  27.6945896  18.7639027  22.8369026  29.0228233  18.2461624
  39.8048706  18.8186245   3.4618537  39.0334778  18.3822689   3.1002190
  39.7554016  19.7124176   3.1228592  55.5315933   1.7082053  37.1046600
  55.9840469   1.0095730  37.5773468  54.6682129   1.7550358  37.5152855
  67.6202545  25.9747467  67.4112778  67.4669418  25.1893768  67.9365616
  68.0394287  25.6514435  66.6137848   8.0932198   2.0718300   8.9483852
   8.7570572   2.1529696   9.6331968   8.5137434   1.5456294   8.2683086
  73.7400665  70.2794647  72.1295471  74.5044937  70.7091675  72.5132675
  73.9023895  70.2993698  71.1864243  59.5564003  23.5774384   2.6455059
  58.8037033  24.1672935   2.6036747  59.9880104  23.7980633   3.4708962
  23.0162258  46.0262451  81.0804749  23.7634201  46.5451355  81.3782730
  22.8303585  45.4339180  81.8090515  85.0463409  64.0673676  33.0049095
  84.2096100  63.6357422  33.1775627  85.1832275  63.9568062  32.0640221
  59.9155235   3.3164442  48.7020111  60.5420189   2.6527667  48.9905701
  60.2555733   4.1375008  49.0576286  45.3191795  65.9132919  50.5637245
  44.5814056  65.7541275  51.1524429  45.3350983  66.8637238  50.4512100
  39.3687782  43.3296165  27.3383350  39.8989677  44.0274391  26.9534016
  39.6643105  43.2779503  28.2473030  39.6502838  44.5279617  38.0773697
  39.5000687  44.3770370  39.0105820  40.2828674  45.2458076  38.0496178
  86.6475449  36.5573807  82.6775894  86.2106781  36.3008766  83.4897308
  86.1396027  37.3028831  82.3575211  39.0519409  26.7578144  82.1657944
  38.3847923  27.4008484  82.4058914  38.6231956  25.9107914  82.2880936
   6.7854133  69.9887085  48.4280090   6.3664360  69.7061996  47.6150665
   6.3704557  70.8266602  48.6326790  59.0600471  56.5350189  27.3524189
  58.8058510  57.4502220  27.2340145  59.4337692  56.2792130  26.5091343
  81.1483002  18.4275608  13.7327795  80.6952744  18.2876358  12.9012613
  81.6921768  17.6476974  13.8434124  23.4510746  63.0514641  37.6380806
  22.5841255  63.3625221  37.8986130  23.9575977  63.8500748  37.4901352
  27.2736301   5.6024122  64.7002716  27.8639603   5.2163215  65.3473206
  27.8265915   6.2018824  64.1991653  13.0823164  42.0971565  38.0236435
  13.2478704  42.8391571  37.4420395  13.3442688  42.4087753  38.8899574
  53.0256004  64.1165161  86.2841644  53.1167259  63.9979019  85.3387222
  52.0828018  64.0670166  86.4419937  81.1370926  42.4794350  23.7479324
  81.3282547  42.4715996  22.8100471  81.4584961  43.3286743  24.0507889
  43.6632919  57.0640793  73.0235672  42.8470154  56.7915192  73.4426575
  43.4087029  57.2933769  72.1297913  82.5814819  44.4400673  63.9769096
  81.7122421  44.3675499  63.5827103  82.7838821  43.5533714  64.2752991
  19.8341618  13.4305820  86.3333130  19.7134323  12.5789557  85.9133301
  20.0072803  13.2224627  87.2514343  19.2131081  35.2681389  36.1274452
  19.6816826  34.4543953  35.9417305  18.7266388  35.0862541  36.9314957
  78.2908173  39.3795815  34.4863129  78.9491501  38.7311440  34.2365875
  78.7712250  40.0177574  35.0137329  15.4071283  42.9369659  45.3985710
  14.9449959  42.3593330  44.7911148  15.1508198  42.6258926  46.2667732
  82.5532227  48.6698418  77.0723267  82.4632645  49.3438225  77.7460403
  81.8772583  48.8826408  76.4288940  24.0159130  52.2342987  62.1779404
  23.1160526  52.5027580  62.3634529  24.0510139  52.1567917  61.2245293
  74.1452026  43.1185455   8.1942997  74.8121033  43.5969391   7.7017350
  73.3687744  43.6766510   8.1505594  74.3445282   3.2707474  33.7800484
  74.6664886   3.1999819  34.6786957  73.4930420   3.6999197  33.8637924
  67.3207703  27.3101768  55.2050400  66.5654984  26.8586845  54.8282776
  67.9004669  26.6059704  55.4953461  81.5696411  47.7539406  72.9486237
  81.4340668  46.9755478  72.4082947  82.5157776  47.7853584  73.0902710
   9.3481846  62.2579422  69.9217911   8.4337912  62.5326843  69.8537216
   9.3678312  61.3893394  69.5200806  82.7529602  63.8445930  86.1501770
  83.5881577  63.4289780  85.9358444  82.8384857  64.7387161  85.8193207
   7.5817518  13.1128998  32.5803604   7.7473340  12.2284584  32.9068222
   7.5356035  13.0125160  31.6295567  86.4943695  64.3482971  73.9048080
  85.7719421  64.7123642  73.3931580  86.7312775  63.5427704  73.4452057
  51.7137718  56.4247627  80.2652969  52.2465973  55.9102058  79.6590271
  51.2910423  55.7732849  80.8248596   6.8200245  50.4674683  64.8655090
   7.6615467  50.8234940  64.5803452   6.4159794  51.1777687  65.3639526
  29.7098179  40.2738953  80.2353134  30.1374817  40.5938797  79.4409943
  30.3064995  40.5171051  80.9431686   5.7249990  16.9560547  32.5949631
   5.0808225  17.2443180  31.9483013   5.6026926  16.0082283  32.6488152
  43.9384384  42.5219193  78.4429703  44.2055626  42.0268593  77.6685028
  43.7923737  43.4111404  78.1202011  33.4432602  54.2380981  67.5895996
  33.0946426  53.3870125  67.3243637  33.2762260  54.2824936  68.5310593
  55.4488068   4.9820538  14.9335375  55.2051964   4.3170204  15.5774450
  56.3301735   5.2528501  15.1906176  19.7339516  63.1380844  71.1212540
  20.5802059  63.2132149  70.6802979  19.8460903  62.4098930  71.7323151
  34.1432419  12.6154699  85.7004852  33.2456741  12.3646364  85.4821091
  34.6638794  12.3149529  84.9555969  34.2536469  64.7208099  34.8598862
  33.9128647  63.9671478  35.3416481  33.6837425  65.4461212  35.1155396
  77.7325363  26.2208385  23.6931210  77.3277512  26.8353863  24.3052578
  77.2066574  26.2946625  22.8967342   5.8729773  44.5030174   8.6041555
   5.2921453  45.2135048   8.8763113   6.5967183  44.9428635   8.1581011
  60.2599831   2.0178998  45.2906227  60.7558670   1.4247249  45.8549576
  59.3569145   1.7062377  45.3503151  77.7008743  49.4131012  49.6845589
  78.1826782  49.6087494  48.8809319  77.3662720  48.5259552  49.5532570
  62.0514221  58.3444443  81.5401230  62.6935768  58.4626198  80.8401871
  62.5723915  58.3286934  82.3429718  43.9083481   5.3868985   6.6736088
  43.9952774   6.0062919   7.3981957  44.7088127   4.8632126   6.7088308
  26.3355827  11.0205822  60.5587311  26.7847290  11.7840424  60.9215355
  26.3519955  10.3749189  61.2651863  78.4949493  16.2550755  40.7003479
  77.8662720  15.5728626  40.9361038  78.8726730  16.5315762  41.5352745
  34.3316574  16.5206337  78.9880219  33.5843735  16.2100029  79.4991989
  34.6530800  17.2814941  79.4717636  39.8280029  66.1166916  13.6633444
  39.6627007  66.1384811  14.6059122  40.3327904  65.3148956  13.5271740
  61.9940453  16.9107094  17.1937084  61.2431068  16.5500221  16.7222958
  61.6909561  17.7609100  17.5123386  74.8026581  26.3449821  78.9054947
  74.4889221  26.5734634  78.0305099  75.6253433  26.8254776  78.9979935
   9.7351265  58.3480110  63.9864159   9.8718567  57.7410164  63.2590294
  10.6180468  58.5958862  64.2607193  80.4152145   1.4461966  12.6729059
  79.9673309   1.0600075  13.4255648  79.7259140   1.5661353  12.0196705
  24.7049065  41.6029282  11.1223946  25.5722961  41.6567039  10.7211781
  24.3158894  42.4638100  10.9681778   5.3697352  20.9115925  19.2254887
   5.2662659  21.8560543  19.3417454   4.7919259  20.6956444  18.4935513
  64.6344147  33.6593361  64.8122330  64.9968567  33.0475388  65.4529877
  65.2168808  34.4180107  64.8493576  83.9205780   6.7230210  31.2542133
  84.6852798   7.1121025  30.8298512  83.8985291   7.1245313  32.1228523
   1.2387749  38.1933174  35.1887169   2.0685918  37.7668839  34.9747314
   1.4239662  38.6919937  35.9844933  74.1060562  27.8516579   2.8126297
  73.6569443  28.3744659   2.1483979  74.8566360  28.3864422   3.0712123
  79.3605042  30.6760254  67.1169128  79.4995575  29.7348518  67.2222137
  80.1676712  30.9935780  66.7120895  17.5224266  20.6522484  25.8021488
  17.2563972  19.9310951  25.2317142  18.4626331  20.7449570  25.6483727
  28.3839378  67.0117569  78.2669449  28.9865360  66.3404160  78.5869675
  28.3430119  66.8659821  77.3218002  42.1061249  71.2125702  43.6505127
  41.2480278  71.1445541  43.2318573  42.7303429  71.0283203  42.9486313
  10.9074726  58.6198959  23.7081947  10.8653336  59.5238838  23.3963261
  11.4535227  58.6625633  24.4932060  17.3107052  55.3602448  56.3613319
  17.6428604  55.8813057  57.0923576  17.2811432  54.4651337  56.6991692
   4.8704615  26.3505573  16.5308437   4.8991609  26.9109516  15.7553654
   4.9383731  25.4603405  16.1856842  80.3210373  71.5617981  10.4977379
  79.6799622  70.8536453  10.5591640  80.6154633  71.6971283  11.3984203
  80.5143356  23.2641373  72.5525055  81.2399292  23.7748775  72.9115219
  80.0909119  22.8779011  73.3191681  84.1796799  37.3502502  46.0471573
  84.8200531  37.8065681  46.5929832  84.6859818  37.0306168  45.3003502
   8.7513514  63.8176918  63.9252472   9.4678354  64.4339371  63.7731895
   9.1802378  62.9650955  63.9985313  12.9501886  66.8136749   3.3140163
  13.5138292  66.6843338   2.5512497  12.5592308  67.6769485   3.1793029
  41.6804657  15.8711481  11.4869509  41.3137474  15.5873623  10.6495647
  42.5604057  15.4947481  11.5029392  79.6441956  61.7196960  48.2301331
  79.7989426  61.6861000  47.2861214  80.4934540  61.5116158  48.6196136
  15.3493299  58.9874344  65.5316620  15.1027470  59.6830482  64.9221115
  15.2453909  59.3803978  66.3982697  22.0611458  64.3753204  58.6579704
  22.4039230  64.1825943  57.7852783  21.4294910  63.6762581  58.8269577
  83.0548172  50.2849960   0.5724820  83.4993134  50.9060631   1.1494823
  82.2471161  50.0634041   1.0358871  16.0505867  70.9810257  22.5379658
  16.0108395  71.3075943  21.6390762  16.3138847  71.7407074  23.0573692
  81.1233673  54.2150803  35.1097145  80.2789383  54.4081268  35.5170212
  80.9993820  54.4338112  34.1861267  59.1720581  12.8157558   4.5827594
  59.0878563  12.3623228   5.4215326  59.9657326  13.3429832   4.6741204
  58.6355629  57.7227325  51.2416077  59.5026817  57.4864769  50.9121819
  58.3127022  56.9246712  51.6600533  43.0945129  13.3457317  13.9900541
  43.4956474  12.5304565  13.6889715  42.3833466  13.0644455  14.5656862
   3.5843234  65.3531189  34.6996155   3.7019904  65.9283295  33.9436264
   3.2559028  64.5341339  34.3286171  47.4246521  28.1883183  86.7980194
  47.9982109  28.2602062  86.0350723  46.5405540  28.1662312  86.4317932
  34.2700615  59.6915092  43.1552391  35.0120964  59.1019859  43.2896767
  33.7363663  59.5883064  43.9431190  18.1790695  46.4230614   2.8809376
  17.3783512  46.9465027   2.9139922  18.6872559  46.7146568   3.6378710
  82.9039078  35.1510735  47.0279083  83.2543106  35.8057289  46.4238548
  83.0720139  35.5135002  47.8977470  61.1748619  20.0477772  43.7593651
  61.1074791  19.0929508  43.7597656  61.9504509  20.2333717  44.2887459
  41.3587303  49.1226959   1.5567914  40.5447998  49.4339485   1.1607207
  41.0752563  48.5938454   2.3025746  70.0222092  42.5798378  72.6744843
  70.4395523  41.7226410  72.7597580  70.0854263  42.7852859  71.7417374
  85.8009262  70.6122894  55.0863914  85.2364197  71.2999496  55.4394989
  86.6893921  70.9014511  55.2943649  23.8690224  52.3467293   0.2081212
  24.7050610  52.2233925   0.6576306  23.2106133  52.0786781   0.8491199
   1.1942645  68.8432159   6.9480004   0.2744097  69.0722961   6.8152566
   1.3333708  68.0778198   6.3902769  85.4390411  10.6389437  68.9252625
  85.5263824  11.3512506  69.5586853  86.3026505  10.2265053  68.9080429
  51.2700043  14.3696213  39.6396065  52.1855545  14.1350555  39.7911911
  51.2490807  14.6804180  38.7345085   5.7328906  70.9453735  87.3436890
   6.1395574  70.2899780  87.9105301   6.4088273  71.1580124  86.7001648
  37.6307144  45.2366333  28.7362671  37.5771790  44.8790359  29.6225452
  38.4229279  44.8457260  28.3677197  70.1188507  63.7429543  57.7049217
  70.1027756  63.9191704  56.7642212  69.2353134  63.4344215  57.9059372
  14.3562756  22.2200851  52.6403999  14.4247980  21.8805103  53.5327148
  13.9756632  23.0921612  52.7445755  30.5753651  50.3100281   1.6536165
  30.0220814  50.0139656   0.9308044  31.0889626  49.5387459   1.8935699
  73.9011383  30.0116100  48.7403946  73.5799866  30.4347744  47.9441376
  73.5173950  30.5213070  49.4539642  13.4674530  67.0571594  81.6494141
  13.3404636  66.6898651  80.7746582  13.7933788  66.3243408  82.1718826
  79.9754257  28.4836597  72.6905441  79.8916473  29.2695923  73.2304688
  80.9056473  28.4436855  72.4684601  49.7093735  71.5772171  66.0582428
  50.4164352  72.0810089  66.4613495  49.3881226  71.0113220  66.7602310
   9.8624659  47.1319389  10.2561178  10.4831877  47.4813614  10.8955250
  10.4117069  46.7981071   9.5468073  57.0868187  50.1518974  50.6115456
  57.7686882  49.7605972  50.0654945  57.5253868  50.3460617  51.4399109
  47.3623085  67.1845016  45.9266701  47.0793304  66.4927979  46.5247536
  46.5749016  67.4096222  45.4311523  72.3660736  24.2028522  71.1379318
  72.8098068  23.3668594  71.2809372  71.5637436  24.1398640  71.6561279
  74.8417816  51.4943085  65.1121750  74.2413101  50.8706322  64.7038956
  75.6644363  51.0127754  65.1993637  69.0720291  65.8068695  65.7507782
  68.8756027  65.0120239  65.2549362  69.3876572  66.4272232  65.0936813
  72.3204880  70.0906067   2.2440500  71.7088776  69.7783890   1.5772069
  72.3387833  71.0403748   2.1263952  32.5616875  21.9608822  87.5036545
  31.7917938  22.0094929  88.0703354  32.2639122  21.4720135  86.7364731
  70.0075836  10.8302221  66.8698730  70.2078247  11.7545938  66.7226562
  70.7007599  10.5252934  67.4553299  40.2655907  66.6205521  36.2403526
  39.6582527  67.3469849  36.3805923  41.1280022  66.9889755  36.4320297
  78.8603897  60.9176865   7.6816907  78.7764435  61.8238487   7.9784222
  79.8036880  60.7808075   7.5939522  68.8313751  37.7297440  76.8968124
  69.2509079  38.3300591  76.2805023  69.5007477  37.5607529  77.5598450
  39.0821457   3.4648285  14.8747597  39.2966995   3.7297931  15.7691813
  39.5524597   2.6405597  14.7497988   5.8927708  16.0350170  69.7129898
   6.2879720  15.2987156  70.1797943   5.4528294  15.6347656  68.9629974
  68.3192062  21.4334850  71.1250229  67.5918198  22.0498180  71.2103043
  68.2634354  21.1206226  70.2221146  17.3012085  54.8509140  69.3534775
  17.1954842  55.5732498  68.7343750  18.1659718  54.4910393  69.1562271
  12.4325895   4.6232257  11.3379230  12.1882076   5.5412302  11.4552975
  11.7375059   4.1323991  11.7763071  67.0604553  40.7866287  85.5090790
  67.1583862  40.0480080  84.9081802  67.9359512  40.9165916  85.8735428
  85.3911896  39.2644386  35.7028542  86.0242691  38.6034012  35.4227295
  84.5998306  38.7664871  35.9078636  32.3274803   3.0963547  89.1175385
  33.2116699   3.2605395  89.4453812  32.4452896   2.4436109  88.4274063
  66.0155487   0.7806989  54.7336006  66.6387253   1.4900846  54.8906441
  66.2013779   0.4920868  53.8400650  84.5134735   9.3916674  54.9310112
  84.7053375   9.2673426  54.0015144  84.4724197  10.3415079  55.0421410
  24.5612698  57.3934174  17.9612255  23.6088409  57.4870491  17.9426231
  24.7742100  57.2953033  18.8892670  86.8927536  13.4932346   2.8261509
  85.9998398  13.4650154   3.1698754  87.1998520  12.5883961   2.8826363
  81.8641739  16.5308437  74.8218079  81.9861298  15.8016119  74.2138748
  80.9968033  16.8762417  74.6106033  11.4903622   0.9996207  31.9921494
  12.0971928   1.7141207  31.7985573  11.4482851   0.4944862  31.1801758
  45.2195091  66.6967087  54.2656822  44.4897346  66.5816422  53.6570587
  45.8377800  67.2559128  53.7952995   3.1585283  67.2891159  14.7390194
   2.5053408  67.7579346  15.2584229   3.1962214  66.4171524  15.1320791
  36.7370110  43.3398705  19.2869072  36.1373634  44.0859566  19.2839108
  36.6345482  42.9537277  20.1567497  48.6854286  62.3836288  52.9858398
  47.9585419  62.8579826  52.5822906  48.2729530  61.6354218  53.4174385
  12.8177910   2.2995358  22.1085091  12.9090776   1.6530007  21.4085865
  11.9809780   2.7287872  21.9304104  60.5264893  55.6762772  25.0218525
  61.0531158  55.0817871  25.5561485  60.5549774  55.2975121  24.1432419
  11.5627775  20.9849873  72.9564438  10.8949242  21.3814125  73.5159531
  11.5036259  20.0474796  73.1403275   8.3408213   0.4902569   4.4868932
   8.6428347  -0.3503453   4.1427889   7.3963180   0.3791698   4.5955472
   0.6163930  68.5666656  65.9221725   1.4443580  68.5434189  65.4424133
  -0.0554649  68.5699005  65.2403870   9.2497177  12.2919397  59.4615059
   8.6950531  11.5523043  59.7095375  10.0914822  12.1108866  59.8796997
  25.1990547   3.3375866  42.7359657  24.8413315   4.2248397  42.7683372
  25.2006073   3.1137753  41.8053017  31.4680424   6.1993465  75.9486771
  31.3881531   7.0961323  75.6236725  32.0051422   6.2772908  76.7371445
  77.5502396  62.6834412  52.4194603  77.9860001  61.8325157  52.3718414
  78.2571793  63.3206177  52.3171425  83.0106735  45.3810844  20.0125618
  83.2731934  45.9451141  19.2851067  82.1919022  44.9799004  19.7211933
  14.8591204   1.0444977  37.2251205  15.6779041   1.0189120  36.7299728
  14.2030849   1.3286086  36.5886230  39.8131294   3.5521195  36.8578758
  39.9979668   4.4236865  36.5079689  39.1697235   3.7034872  37.5502281
  22.8701344  59.7951775  13.7619085  23.0831432  60.6104240  13.3077831
  23.1308174  59.9514542  14.6695728  24.8990192  -0.0328521  87.6438675
  24.7275505  -0.1318374  86.7073669  25.8050308   0.2724354  87.6905136
  81.8654480  23.4751053  29.9656258  82.2733841  23.4565411  29.0999050
  80.9915161  23.1102657  29.8264599  22.4338570  17.8160019  20.0475197
  22.2962780  16.8708897  19.9837303  22.1659603  18.1552162  19.1934738
  15.1296749  47.0773506   2.2516456  15.1300964  47.9621124   1.8863684
  14.2825527  46.7127953   1.9952923   0.9186017  35.9977112  11.6073122
   1.2563742  35.1440086  11.3365145   0.0655189  36.0647926  11.1783810
  24.1227455  44.4418411  14.1924076  23.4936543  43.8185463  14.5556984
  23.5925617  45.1979256  13.9404640   3.6023245  47.0988846  19.9837513
   2.8822780  46.5692139  20.3261166   3.4428449  47.1390152  19.0407848
  73.3462219  54.1102180  23.9715595  74.2727509  54.2304916  24.1796665
  73.3001862  54.2048912  23.0201664  68.4625778  54.1634178  88.0165024
  68.1444550  54.7726974  88.6827011  68.5270691  54.6911469  87.2205276
   5.6142416  10.6890974   4.7197309   5.9605889  11.5783005   4.7945247
   5.8979979  10.2531586   5.5232673  38.4185410  30.9077835  16.6531086
  39.0368309  31.6383667  16.6672039  38.8791275  30.2132740  16.1822033
  38.0318718   4.5151644  87.6360550  38.2894363   3.9733646  86.8901672
  37.5980873   5.2726994  87.2433624   1.5572735  35.0138321  50.3898430
   2.2787502  34.4253502  50.1675949   1.9684087  35.8735657  50.4795990
  41.6749611  32.5649910  22.5739861  41.6007729  33.1789932  21.8434200
  42.5654793  32.6896210  22.9021168  74.7619934  15.2126265   5.3029890
  74.7248535  14.4352303   5.8602214  74.4595718  15.9253902   5.8657823
  77.6197052  28.2948685   2.0860939  77.0678406  28.9194813   2.5567648
  78.2405548  27.9809513   2.7435427  55.8590469  39.7926712  22.6764393
  55.9084396  40.3395004  21.8923683  55.3814468  40.3267174  23.3112068
  70.4671097  23.0984230  63.2354660  70.0491562  23.2014160  62.3805161
  70.1302261  22.2665005  63.5680962  71.7604523  55.8529549   0.1299583
  71.2622833  56.6212959  -0.1488137  72.4445114  56.2047806   0.6996199
  23.5906315  44.8158455  49.7024231  23.6587143  44.9370384  50.6494751
  24.3153477  44.2302208  49.4831886   2.3531933  52.0654526   1.9825898
   1.7847891  51.4891090   1.4717306   3.2067497  51.6324158   1.9702041
  58.0881310  51.3118057  32.0701065  57.3245850  51.6831818  32.5120392
  58.7842827  51.3449745  32.7262344  43.5800667  55.4142227  39.4844398
  43.1969070  55.9095459  40.2083702  44.5167770  55.3902016  39.6799660
  59.2189369  67.1421890  29.4300594  59.9056854  66.5456924  29.1320667
  59.3317070  67.1819229  30.3797626  46.7459564  28.5973759   3.3368750
  46.9315987  27.9159603   2.6907787  46.2918549  29.2793579   2.8419757
  65.2314529   4.5697069  52.9839897  65.9575806   4.5486660  53.6073074
  65.5112457   5.1904297  52.3111954  10.2384329  21.5548553  86.5384827
   9.2928705  21.5214348  86.3934708  10.4749575  20.6602478  86.7833633
  74.0888062   2.0631876  51.9937782  73.8338165   1.3581237  52.5888405
  73.5829010   1.8995588  51.1978416   0.1300427  57.7707825  41.6003036
   0.8329888  57.8440666  42.2458458  -0.0608037  56.8336945  41.5593567
  75.1746368  64.4912872  44.8723488  74.7369232  63.8473854  44.3155441
  75.2220078  64.0721207  45.7315826   9.5830326  44.2812805  81.5614624
  10.2534237  44.9636421  81.5959320   9.9777107  43.5347710  82.0122299
  20.8659821  35.3902245  86.9157791  20.0792141  35.8661003  87.1818008
  20.5497208  34.7308273  86.2981949  60.7434807  60.9706497  16.4621563
  60.6631432  61.9214287  16.3860283  60.9503326  60.6759834  15.5752439
   8.5069666  66.7410660   7.9666243   8.2108164  67.6184006   7.7241220
   7.9876089  66.1529007   7.4183869   3.3047061   4.3969493  49.9377251
   2.5665579   4.8919525  49.5822792   3.8801460   4.2525139  49.1865654
  55.8558159  17.6455479   4.7535353  56.1883125  17.9601727   3.9128876
  56.5322380  17.0465660   5.0696177  19.3138695  55.4064064  39.4138680
  19.7766914  55.0771866  40.1843529  18.6691360  54.7278328  39.2136497
  44.6156502  46.1071930  67.5380859  45.0185013  46.1976089  68.4016647
  44.6160812  45.1646729  67.3710861  16.5015659  30.5148315  18.1720715
  16.2260418  31.4296951  18.2298889  17.3194275  30.4791985  18.6681194
  40.8985329  11.1652050  28.3502712  40.0734558  11.6441240  28.2720833
  40.6351776  10.2557735  28.4910221  72.1825027   6.4051600  53.2745018
  72.5003433   7.2605338  52.9854584  71.7855148   6.0205717  52.4930115
  17.6514187  35.7181549  80.7714462  18.3243790  35.0920219  80.5044022
  17.9845257  36.5667648  80.4796677  25.9944706  68.0097046  86.6721649
  26.7196922  68.0680618  87.2941589  25.6844635  67.1074142  86.7496948
  73.1003952  18.9244232  55.7996750  73.8392563  19.5272274  55.8830528
  72.4678268  19.2294750  56.4500847  56.2964668  46.2016335  60.6628113
  56.6338120  46.4778557  59.8106766  56.2057953  47.0148125  61.1595535
  30.7261829   9.6941690  68.8002014  30.9340992   9.9690409  67.9072037
  29.8086796   9.9397840  68.9189148  40.1890221  38.1130333  79.8918915
  40.1998863  38.6993370  80.6484375  39.2845421  38.1413765  79.5798798
  32.7719650   8.0985937  26.8794861  32.4505844   8.5078135  26.0760651
  31.9796619   7.8741231  27.3674412  65.8949814  11.4902077  26.2083321
  66.8378067  11.3467312  26.1262493  65.5296173  11.1557779  25.3892498
  25.8188992   8.3468180  78.8225632  25.5215893   8.1222324  79.7042694
  25.0123920   8.4788275  78.3242111  26.9721870  71.7988129  77.7094116
  27.1581345  70.9303055  78.0662689  26.0195503  71.8216248  77.6188736
  62.0624580  54.6081123  69.9984360  61.7838936  53.9088898  70.5898056
  61.2680054  54.8498611  69.5223770  76.0726547  60.3742142  51.4155426
  76.3614578  61.2758522  51.2745705  75.5194244  60.4190750  52.1953850
  76.4012756  28.7636738  20.3366413  75.5683289  29.2303467  20.2684422
  76.8043594  29.1083050  21.1335011  40.5522156   0.6734018  10.7742968
  40.3203354   1.5833527  10.5886812  39.9138794   0.3925295  11.4299412
  10.5121412  35.9360275  23.9553967  11.0398197  35.8560410  24.7499962
  11.1388321  35.8286171  23.2398872  67.7201233  27.7433147  28.0641308
  67.0622101  27.5534706  27.3952942  68.5558777  27.5485916  27.6400738
  82.7127686  34.7259407  80.1498871  82.0504303  35.1649284  80.6835861
  82.2557068  33.9753723  79.7704620  53.7538605  13.7930555  40.5563202
  53.7993546  14.3272991  41.3492546  54.1546478  12.9602280  40.8053169
  64.7372589  44.9281693  59.4288139  63.9705391  44.5747490  59.8798790
  65.3555984  44.1980705  59.3995552   7.1399708  10.4403124  60.2742043
   6.5305514  10.1284628  59.6051826   6.6948862  11.1874819  60.6740417
  41.9869804   8.5904694  60.0779572  41.1078224   8.2166777  60.0180054
  41.8760643   9.5058737  59.8211250  56.7876701  42.5761185  82.9581070
  56.9193573  43.5156822  83.0850296  57.0317192  42.4211693  82.0456009
  64.2593460   0.5614265  37.7919922  64.6650772   0.3038933  36.9641724
  63.3275909   0.6407112  37.5875969  38.3887520  47.8458748  42.3399391
  38.2186241  47.6554108  41.4174347  37.9488983  47.1409187  42.8151245
  59.0113602  21.0927696  18.9753780  59.5238228  20.6119041  19.6252899
  58.5991859  20.4117889  18.4437714  52.8001213  12.4203730   1.4238285
  53.5079498  11.8674316   1.0929673  52.0977707  11.8068466   1.6395069
   0.2053016  56.6054878  73.6116867   0.6320161  56.8530846  74.4319611
   0.8752697  56.7432938  72.9420776  76.4400330  15.3755341  67.5172501
  76.5156708  14.7245750  66.8195648  76.3793869  16.2130795  67.0578232
   9.7496920  61.3149643  85.3281708   9.6726418  62.2469902  85.1241455
  10.5297537  61.2541733  85.8795700  68.6206284   1.4867522  16.7895374
  68.5471497   0.5433680  16.9339657  67.7473679   1.8274581  16.9833412
  66.8658371  71.1645508  68.5465317  67.6630173  71.6574783  68.3521881
  67.1475372  70.4856033  69.1596451  47.5185661  44.0595284  34.0281677
  46.7352829  44.6067734  33.9714012  47.4343071  43.6070557  34.8674545
   1.5169318  66.1276169  40.9385376   1.9406257  65.6248093  40.2429085
   1.1132207  65.4661026  41.5003662   7.5440178  20.0566559  18.2139568
   7.8942122  19.5184078  18.9238052   6.6662240  20.2996845  18.5083141
  71.3413925  58.5490417  10.3184423  70.6770859  58.3077164   9.6729250
  72.1001205  58.8085823   9.7957592  33.6288414  25.2850819  87.7432632
  32.8070068  25.6807747  88.0335083  33.4339790  24.9401264  86.8719025
  85.0134277  27.3334389  58.6900139  85.9245911  27.4308147  58.9666519
  84.7124176  28.2291718  58.5374031  82.8664474  11.4681997  19.1187820
  82.6510086  10.5355606  19.1169548  83.7723160  11.5053663  18.8117867
  74.0541458  61.9032288  73.9948349  74.0770798  61.1435547  74.5767365
  73.9637756  61.5305138  73.1178284  60.8827438  45.9712448  61.5821419
  61.6247673  46.0542564  62.1810913  60.1355782  46.3049240  62.0787659
  54.5124702   4.4963083   9.9066534  55.0427780   4.2479601  10.6638393
  53.8499641   5.0886993  10.2621679  77.6094208  52.5827293   7.3057275
  77.5743561  52.6173553   6.3497972  77.6976471  51.6514435   7.5085864
  20.6638374  43.5917931  41.4283829  21.5110664  43.9790001  41.2081375
  20.8592930  42.6710815  41.6025085  63.1267471   1.9674720  22.3052063
  63.6720581   2.6691298  21.9494743  62.6863785   2.3640664  23.0568829
  54.4927330  45.6427650  31.3893108  54.8893433  46.4625511  31.6840725
  54.3362350  45.7750130  30.4542961  35.5414391  55.2698936  22.7197247
  35.1030960  55.0601387  23.5444012  35.5865707  56.2259674  22.7088890
  74.7954483  23.0328007  11.5695391  73.9622803  23.4748249  11.4061880
  75.0731812  22.7195358  10.7087488  27.4305420  27.8853741  32.3903961
  26.8738956  27.8196945  31.6144695  27.8722038  28.7294998  32.2975655
  63.3407402  30.9111786  62.9712906  62.6244850  31.5000229  62.7336426
  63.9196815  31.4454670  63.5149765   7.5897517  19.3365803  37.8733406
   6.9755979  18.8059826  37.3658829   7.7849627  18.8047867  38.6449089
  36.5455017   2.5011845  40.6656876  36.7739792   2.6582396  41.5818558
  35.5931511   2.5930974  40.6371918  61.3942642  50.2542610  69.3321609
  60.6799965  50.8317566  69.0627975  61.1922150  49.4147263  68.9191360
   8.2061586  56.2290115  19.7551537   7.4394836  56.1582031  19.1864471
   8.3245525  55.3473129  20.1084557  73.7543640  23.3154526  66.3846893
  73.4525146  22.5945950  65.8319855  74.7076569  23.2293415  66.3911743
   9.2746973   6.6124120  79.1361771   8.8143845   7.4253998  78.9278641
   8.7883444   5.9347358  78.6666565  63.7906685  23.1923313  28.5514889
  63.4733810  23.4650326  27.6905632  63.9568977  22.2541885  28.4593639
  78.9280090  32.1297951  76.3000946  79.5676575  32.7289963  76.6848526
  78.0859909  32.5688858  76.4202499  69.4866028  57.6398048   8.1278543
  69.4986877  58.5936203   8.0483198  69.2882004  57.3283195   7.2447653
  43.4901848  44.4307938  32.0407066  44.1998138  44.7993126  31.5145378
  43.8781509  43.6642723  32.4627991  15.0995445  62.5088806  22.5804195
  14.3141479  62.8452797  23.0119514  15.0582104  61.5617065  22.7122841
  62.0013008  44.5201607   1.7701303  62.3586998  43.8724174   2.3775218
  62.0372047  44.0918961   0.9148341   8.1403131  65.6942444  14.8877373
   9.0131550  65.3298874  15.0347891   7.9194493  65.4335098  13.9936085
  80.8525543  23.1723022  45.9564590  80.2701645  22.8779602  46.6567535
  81.5876312  22.5597706  45.9829407  29.5838356  51.5538216  80.8886948
  29.0504398  51.8359833  81.6317368  30.2528515  50.9886627  81.2750244
  86.2959976  39.5493965  58.2179832  86.5206451  40.4410477  58.4839249
  85.9118576  39.6488609  57.3469048  20.0104427  30.6893272  84.4582520
  20.4887753  29.9422874  84.8179169  20.4732838  30.9024563  83.6479492
   9.9443016  69.3262100  86.1417694   9.5372658  69.0527420  86.9638214
  10.1864529  68.5068436  85.7102127  15.4430590  17.9855232  12.9726524
  15.1337681  17.5590134  13.7718134  15.8884029  18.7752552  13.2796106
  55.3781815  50.2697678  10.1852350  55.8317795  50.0313454   9.3767586
  55.3835945  51.2269440  10.1895695  55.4955101  41.5811272   1.8706260
  56.0991936  42.3208771   1.9382037  55.3164673  41.3344307   2.7779939
  48.7395477  56.1243820  86.0561752  48.4959831  57.0498695  86.0757141
  47.9396286  55.6717911  85.7887344   5.3411570   1.3355609   5.3002625
   5.5156927   1.4916108   4.3721366   5.0077438   0.4389333   5.3338242
  17.1557484  10.4376593  56.6173058  17.9758492  10.5768290  56.1437073
  16.5184155  10.2254333  55.9353981   5.5248399  48.7123413  63.2103310
   5.6746235  49.2126236  62.4081345   5.8155994  49.2937050  63.9129753
  39.5165176  64.5601501  39.8120346  39.3257141  63.6574326  40.0668526
  38.8569565  64.7665787  39.1497726  56.9471703  53.0797844  67.9463654
  56.6172867  53.3991470  67.1064758  56.1598053  52.8972321  68.4591675
  11.5831432  40.1823158   2.0402508  11.0612564  39.3918381   1.9023619
  10.9718885  40.9027138   1.8865539  80.0031052  16.4090347  58.3199272
  79.6176605  16.2069321  59.1724625  80.8601608  16.7816792  58.5268402
  74.6725159  68.3138733  88.7565842  75.1688309  67.5024719  88.6491776
  73.7652664  68.0275116  88.8621216  11.7613268  51.6511803  64.8227310
  11.5761547  51.7957802  63.8948135  11.7514935  50.6993408  64.9234390
  17.2691326  35.2215652   8.1519642  16.6390781  34.5257339   7.9646721
  17.1270943  35.8662262   7.4588051  64.0291214  45.9899063  47.7760620
  64.0795212  46.6055107  47.0448151  63.9473267  46.5452003  48.5514259
  35.6238174  61.2731819  35.0326576  35.0172882  60.5400963  35.1372490
  35.1892815  62.0073586  35.4667053  50.7075119  54.8994598  64.1523514
  50.8507080  55.3288574  63.3089447  49.9629059  54.3172340  64.0013351
  71.9496460  56.8977165  62.5552673  71.9363480  57.7725906  62.1671295
  71.4940643  56.9994812  63.3909264  29.1315804  22.5212803  29.5112324
  28.8939152  23.4454441  29.4359474  29.8000698  22.3903389  28.8387661
  79.7656860  29.0778999  56.5083694  79.2532349  28.2699032  56.4807739
  79.4939270  29.5606537  55.7277718   8.5922432  35.9620438   7.6279802
   8.5182877  35.7820168   8.5651846   9.0857639  35.2195168   7.2796693
  85.2525558  58.0592422  19.8860970  84.7910156  58.8877411  19.7564888
  86.1797562  58.2964287  19.8693066  34.6115036  31.9931889   3.9187636
  34.6318321  31.0588589   4.1257539  34.9166183  32.0445290   3.0129492
  51.8283539   5.0849986  58.7287636  51.5719643   5.1964564  59.6442261
  52.0998001   4.1692533  58.6658478  28.7587090  15.3317652  27.0761566
  29.2518559  14.6821241  26.5751534  28.2268124  15.7852449  26.4221878
  82.3731003  51.3250580  58.9025230  81.7418976  51.0223541  59.5553551
  82.9546127  51.9120407  59.3857613   4.7537065  67.5857086  61.9417038
   5.6986365  67.4537582  62.0187073   4.3850398  66.7030106  61.9759254
  49.6831398  23.9692879   3.3967664  48.9468498  23.4248905   3.6755922
  49.4961624  24.1740723   2.4806144  69.1112518  22.3505325   1.0863621
  68.5741882  21.7057056   0.6259374  69.9464645  22.3442898   0.6188015
   8.5304337  18.5289268  48.1926880   8.5842323  17.5734577  48.2131157
   7.6264992  18.7232723  48.4404030  42.1484566  56.7066765   3.1896830
  42.9492874  56.2483673   3.4443502  42.4275589  57.3137245   2.5042427
   3.0321028  52.2014427  65.2186279   2.7162831  51.9209061  66.0775757
   3.8779469  52.6125031  65.3969727  14.8394327  40.9871750  72.5962448
  14.7327890  40.0732231  72.8599701  15.7855206  41.1018028  72.5067444
  75.0921631   9.8875847   4.5632505  74.3815155   9.5421429   4.0229931
  75.8712387   9.8097000   4.0126109  34.0775909  66.8191910  68.3304138
  33.2127342  66.4748611  68.5533295  34.1199875  67.6660461  68.7745590
  82.7522888   7.0920734  27.9204102  82.8624573   6.1503077  28.0514545
  82.1315918   7.3573389  28.5990849  68.2540970  42.6309929  66.9419785
  69.0403442  42.0969124  66.8288422  67.6769257  42.3619576  66.2273254
  39.5002708  31.1330910  83.0602570  40.4422798  31.0806179  82.8987122
  39.4260788  31.5886459  83.8988266  59.8998795  38.5502243  23.7388973
  60.1278839  38.2751808  22.8508682  59.6822853  39.4784622  23.6536980
  19.2880192   8.5046511  60.2240868  20.0595188   8.7165279  59.6986084
  18.5618477   8.5206356  59.6006660  45.8379364  55.7910614  48.7620697
  45.7935219  54.8538475  48.9515076  46.2144623  55.8402328  47.8834076
  32.8916550  65.2181931  52.7241554  32.1699333  65.6910095  52.3096771
  33.0808640  64.4964752  52.1245232  55.7801704  20.9959011  18.6641808
  56.0216866  21.7427845  19.2119637  56.6159058  20.6005878  18.4161816
  36.8845482  64.1585312  66.7474136  37.4703293  63.4060020  66.6650314
  36.1200523  63.9257736  66.2205353  49.0507507   5.0472655  64.1664200
  48.7943764   5.9674983  64.1057892  48.2871704   4.5645494  63.8499336
  84.8929672  33.7906952  37.3591537  83.9874802  33.6020699  37.6056213
  85.0228348  33.3125839  36.5401459  73.9207458  17.0811596  88.5467911
  73.4662094  16.8386497  89.3535233  74.5051727  16.3439217  88.3702774
   4.9690671  42.9712753  45.4187737   4.8337250  43.3095856  44.5336418
   5.2894783  43.7235985  45.9163437  63.6256828  70.1800003  49.7756538
  64.3933411  69.6222076  49.9013443  63.1988411  70.1965942  50.6322556
   9.9157410  44.8170128  48.2013092   9.0049639  45.0735435  48.3459091
  10.4006653  45.2484093  48.9048576   1.6764172  50.8800812  39.8583298
   2.3681817  51.5368729  39.7788429   1.6815295  50.6377029  40.7843208
  41.3978577  66.0725403  24.4769592  42.2167244  66.2224197  24.0044956
  40.7150574  66.1932449  23.8170719  66.4148865  69.0505295  11.6266098
  66.7415771  69.4546432  10.8227453  66.3713379  68.1159668  11.4242954
   8.1879625  26.2945099  53.0972748   7.8894019  26.6229610  52.2492104
   8.8657646  25.6541691  52.8809891  18.8824539  28.9620342  26.5409355
  19.0683079  28.1392136  26.9933243  19.5592842  29.0229130  25.8668232
   1.7093722  18.8423119  67.5099716   2.2144334  18.8907318  68.3216324
   1.6778373  17.9083195  67.3028564  42.2888527  12.0843439  22.8872128
  42.9395828  11.5372314  23.3270397  41.6699448  12.3222370  23.5775681
  42.3693085  14.4941759  21.3133335  41.8106308  14.4092894  20.5407333
  42.4349289  13.6045179  21.6603699  31.6969814  63.0960159  11.8667974
  32.4738579  62.8813477  12.3831425  31.1718540  62.2958336  11.8802042
  19.6298809  31.8127422  79.5535126  19.9546032  31.0545235  80.0391998
  18.7248459  31.9159050  79.8476257  52.9951515  29.1266613   4.2297134
  53.9251518  29.2570152   4.0443959  52.9573135  28.2857742   4.6854639
  34.7095909  15.2630262  10.5205803  35.6340981  15.1163263  10.3205948
  34.3195534  14.3890362  10.5049839   5.2605805  29.6546917  71.3717575
   5.5474439  28.8599262  71.8215179   5.3933654  30.3535366  72.0122375
  30.4974785  51.8435287  83.7765350  31.1252060  52.2547951  83.1823578
  31.0354919  51.3101768  84.3616104  34.0604820   5.9087162  42.2063522
  34.8613548   5.9286551  42.7302170  33.3660202   6.1446047  42.8214188
  33.0603104  60.5519104  10.3746166  32.2117805  60.8335991  10.7164965
  33.3384781  59.8548698  10.9687452  50.7018852  10.2443113   5.6564970
  51.4452972  10.0835457   6.2376370  50.2711182  11.0149975   6.0262465
  23.9858646  12.5757465  51.6016617  24.4676914  11.9117804  52.0948410
  23.7319736  13.2244244  52.2581596  16.8944073  69.4610825  48.5219803
  16.4364033  68.7845840  48.0231705  16.1954842  70.0008240  48.8913269
  52.7941589  31.7042770  23.6272144  53.5249748  32.3169518  23.5449409
  53.2087364  30.8435860  23.6869621  14.9760361  50.6779213  52.4622078
  15.5035124  50.4284248  51.7034225  14.0712118  50.5492210  52.1776695
  69.2632065  29.5191383  24.1357803  69.3861465  29.1788292  25.0219555
  70.1451797  29.7480927  23.8426399  49.9100571  66.2649536   4.5857420
  50.7176628  65.8049774   4.3567743  49.2214928  65.6092148   4.4756799
  77.9865417  48.7929764  40.7610321  77.1974106  49.3080482  40.9289665
  78.4811401  48.8388596  41.5792618  72.3546677  35.8811264  42.9769516
  72.0530548  36.6132240  42.4390869  73.0251999  35.4530983  42.4445915
  59.2701302  17.7422237  88.1858978  58.9669266  18.6461945  88.2703781
  59.0664406  17.3413219  89.0308990  13.7101202   0.7355940  64.8478622
  12.9807234   1.1976264  64.4346542  13.8723993  -0.0152025  64.2767181
  16.7067413  45.9101334  45.3968048  16.6423168  45.0737419  45.8578148
  17.3601456  45.7576294  44.7141342   6.8868384  58.1445808  67.7542038
   7.2704325  57.5812912  68.4263611   7.2802362  57.8425674  66.9355164
  77.0133286  42.9004211  79.1411438  77.5779877  43.4211464  78.5699692
  77.1776276  41.9945641  78.8791046  14.7487822  66.9529037  23.0672512
  14.8925295  67.6796722  23.6733704  14.7545023  66.1732330  23.6225128
  12.1516685  18.6734924  41.3813934  12.9673090  18.7290592  40.8835220
  11.8973751  17.7525692  41.3224945  28.6864109  61.1460381  73.5565720
  28.6067677  61.8940887  72.9646988  27.8222427  61.0672226  73.9605942
  43.0560684  23.8414879   5.1983094  43.0359840  22.9216404   4.9342823
  43.2899551  23.8192730   6.1262298  62.5390587  18.0938396  66.1526184
  63.3634338  18.3904877  65.7670822  62.7975006  17.4199657  66.7813797
  60.0251427  21.5491810  12.2392845  59.3476601  22.1762657  12.4922943
  60.2806702  21.1284313  13.0602026  81.5042114   5.9854536  84.6049881
  80.5758209   6.1708546  84.7462463  81.8278046   5.7146292  85.4641571
  41.6593399  56.2203827  76.7275467  41.6121979  56.7332726  77.5343628
  41.1037292  56.6949654  76.1092377  79.0041351  10.6447687  18.8789406
  79.0120697   9.6876020  18.8783321  78.0865479  10.8767700  18.7359638
  64.1941376  12.9008102  65.9301987  63.3821754  13.3874626  65.7883530
  64.4328918  12.5751143  65.0623550  10.4617338  50.0642471  26.3300304
  10.0487709  50.6569061  25.7019768  11.3632526  49.9773445  26.0202847
  80.4191666  49.5975838  28.5029240  80.3599472  49.0367012  27.7295341
  80.9750443  50.3267250  28.2280025  10.8874006  57.0231209  40.1995811
  11.2461081  56.3168068  40.7368698  10.6562719  57.7078133  40.8272820
  57.5439148  48.8671036  53.6352425  57.9929161  48.2447395  54.2073364
  57.0058479  48.3207054  53.0623817  72.3165588  56.1234970  31.0813389
  72.2524261  55.1746483  31.1899853  71.6486664  56.3355980  30.4292984
  55.6957970  52.6466827  81.9304123  55.5343208  52.6187820  82.8734818
  56.0649872  51.7877388  81.7251129  16.0001354  71.4882736  67.9106827
  16.7434978  71.2903366  67.3410645  15.4560099  72.0842819  67.3959656
  61.3530579   3.8787401  69.0305252  62.2495995   3.5510964  69.1018753
  61.3906364   4.5284367  68.3285904  13.0962324   0.6719810  67.5035248
  13.4672766   0.7189401  66.6224213  12.5364122  -0.1042577  67.4866104
  82.6339493  31.9741783  76.8293839  83.3967667  32.5170631  76.6303482
  82.5836868  31.3553848  76.1008224  78.5485916  35.9636688   7.3651505
  79.2008209  36.1931267   6.7031956  78.6091537  36.6646500   8.0141430
  72.5108871  24.3822918  27.8575287  72.8941803  25.2269402  28.0939388
  71.5736771  24.4909840  28.0189362  85.0012131  62.9448967  30.5887680
  84.0917435  62.6655998  30.4835072  85.4779205  62.4700317  29.9079704
  42.4629135  65.6160431   1.8554415  41.7995796  65.2614059   2.4474359
  43.1912460  65.8562851   2.4281924  32.4059105   2.2268295  26.9583454
  31.6189728   2.5244234  27.4148502  33.1304016   2.5753241  27.4778614
   1.5686170  58.7261047  44.4572372   2.4527237  59.0925751  44.4403038
   1.0193744  59.4404716  44.7801018  82.9568787  43.0291748  28.0551167
  82.8613358  42.1320953  27.7351913  82.2082214  43.4966011  27.6846313
  66.8428116  12.4307489  22.0932236  67.3630219  11.9248133  22.7174397
  66.4344559  11.7715816  21.5319977  64.8923721   9.1784964  52.5821571
  64.2167282   8.6990099  52.1027565  64.4083710   9.6920538  53.2288628
  13.2297516   7.4047813  72.1127014  13.5284452   8.2240963  72.5073395
  13.5263681   7.4545255  71.2039795  66.1549301  58.1435852  34.0972786
  66.1822891  57.4696579  34.7764740  66.2453613  57.6599541  33.2762070
  68.7004776   8.6306629  72.6422272  68.8354950   8.8164940  73.5714645
  69.5395660   8.8396864  72.2317886  76.8635559  51.2422562  68.5326691
  76.5969086  51.9722710  69.0914230  77.8198318  51.2835808  68.5247192
  78.0935364  28.5440388  51.2118874  78.8428040  27.9509468  51.2672882
  77.9887619  28.8813305  52.1015434  28.4738369   9.7460890  14.6178789
  28.5427837  10.0376167  15.5269938  27.7893772   9.0771008  14.6321354
  46.2300987  11.9364243  71.6373291  45.3540154  11.5850849  71.7962875
  46.8226738  11.2521706  71.9485855  20.0315113   8.2402525  17.1993484
  20.0629082   7.7968173  16.3516407  20.9146614   8.1403866  17.5547447
  31.8611107  70.4733734  24.4387550  30.9404545  70.3790054  24.1943817
  31.9487934  71.3923721  24.6917019  51.9030571  15.2320576  72.3476257
  51.3107224  15.2343445  71.5957108  51.3992500  15.6421175  73.0506592
  45.2911873   1.1939507  67.1802216  45.5363693   1.1029803  66.2594376
  45.6596451   0.4187347  67.6039047  15.7088528   8.2220039  85.7210693
  16.0119572   7.3885717  86.0812759  16.4550114   8.5521383  85.2205811
  51.5112000  11.1507854  35.3363457  50.7050209  10.9305639  35.8030434
  52.1931801  11.1168509  36.0071526  63.0400238  68.4564514  68.3321991
  62.4499054  68.7204666  69.0380936  63.1138420  69.2337112  67.7784348
   7.4329858  42.9870644   1.0021955   6.4955511  42.9840965   1.1956886
   7.5465708  42.2892227   0.3569439  61.2962799  38.4289589  35.2181816
  61.9583321  38.9485550  34.7621765  61.1085129  38.9258232  36.0144882
  52.6894875  66.7053375   9.3481054  52.0952759  67.4557648   9.3480301
  52.1146660  65.9446716   9.4329796  38.5620308   3.4469614  49.2608604
  38.8903732   4.3459167  49.2782898  38.4262085   3.2236838  50.1816902
  85.5388412  33.1155396  11.4874496  86.0081787  32.2831879  11.5435638
  85.7442169  33.4478683  10.6136026  19.9462910  69.4195786  29.9124355
  20.0228977  70.2574997  30.3687897  20.8507977  69.1513824  29.7506657
  32.1992416  12.1235418  88.0190582  31.9420986  12.5075254  87.1808014
  33.1533165  12.1992321  88.0345535  69.1715317  34.3001060  65.6956100
  68.8060913  33.7791138  66.4106216  69.3440628  33.6650963  65.0004578
  22.6397038  58.6454239  70.1694641  23.4434223  59.1589394  70.2505112
  22.0037651  59.2537193  69.7929230  16.6474380  31.9966526  12.3402472
  16.8291683  32.1077728  11.4070492  17.1322250  31.2088966  12.5865250
  60.6206779  61.6125679  68.8681030  60.5348511  60.7023888  69.1517258
  59.7391510  61.8608170  68.5896835   5.1879315  20.9654427  30.3463116
   4.6104879  21.4813251  30.9090328   4.7229395  20.9112740  29.5113983
   5.7054453  63.4489822  71.0431747   5.9051476  64.3224411  70.7063904
   5.8285522  63.5232544  71.9895172  29.1495609  61.8904152   8.1563606
  29.9260197  61.4908829   7.7642884  28.4801369  61.2077370   8.1110430
  68.8465042  47.7844086  82.3346786  69.1911774  48.4646034  81.7560883
  69.1406174  46.9631500  81.9406433  75.8663864   8.8774557  30.1674576
  75.7409973   8.2345381  29.4694843  75.3917999   9.6525927  29.8671894
  11.7496061  50.2474327  57.3339691  12.2030382  50.2445450  58.1769524
  11.1735315  49.4838028  57.3692551  48.5266342  47.6778984  33.8280830
  48.7659378  48.4779930  34.2958565  49.3478394  47.1927299  33.7477074
   0.7815353  16.3572006  45.3265152   0.6424068  16.9309750  44.5730858
   0.9559678  15.4973631  44.9437866  13.3131723  50.8591537   3.9609530
  13.3426619  51.7450371   4.3222995  13.0736656  50.9829597   3.0425084
  38.8416748  44.7727585  21.4190941  39.7678375  44.6200294  21.2316685
  38.5841484  44.0345383  21.9713058  86.4581604  58.8232613  75.8441696
  86.0016251  59.6608429  75.7650223  86.4044418  58.6082573  76.7753601
  26.8099136  30.9493694  21.8921528  26.5933990  30.3195171  22.5796413
  26.0951366  30.8696308  21.2605152  70.8686981  59.7024765  58.2201996
  70.3839188  60.4117203  58.6423225  71.7678528  59.8090248  58.5306854
  50.2907410   3.4650581   2.5851297  49.8394394   2.7794905   3.0776284
  51.2203407   3.2612021   2.6876938  79.8432083  28.3090630  17.0554638
  80.7055817  28.0172310  17.3510666  79.2294083  27.7069588  17.4761219
  47.6660728  51.8974915  32.7478371  46.9834595  51.9622154  32.0799446
  48.4545517  51.6559677  32.2618370  80.3000870  20.0944252  67.5172195
  81.2499390  20.0245914  67.4216080  80.1747818  20.4955730  68.3772202
  30.2297421  55.8140984   7.3785896  29.8262119  55.0983658   6.8875442
  30.3842030  55.4494553   8.2500305  56.8218689  28.7455654  25.5298920
  57.6319809  28.9445057  25.9993362  56.8827057  27.8108864  25.3326397
  51.3325996  41.7391014   3.6141541  50.7292900  42.4467964   3.8409011
  50.9305496  40.9535713   3.9850078  34.1142349  69.3008423   5.6273079
  34.6261902  69.8395386   5.0240312  33.4102364  68.9404602   5.0881028
  34.3476868  20.3981323  15.7360172  34.2733765  20.9193687  14.9366274
  34.9358826  19.6806965  15.5003366   6.2254581   1.4679652   0.0551825
   7.0377498   1.4755068   0.5615002   6.3020163   0.6984900  -0.5089793
   6.0482531  12.1201792  62.8012276   5.1532784  12.4161034  62.6348495
   5.9594235  11.1877708  62.9986000  13.1860523  64.0277100  70.6011505
  12.7482996  63.7107124  69.8111420  13.9318838  63.4385414  70.7144928
   5.4159336  46.3038521  13.2523499   5.8626599  46.6345520  14.0316477
   5.5659533  45.3587112  13.2732382  15.0748348  21.8746300  82.7311935
  14.1242142  21.9126091  82.6257935  15.4104271  21.7679787  81.8411179
  32.4024734  70.1009674  86.1809921  31.6132202  69.5614319  86.2279968
  32.5886536  70.1719742  85.2447586  42.2076721   4.9445868  24.6551704
  42.9710236   4.3679581  24.6872368  41.7143669   4.6466265  23.8909054
   6.5179286  15.9107294  50.4700203   5.9381084  15.3055878  50.9324532
   5.9727139  16.6775589  50.2941093  16.9201641  43.3553123  28.4631233
  17.1613789  42.6426697  27.8713608  16.4416256  42.9261093  29.1723614
  73.7654648  26.7650852  68.4687271  73.8294144  26.5810890  67.5315552
  72.8472137  26.6003971  68.6830292  55.6873856  14.6040363  34.0700302
  56.4749107  14.0620499  34.1178284  55.4408379  14.7493477  34.9834480
  81.6368484   5.8054466  12.6237965  81.8816452   5.0864520  13.2063360
  81.5749054   6.5686221  13.1982164  11.3378048  36.2329330   9.5569649
  10.9562483  35.4100952   9.2510462  12.2158766  35.9940109   9.8538437
  81.4241180   6.5323544  48.1927910  82.2872849   6.7346387  48.5536919
  80.8449783   6.5110450  48.9546165  45.8538246  26.3790970  17.4776039
  45.8612938  25.5694809  16.9670181  45.0465698  26.3318119  17.9897881
  30.8759384  36.8531532  84.3164902  31.6819592  37.3687134  84.2888870
  31.1633072  35.9720154  84.5557480  54.9759483  20.0372448  70.9479980
  54.3597565  20.7607250  70.8334656  54.4598694  19.2519608  70.7657242
  85.8082733  13.0243320  25.1395493  84.9477692  12.6888390  24.8881168
  86.1976700  13.3244448  24.3182487   2.5203707  19.1841259  72.7314453
   2.8361967  19.3377113  73.6218948   2.8895783  18.3347797  72.4895248
  23.0867615  67.5113907  22.3268642  22.3818111  67.2228088  21.7472115
  23.0823040  68.4657059  22.2526894  20.2667789  35.7432137  14.8086491
  19.7135239  34.9854584  14.6190434  21.1019726  35.5415421  14.3867321
  36.7109680   4.7714376   5.6029348  36.5695114   5.1350675   6.4770031
  37.6317177   4.9526863   5.4142518   0.8859339   2.9787426  85.3335037
   0.5618955   3.1777644  84.4550781   1.8057655   3.2429411  85.3150406
  17.3575058  61.4108734  38.1210518  16.4720688  61.2019615  37.8234138
  17.2301044  62.0519943  38.8203125  76.6554413  16.0489578  27.4741211
  76.5035858  15.1957798  27.8806419  76.1479492  16.6616211  28.0064049
   9.4123278  56.6174355  82.3216095   8.9080706  55.8040466  82.3404846
  10.2967215  56.3569908  82.5789948  11.8569918  14.8113871  12.3879471
  12.2634373  14.8078356  13.2545624  12.4494848  14.2930765  11.8433943
  73.3350906  21.2720470  61.3544960  74.0007629  21.6312504  61.9410858
  72.6294937  21.9187069  61.3683929   4.8579726   3.0406384  69.3767624
   4.8665366   2.4792361  70.1519928   4.7506542   2.4348097  68.6434860
   7.7584758  64.6924973  43.6341629   7.9156322  63.7845650  43.8933754
   6.9053645  64.6735229  43.2004890  66.0741501  25.2727108  80.5348663
  65.6658859  26.0149689  80.0892105  65.4745865  25.0642166  81.2513046
  11.9108210  23.2853489  50.8859749  12.2107620  24.1520844  50.6120415
  12.3763027  22.6780071  50.3109131   4.5729694  24.5143681  42.2566872
   3.8636675  24.0475445  42.6984978   4.5221624  25.4067707  42.5991325
  78.6391144  48.1268082  72.6442413  79.5489120  47.9882812  72.9074936
  78.6870804  48.7919998  71.9576111  49.6795197  57.8265457  82.8651657
  49.2251549  58.5857201  83.2304535  50.4336128  57.6989326  83.4407425
  51.6388092  59.0297394  34.0930023  50.7353668  58.7167473  34.0475845
  51.6685333  59.5609627  34.8887100  54.8881645  67.1295166  58.0660362
  55.3643532  66.5195465  57.5026398  54.0934906  67.3384781  57.5750618
  26.2583027  45.7134819  75.6354752  27.1848545  45.7482071  75.3977127
  25.8009605  46.0558434  74.8674469  11.2619038  15.3225613   7.0040512
  11.3616486  14.3873377   7.1819239  11.4974470  15.7494850   7.8277550
  77.3070297  59.7643356  18.8271255  77.1027985  60.0923233  19.7028809
  78.2506256  59.8966827  18.7358227  75.2803421  19.4683990  89.4189224
  75.9510727  19.7145996  88.7819443  74.8362961  18.7192230  89.0216980
  18.2792225  33.8169861  47.8668251  18.5819721  34.6783257  47.5792999
  18.5727386  33.2183762  47.1799927  16.2323780   5.3811560  70.7539825
  16.7716198   6.1561952  70.5966110  16.7933178   4.7991772  71.2667007
  65.0526962  55.7544975  47.6122780  64.9632721  55.8101234  48.5636673
  65.7742310  56.3481483  47.4044113  50.5875587  12.2676077  41.3478203
  49.6744423  12.5086823  41.5038033  50.9120598  12.9361067  40.7444611
   3.5347016  49.0523300  34.3593330   3.3289592  49.9368553  34.6618500
   4.2966709  49.1647453  33.7910080   5.9512539  71.5103226  56.2017822
   5.6462746  71.7345734  55.3226166   5.7768855  70.5727310  56.2838936
  14.8770456  68.4851074  55.9242783  14.2715759  68.0817719  55.3022156
  14.3358793  68.6898499  56.6868095   5.5508103  12.3312140  69.9821014
   5.1758375  11.7170200  69.3509140   5.4649749  11.8889666  70.8266602
  15.0858603   5.6518812  19.7453938  14.3595009   5.0914874  19.4722767
  15.8575144   5.0883284  19.6889114   1.6538864  15.9794836  24.0895901
   1.3372033  15.7564478  24.9649162   2.5536292  16.2751083  24.2285175
   8.4188461  64.7370300  81.5452881   8.3770561  64.5112686  80.6160278
   7.6739998  64.2804718  81.9364166   2.7979989   5.7902265  87.9310837
   1.9731277   6.2479882  87.7689896   3.4430561   6.4893970  88.0373535
  54.0108910  63.2310486  56.7770233  53.1530151  63.6346779  56.9088058
  54.2115593  62.8157196  57.6157494  26.7279301  66.5834427  45.5529823
  26.0230789  66.7386246  44.9242287  26.2880573  66.5500259  46.4024696
  53.8698845   1.8641052  66.3678665  52.9137268   1.8482121  66.4095688
  54.0823822   1.3921943  65.5626450  48.8008766  68.6127167  19.3196449
  48.9189682  67.6899414  19.5449905  48.4586525  68.5990906  18.4258156
  59.8202095  26.4656429  88.7065887  59.5421448  25.9844284  89.4859161
  59.4609871  25.9642258  87.9746246   1.5667530  55.6937447  21.8284836
   1.1370921  55.5716362  20.9818935   1.1652012  56.4842987  22.1890583
  61.2809105  44.6830559  57.6901817  60.8421936  44.0115166  57.1678848
  60.6033859  45.3387909  57.8551216  76.3688126  59.9236183  74.6034927
  76.5410767  60.6982956  74.0683060  77.2373123  59.5953903  74.8363113
  13.6791153  37.3058739  13.2706079  12.8601151  36.8712921  13.0326843
  13.8581257  37.0078087  14.1624279   9.3887377  39.1816101  52.6729393
   9.0103979  39.6937141  53.3876686   9.6046095  38.3381805  53.0707588
  72.7167206  64.3154907   3.1136262  72.1733475  63.5659180   3.3567758
  72.1510391  65.0755615   3.2497458  22.3013229  16.0391178  81.0712128
  23.0309486  15.4614296  81.2951660  21.8940659  16.2475548  81.9120026
  68.5026779   5.8976007  88.9299240  68.8565903   6.3456750  88.1616745
  68.5011597   4.9715934  88.6875610  74.5896683  16.9353333  10.1055155
  75.5222931  16.7316647  10.1759348  74.4881210  17.7601852  10.5804243
  63.6860504  30.5388184  54.9173470  64.1370239  29.7893887  55.3062057
  63.2484436  30.1806717  54.1450348  20.4318428  28.8108864  69.4416275
  20.7579746  28.0493565  69.9211502  20.2725277  29.4694519  70.1177521
   1.7606746  13.1208582  34.2953873   1.9966590  13.6637697  33.5431976
   0.8116084  13.0166559  34.2272186   7.1708279  63.7186813  88.7824478
   7.9202175  63.3253860  88.3352737   6.7565460  62.9888306  89.2427902
  21.9843140  53.8530579  63.8711166  21.6003952  52.9827881  63.7640152
  21.9352150  54.0223694  64.8119431  10.5119295  34.7932358  15.2585230
  10.4636269  35.1359177  16.1509724   9.6813231  35.0500565  14.8580627
  80.9635162  63.2756882   6.0474815  81.0541763  64.0606308   6.5877390
  80.7561188  62.5789604   6.6702094  28.1023808  53.0050621  61.7113457
  28.0466766  53.3870506  62.5872536  29.0407829  52.9643898  61.5270195
  83.0785828  30.8646698  60.2461777  83.2743607  30.6105938  59.3443184
  83.4817200  30.1805210  60.7806396  55.0969124  14.9857483   1.7419994
  55.2243843  15.4200077   2.5854456  55.9706421  14.9588480   1.3519880
  56.9579506  17.8491631  42.8805313  57.3668785  18.6383858  42.5253716
  56.8683662  17.2659245  42.1268501  26.3584728  66.4885254  58.8580818
  26.2618046  66.5350723  57.9069138  27.3041534  66.4503708  59.0011330
  33.2002487  65.1099625  30.9383945  32.5666924  64.7909317  31.5810909
  33.9282913  64.4908447  30.9920406  73.2634430  69.2263718  69.3962250
  72.4664917  69.7086411  69.1759567  73.0864563  68.3292618  69.1132126
  50.3929291  49.8986855  88.6775436  49.9652290  50.7299194  88.4717407
  50.8689499  50.0690346  89.4903259  13.2582483   3.7870631   8.9549532
  13.9400921   4.3863606   8.6513691  12.9460020   4.1740851   9.7728453
  68.6235580  18.3727932  21.3533974  69.0208893  18.9443798  22.0103970
  67.8889618  18.8797894  21.0076199  36.3385391  69.9919739  37.7307358
  36.4972191  70.9357071  37.7099304  35.7741776  69.8607330  38.4926453
  14.0876713  51.8388100  33.6001472  13.2568703  51.3680954  33.6667023
  14.7502728  51.1898499  33.8368874  28.8668213  39.9587860   8.6190920
  28.0349770  40.4323196   8.6249952  28.7356720  39.2365875   9.2334690
  46.0589714   5.5767217  63.6530914  45.2697144   5.8908162  64.0942841
  46.6350632   6.3404465  63.6203270  56.3694458   4.9663653  85.8233414
  56.4745255   5.6381855  86.4970245  57.1813660   5.0050168  85.3178406
   7.8531795  43.8555183  10.6551695   7.3319321  43.9368210   9.8564692
   8.6871843  44.2733307  10.4404545  77.0559464  15.6889648  59.1667290
  77.6300583  15.2135229  58.5662422  77.6327286  15.9710026  59.8766632
  23.3725967  17.6029911  60.9683266  23.2083912  18.5169716  61.2005043
  24.2821102  17.5912876  60.6702003  85.4858627  22.8258324  80.3683929
  85.2411728  22.1066418  80.9507446  84.8224411  23.4976749  80.5256805
  31.4259205  35.2016182  35.3071938  31.5607548  34.9399986  36.2180214
  30.6025944  34.7823982  35.0569534  60.5426979  60.6642151  81.3999023
  61.0294456  59.8604927  81.5824966  61.2155800  61.3043060  81.1680756
  57.5229149  67.0904312  77.4573288  57.6321068  66.6015396  76.6416702
  58.0487518  66.6099777  78.0967789  54.9885864  34.7853165  83.0179138
  55.9178085  35.0045738  83.0864792  54.7640724  34.4231453  83.8750381
  26.0579777   3.6856856  84.9394836  26.3446026   3.8693719  85.8340988
  26.5202045   2.8824084  84.7000580  22.3088055  55.7740517  23.9394722
  21.3897762  55.5074463  23.9163303  22.7023067  55.2190742  24.6128120
  11.6506615  27.8341408   8.3804398  11.5605621  28.2577286   7.5268078
  11.8702955  28.5474339   8.9797773  53.7444000  37.3702049  32.9439278
  53.2004089  37.5119324  32.1691895  53.1885262  36.8657684  33.5378799
  36.4055748  50.9406471  15.6011152  36.6386986  51.0868568  16.5179081
  36.2484131  49.9983330  15.5412922  17.4207306  59.6232719  19.7777843
  17.9747925  58.9056816  20.0848885  18.0325222  60.2495117  19.3907890
  35.8171196  19.3439636  20.1361313  34.9718742  19.6889782  20.4238091
  35.8006973  19.4337330  19.1832905  17.5738125  68.0583572  37.1520805
  17.9969234  67.3622971  37.6547890  18.0839806  68.1142960  36.3441048
   2.1030333  40.1403084  88.3906250   2.6384754  40.7724075  88.8701935
   2.7369676  39.5542259  87.9772720  46.0039902  14.5022860  85.7724075
  45.2510681  14.9593515  85.3976669  46.0794182  13.7006140  85.2548523
  46.4740791  60.5770798  45.7064972  46.1496735  61.4776306  45.7063408
  46.8421783  60.4552536  46.5816498  13.4298754  25.5606651  49.7000656
  14.1785021  26.0002098  50.1032906  13.5961723  25.6189480  48.7592239
  64.9712677  13.9772797  27.6549454  65.5881195  14.6783447  27.4446144
  65.4138870  13.1764727  27.3738232  56.1392632  15.2908993  82.8747559
  56.1308746  15.5471315  81.9525223  55.2152023  15.2555170  83.1219177
  61.5504875  64.2001572   8.6628942  61.3273010  64.1217194   7.7353873
  61.1612206  63.4258156   9.0692244  60.7362938  33.6803627  41.0872307
  59.8923225  33.9081039  41.4771996  60.6905556  32.7336998  40.9531975
  77.5688934  13.1296768  74.9590912  77.9018478  12.2850580  74.6557999
  76.6262589  12.9946289  75.0562439  83.1036148  12.9087543  51.9083214
  82.9066391  13.4517345  52.6716080  84.0552750  12.9584064  51.8182335
  33.2710991   8.8401365  80.9719925  33.4759865   8.6732578  81.8919907
  33.6493912   8.0960188  80.5035706  22.8609676  51.4524040  86.9809418
  23.6885128  51.4314041  86.5003586  23.0476723  51.9816513  87.7563553
  44.9473495  45.1996346  34.5709419  44.8261261  44.7016335  35.3793526
  44.0622101  45.3137169  34.2248955  77.4786530   0.4657113  20.4345093
  77.2455826  -0.1528415  21.1268253  78.2683182   0.8999377  20.7571602
   2.9154315  48.0626411  46.7733650   2.3248837  47.9077415  47.5105858
   2.5194283  47.5846252  46.0447273  18.4499397  46.9817696  12.1442127
  18.5652962  46.0469780  12.3147669  18.2658825  47.0331841  11.2062836
  63.1999397  32.3967247   9.3587255  63.8986244  31.8999233   8.9329777
  62.8143654  31.7814445   9.9824209  31.9169445  39.1443138  20.7957573
  31.8904896  38.1921959  20.7008915  31.1431675  39.4535370  20.3247166
  78.0216904  17.2637939  69.1584930  77.4642792  16.5195007  68.9314423
  77.4447632  17.8571892  69.6393967  76.3630142  10.5339603  18.3714237
  75.9967270  10.1129293  19.1491108  75.9898148  11.4153843  18.3780403
  40.3929024  39.8284988  26.2849751  40.6803589  39.5856400  27.1651001
  41.2034416  40.0152626  25.8112946  73.9200134  23.5208473  78.6944122
  74.0352707  23.0813980  77.8518982  74.3452301  24.3709259  78.5813065
  54.5836830   9.9438696  30.6238823  55.2346573  10.6397266  30.5330677
  55.0987625   9.1382570  30.6676273  84.4365997  38.0147705  25.0058041
  84.4545898  38.9549522  24.8269997  85.1676331  37.6606331  24.4994335
  26.5092354   2.4265153  30.8647766  26.0803127   1.8045907  31.4525394
  25.8344021   2.6571705  30.2263184  35.2830124  18.0087509  27.2375736
  34.4151268  17.8084412  26.8870258  35.2458267  18.9411449  27.4508553
  72.3533173   3.7180781  61.9453545  73.0172958   3.8316774  62.6254005
  72.3902740   4.5281758  61.4368210  81.3559341  18.7883224  25.8872166
  80.6435013  18.3850365  26.3832359  80.9171066  19.2675457  25.1843586
  82.5196991  54.3403435  -0.0057678  82.9022598  54.4363747   0.8663886
  83.1470871  54.7652740  -0.5906185  45.7416801  15.3801174  18.9625721
  46.1932449  14.6636267  19.4086227  45.3622627  15.9014072  19.6700535
  52.2293587   8.6622028  33.8848190  51.5058060   8.0394564  33.9547501
  52.1138496   9.2485189  34.6325645  58.0998993  61.0482140  50.1356964
  58.1286583  60.0957680  50.0448303  58.9887657  61.3356628  49.9270821
  71.5555573  65.5849304  62.6030617  72.3828659  65.9633942  62.9006386
  70.8886948  66.2051086  62.8978577  31.8718014  26.7080479  22.2303734
  31.8620758  27.4163857  21.5866394  32.4085579  26.0255737  21.8274403
  29.0281792  65.8579712  38.4542389  29.8245277  65.9394760  37.9294357
  29.0903797  64.9888763  38.8505058   4.6180220  62.5118790   0.6239022
   4.5914173  63.0913582   1.3853018   4.1454420  62.9899292  -0.0575439
  81.5013657   8.9159365   8.9156055  81.2709198   8.1761770   8.3535728
  81.2523880   8.6345453   9.7959805  61.6401329  22.6213760  80.0666199
  61.6969566  23.5200844  79.7420883  62.2990646  22.5747604  80.7593460
  21.5362110  32.3998642  75.5409698  22.0931072  31.7411194  75.1260529
  21.0568848  32.7997398  74.8153152  50.3941078  65.0404129  31.5920887
  49.8819695  64.3565521  31.1604881  49.7419167  65.5891342  32.0277328
  23.0261936  44.2063293  22.7228470  23.5805092  43.7805214  22.0688934
  22.6384869  43.4831276  23.2156887  74.2381516  66.2063446  66.3492203
  75.1673889  66.3723221  66.1905060  73.8164291  66.3816757  65.5080109
   0.8873761  34.6681404  24.1201134   1.6365753  34.9438629  23.5919914
   0.6042364  33.8446846  23.7226448  21.0923748  51.9800186  29.2239685
  21.7838688  51.9770050  28.5621071  20.5761471  52.7617607  29.0274563
  83.9875641  41.4493408  34.1807671  84.3093872  40.6494942  34.5965881
  84.6255112  41.6343460  33.4915466  77.5095291   7.0511117  17.6782417
  76.7392502   6.7220201  18.1414928  77.5778046   6.4952364  16.9019871
  71.4667969  69.1557236  86.9633560  72.0335007  68.3874893  87.0333557
  70.8781128  69.0883942  87.7151260  59.3247757  38.8703194   8.2107992
  59.6417961  38.3150787   7.4984546  60.0621262  39.4467468   8.4114885
  74.5111542  65.1773148  24.2303944  74.9722214  65.8719101  23.7600880
  73.6703568  65.1000519  23.7794743  82.5597610  22.8825817  34.3199577
  82.7899628  22.0778255  34.7842903  82.2547073  23.4761314  35.0061607
  29.8039761  54.7154312  31.9506035  30.6464558  54.7955360  31.5033417
  29.8735752  55.3066368  32.7001762  76.4394455  57.0379333  73.0311508
  77.0858002  56.7810707  72.3735275  76.9585342  57.2519836  73.8063660
   9.4419012  39.6718216  17.7749901   9.3462820  40.5948486  18.0097504
  10.3566856  39.5865135  17.5064316  60.1870613  30.9093533  64.1889954
  60.0167961  30.0571003  63.7878685  60.0935669  31.5351086  63.4707222
  76.0371780  54.8992043  33.5882797  76.6374588  55.5316391  33.1934128
  76.2218857  54.0774422  33.1335030  20.6216602  55.5586319  60.8391762
  19.8010559  55.1429596  60.5744896  21.2902584  55.1309776  60.3040848
  70.9483643  69.4461670  27.2038212  70.5967636  69.2975464  26.3260269
  71.1570282  70.3801422  27.2232857  70.6736679  53.7256279   9.0789356
  71.1347198  54.4124527   9.5605259  70.9757614  52.9095116   9.4775839
  44.6745758   0.4269210   4.1318393  45.0106125   0.4643737   3.2363455
  43.7233047   0.4649282   4.0324788  53.6281395  55.9558601  44.0298462
  54.5053787  56.1448059  43.6967087  53.7591209  55.7757301  44.9607735
  46.1143188  65.1918106  41.8096199  45.5774498  65.0341034  41.0330048
  46.9371986  64.7377396  41.6281815  25.3844814  57.5283279  59.6437492
  25.0646648  58.2132988  60.2309151  25.6995411  58.0010948  58.8733864
   5.6858754  51.5391350  21.2441940   5.2659359  51.7078743  22.0876446
   5.5476961  50.6045036  21.0905628  11.2227726  59.0251465  42.3273888
  11.0006647  59.5054703  43.1250038  12.1536198  58.8227158  42.4210663
   4.9108248  65.8233490  27.7778168   4.5517907  66.5655212  27.2915058
   4.4908457  65.0562744  27.3886490  67.6321259  46.9300766  35.6902733
  67.5051117  47.8677177  35.5456047  67.7196350  46.8438873  36.6395607
  83.1436768  64.7576675  49.1195679  83.1371765  65.2972946  49.9101295
  83.7230988  65.2232971  48.5165024  30.9341316   7.2003298  66.9041519
  30.3433666   7.7911377  66.4370651  31.5063190   6.8462172  66.2233963
   6.4050870  45.5269318  67.0323410   7.2424040  45.7557755  67.4357834
   5.9438038  46.3614082  66.9481049  50.5856438  62.8477631  43.8647957
  50.3810539  62.9911423  42.9407730  51.0303802  63.6498299  44.1388931
  77.8716660  34.8797646  49.7787399  77.0696106  34.3666000  49.8766861
  78.3629074  34.4277916  49.0927086  19.5622292  10.1217871  70.5882034
  18.6420479  10.3798313  70.6421585  20.0130692  10.7154760  71.1886292
  55.8352966  48.5535812  32.3157730  55.0915337  48.2976799  32.8612671
  55.9436378  49.4899101  32.4824638  26.1612644  59.4067802   8.9464273
  26.4349098  59.0553398   9.7936802  26.2362156  58.6663246   8.3444834
  16.5921993   1.9277571  23.6329575  15.8566465   2.3419020  24.0842648
  16.5138531   2.2234337  22.7259464  85.3315125  14.2461119  28.0713940
  84.6358490  13.6522341  27.7892666  85.0116425  15.1176252  27.8382034
  49.3760490  56.3323631  75.8410263  49.5024414  57.2643929  76.0187225
  49.0897980  55.9657097  76.6776047   6.3544650  65.9583588  51.3635864
   7.0257878  66.4089813  50.8512421   6.8470798  65.4215469  51.9843903
  49.7296371  13.1486950  37.3417206  50.0113335  12.5810871  38.0591431
  50.4860649  13.7090998  37.1685257  44.4862785  33.9038620   2.9985285
  44.4318771  33.7016830   3.9325495  45.4248772  33.9215088   2.8115640
  60.3879852  26.0279922  65.5740128  60.4355431  26.9255714  65.2448883
  60.4499931  25.4819183  64.7903061  25.9258728  29.2983036   2.0309951
  26.0122433  28.4225178   2.4075201  26.8021221  29.6769772   2.1018939
  25.4571438  34.6296692  13.1487617  26.3354950  35.0099869  13.1393442
  25.4947968  33.9567299  13.8284435   2.0822308  69.5946884  21.7846661
   2.7707586  69.7623749  22.4281292   1.9650815  70.4318466  21.3355732
  35.6816940  19.4971962   3.7367465  36.1772614  18.8197594   3.2766097
  36.2838974  19.8212185   4.4065170   8.6892452   2.0606041  57.1687050
   8.1738577   1.4225460  56.6752586   8.0524673   2.7186289  57.4475403
  52.0484657  46.6599617  82.3171616  52.6346359  47.3989525  82.1542892
  51.5831413  46.5364838  81.4898376  80.6362152  23.2697716   9.5809202
  79.8762741  23.8339214   9.7239380  81.1226196  23.3098526  10.4043512
  59.8062210  16.9289093  27.9076481  59.3556442  17.4654598  27.2554760
  60.4005432  16.3795204  27.3965836  34.9413147  63.1760406  28.3254299
  35.1839485  62.4052963  28.8385735  35.6391449  63.2606201  27.6757298
  37.5309563  21.5574341  27.3993073  38.3422775  21.0934830  27.1925755
  37.5590439  21.6777458  28.3485012  80.5229492  14.4570341  81.7472076
  79.8989792  15.0443497  82.1737671  80.2140884  14.3950186  80.8433380
  83.6990280  24.2720928  73.2880249  83.0403214  24.3470688  73.9784775
  84.5362549  24.3172283  73.7498093  66.8457336  65.0726318  63.9022179
  66.4386063  65.9315414  63.7892723  66.1118851  64.4785767  64.0596848
   6.1676202  58.6967049  75.7445908   7.0168948  58.2945099  75.5623779
   5.6678734  58.0108490  76.1874084  80.1945648   0.3957351  57.4056549
  80.5083237   0.0213233  58.2288208  79.7193527   1.1844616  57.6670227
  59.9647675  32.0119324  68.2380524  60.5433121  31.9111671  68.9939346
  60.3828812  31.4991074  67.5463715  10.5944929  47.7188606  61.1011810
  11.1623030  46.9955482  60.8353882  11.1957941  48.3867798  61.4306526
  70.5077515  38.5739212  45.0245972  70.7494659  38.8183250  44.1312485
  69.6486359  38.1612701  44.9358864   9.2512665  19.8439293  44.4043732
   8.4267511  20.1798210  44.7559204   8.9869413  19.1937828  43.7534714
  68.0537720  33.1709938  44.9212799  67.5062332  33.8464546  45.3215179
  68.8434448  33.6357498  44.6444283  77.9979858  39.7584038  68.4573669
  77.8912735  39.1383743  67.7359772  78.6578293  39.3568497  69.0226974
  52.9761009  44.3799858   9.6851435  52.1311874  44.5499687   9.2686596
  52.9046478  44.7891121  10.5475483  72.3163223   3.7645586  37.8283234
  72.4828796   4.5324140  37.2816200  71.4962082   3.4039199  37.4912949
  12.3963022  68.5709152  36.0651894  11.7757483  68.4739227  35.3428726
  13.2492390  68.6536331  35.6387024   2.0877421  61.2824554  48.0393028
   1.3159636  60.8641129  48.4208488   2.6215103  61.5333519  48.7932091
  13.7936163  32.3694649  72.8323898  12.8409653  32.3896751  72.9233856
  14.1090679  33.0057678  73.4741364  62.2311554  60.2013245   0.0022105
  61.3009109  60.4192200  -0.0561303  62.6118736  60.9124985   0.5174924
  15.2446785  28.7816658  11.2943993  16.0619564  28.3124847  11.4622078
  14.7893715  28.2451153  10.6455221  74.8817749  25.9408722  13.2272081
  75.0472794  25.0818748  13.6157484  75.2349319  26.5633297  13.8628607
  44.1491089  70.1289825   6.4039140  44.6082802  70.7959518   5.8934793
  43.3569183  69.9444580   5.8993187  53.5491066  29.4120140  88.9231720
  53.6112099  29.8997936  89.7444153  52.7370834  29.7213173  88.5216980
  36.5428391  55.1416359  81.6607895  35.9689713  54.4329300  81.9517212
  36.2553368  55.9040985  82.1630096  44.6804733  22.7281456  35.3344002
  45.5728035  22.9681168  35.5841827  44.5586014  21.8500900  35.6955070
  86.5929947  37.1157188  33.1315727  85.9936600  37.7317085  32.7101593
  87.0888901  37.6502762  33.7517090  12.5295706   1.9343343  55.8841248
  12.3931150   1.0767974  55.4813309  13.4088907   2.1918540  55.6071587
  15.3536148  65.4239960  50.8712654  16.2178822  65.6849136  50.5531540
  15.4750633  64.5288010  51.1876755   8.7458391  64.4093094  72.5837326
   9.1445484  65.0084229  73.2148666   8.1286898  63.8921242  73.1012955
  70.6376114  14.8657360  58.3541298  70.3114090  14.0051517  58.6172218
  69.8830795  15.2947865  57.9506187   4.3983531  14.8009968  29.4756947
   3.8343339  14.1241283  29.1015759   4.8440595  15.1855021  28.7208881
  75.4173203  30.5167141  44.8328247  75.6533813  31.4396477  44.7395668
  75.6549225  30.2985973  45.7340469  38.9175415   8.4242611  57.6064720
  38.7295380   7.7030034  57.0059128  39.2996597   9.1043749  57.0517960
  57.4085236  55.8550797  32.4492378  56.5513344  56.2400322  32.2668381
  57.8752899  55.9035873  31.6149673  32.7124329   2.2636316  51.9309311
  33.5882416   2.0542021  52.2554779  32.4910202   3.0919280  52.3565292
  11.0730762  65.6225967  55.5199242  11.7905350  65.3898010  54.9306107
  11.4821329  66.1687469  56.1912117  58.2392540  23.1725063  84.2491684
  57.5088539  22.6264000  84.5398788  58.3957787  22.9014282  83.3445969
   6.6713147  34.8492355  80.8322296   6.8657417  35.6642075  81.2951050
   6.2193484  35.1280632  80.0358505  64.1649628  60.1077957  80.4388428
  63.7289085  60.9399948  80.6219635  64.9875870  60.1561813  80.9258499
   1.1506046  40.8579102  66.7642517   0.9068924  40.6338577  65.8661194
   0.3785782  41.2987404  67.1190338  13.3096962  32.2247467  26.8644466
  13.4309282  32.0858574  25.9251671  14.1570606  32.5485229  27.1700191
   7.7651205  27.9983559  32.1835403   7.5504961  27.6190453  31.3313122
   7.4206643  27.3705616  32.8187218  60.0903511   5.8968883  38.1097260
  59.6980324   5.3348584  38.7778893  59.8048134   5.5165625  37.2790337
  14.7726231   7.4988699  69.9277573  15.1348133   6.8048525  70.4785614
  15.4024086   7.5904169  69.2127533  45.3545532  52.6486473  46.8852005
  44.6214371  53.2519455  46.7635345  44.9681931  51.7787437  46.7840843
  79.0304260  11.1293468  64.5477905  78.3925476  10.7007055  65.1184006
  78.6164780  11.1313019  63.6847267  75.5887604  42.3603401  86.6741943
  75.2046127  43.2306824  86.5685120  76.1989212  42.4550514  87.4056168
   2.1887596  61.1345406  72.2649384   2.2766702  60.4313698  72.9084091
   2.3478379  61.9362907  72.7630539   3.0863180  36.3752670  85.7272263
   3.7022736  35.6460953  85.7989349   2.7917347  36.3512993  84.8167953
   2.9459338  58.8375778  86.4202499   2.3844876  58.2786751  86.9575043
   2.8046746  59.7198067  86.7636871   6.7509370  56.2479172  47.5401802
   7.6307416  55.9898872  47.8151283   6.3559861  56.6266289  48.3255615
  52.3713722  19.1566181  13.3499613  51.4294739  19.0796928  13.5020695
  52.5990601  18.3697720  12.8547173  22.2083263  51.9712067  11.6092606
  22.3407383  52.0363541  10.6635036  21.9140720  51.0710602  11.7484694
  75.6982574  62.3554916  41.9851608  75.4095917  62.1789932  42.8805656
  75.3000259  63.1980934  41.7668266  22.7002029   6.5028243  50.2400551
  23.5494595   6.1193862  50.0210381  22.0705376   6.0027308  49.7207680
  75.3961563  18.7938194  60.3116531  74.5448456  18.8289642  60.7478409
  75.2148132  18.3857479  59.4650002  69.5758667  65.3710403   9.2202625
  69.7458801  66.1714935   8.7236671  69.2793732  65.6789474  10.0767193
  62.8002815  57.1818886  11.8667736  63.3450241  56.4186058  11.6746979
  61.9655418  56.8136482  12.1563196  44.7938423  35.8116302  18.8109379
  44.2911949  36.6156044  18.6797638  45.6587677  36.0085487  18.4512768
  19.7795658  64.6692123  60.8471985  20.3137341  64.4476013  61.6099472
  20.0599079  64.0523605  60.1710777  13.8606300  47.7361717  40.8125267
  14.7491026  47.8379097  41.1538467  13.8058338  46.8150520  40.5580368
  68.6538849   0.1208519  35.6472359  68.1199112   0.6103196  36.2729530
  69.0108337  -0.6076258  36.1553078  57.4911766   7.3946142  47.2966347
  56.6800385   6.8982711  47.1873856  58.1738701   6.7267394  47.3606873
   5.0030580  41.9273071  80.2838821   5.0294142  41.0129395  80.0019913
   4.8173995  42.4192734  79.4840469  48.6327477  70.0114059  25.8041286
  49.2781258  70.1333771  25.1078243  48.8139267  70.7171021  26.4249306
  26.6564026  35.2510910   5.3679605  27.4894295  35.6950798   5.5266204
  26.9011154  34.4236717   4.9535646  20.0694542  51.9682274  84.2991486
  20.5924931  51.2194633  84.0127640  20.1441059  51.9615669  85.2534103
   8.1756592   6.2831435  60.8729935   7.2623730   6.5176249  61.0377922
   8.5509729   6.1549463  61.7441635  71.1955414  63.9521790  50.8817482
  71.2872620  64.0800171  49.9375687  71.7530212  63.1989021  51.0767288
  20.0899124  69.0761948  66.3856049  19.8544655  68.2681503  65.9296875
  20.2097015  68.8105698  67.2973785  69.3222656  34.8299103  47.4186821
  69.4555283  34.7916565  46.4715767  69.7361755  35.6506004  47.6858406
  64.3989487  44.5368309  30.5883675  63.9064369  43.7671700  30.3032589
  64.5653610  44.3836746  31.5184631  23.9646721   1.4782618  36.0327682
  24.2047863   0.6295254  35.6609840  23.0491199   1.3755959  36.2924881
  68.8897934   1.1112297  61.1208305  69.7483978   1.3436146  61.4744225
  69.0278244   0.2663986  60.6925316   6.7447314  60.8828125  34.7546844
   5.8427663  60.6374168  34.9607697   6.6753597  61.7644386  34.3884163
  13.0299320  12.1302204  64.6171951  13.4893799  11.6062365  65.2733841
  12.1061554  11.9116716  64.7401047  55.7364082  66.7255783   2.1472876
  54.9858437  66.2089539   1.8540571  56.2159653  66.1400299   2.7332835
  65.1561737   9.2034826  72.4725342  64.8832245  10.0945377  72.6910553
  65.2585144   8.7697878  73.3196869  12.3055248  15.8537121  73.3626785
  12.1310921  14.9126196  73.3749313  12.6448917  16.0229778  72.4838104
  67.1495972  24.2137680  47.9158173  66.7355957  25.0463943  47.6887207
  67.9915848  24.4612961  48.2979317  11.2218904  67.8493042  24.1776066
  10.6063147  67.6457443  24.8817806  12.0750294  67.8903503  24.6096973
  28.1580925  70.5897369  29.6060658  27.3689690  70.8933716  30.0547562
  28.2872524  71.2190018  28.8964348  19.9615631  11.1451693  84.2240601
  20.8638382  11.4155045  84.0536194  19.4278507  11.8610945  83.8793335
  65.6769714   2.2162979  39.4912224  64.9113998   1.7640703  39.1367912
  66.1882248   1.5263439  39.9140930   1.9923357  45.5597458   9.7984495
   2.4654546  46.3918381   9.7946424   2.1211567  45.2150192  10.6820793
   3.5940094  17.2778721  43.4357605   3.5099370  16.3920918  43.0828323
   2.7420998  17.6826153  43.2724648  43.2002220  48.3526382  44.0925522
  42.2989273  48.3539848  43.7702141  43.6523895  47.7178650  43.5368195
  52.4762115  12.8802710  12.5686941  52.8406677  12.1109943  13.0064344
  51.7238884  12.5445414  12.0813265  59.1596565  69.1764984  60.1785507
  58.8632317  69.8316040  60.8103752  59.4208260  68.4277191  60.7145996
   4.2170072  26.7040558  48.7328262   4.6179266  26.9319935  47.8940544
   4.0739288  25.7590313  48.6809540  57.5689507  21.4340668   2.6072087
  58.1469269  22.1701660   2.4063876  56.7321587  21.8409405   2.8318596
  86.6709900  14.0619078   6.1741085  86.1917496  14.2697563   5.3720102
  86.6818390  14.8828669   6.6661854  77.3073502   0.6516228  33.6758766
  77.1524277   0.9385265  34.5758286  77.6318512  -0.2446955  33.7627335
   8.8892775  66.1579361  86.6511154   9.5450926  66.3950882  85.9954529
   8.3942566  66.9640656  86.7972183  81.0230331  64.6438065  60.1666679
  80.7615814  64.4639816  61.0697403  80.2639771  65.0802917  59.7799568
   1.9461868  58.6062508  81.1291504   2.8610766  58.6121941  80.8477707
   1.9754431  58.8833084  82.0449066  86.1713257  65.3973160  29.8234978
  85.8489914  64.5742645  30.1907959  87.0528946  65.4916229  30.1842937
  85.4113312  28.2166519  44.8109055  85.1780853  29.0988998  44.5219994
  85.3810043  27.6877193  44.0136948   6.6455731  33.3489799  43.5060234
   5.7834940  33.6975937  43.2790413   7.2520576  33.8179398  42.9328842
  36.4866943  49.7322884  33.4700623  36.7007332  49.1898956  34.2291603
  36.2814865  50.5911217  33.8395653  11.0409002  69.4790497  64.1915283
  11.6085920  68.7121048  64.2673264  11.5581789  70.1115875  63.6929817
  66.1293411   2.8856354  16.8451290  65.4737320   3.5716219  16.7193031
  65.6214523   2.0761731  16.9004002  -0.3246115  18.7458305  85.4092712
   0.1674536  18.2100334  86.0313797   0.3070323  19.3954449  85.1006317
  25.2030487  62.5387039  51.7190170  26.0696945  62.1511993  51.8414841
  25.3795929  63.4408188  51.4520836  72.7542877  10.3015947  39.8799324
  72.6678009  10.0426979  40.7973900  71.9269028  10.0375099  39.4775314
  21.4350681  10.3687201  36.2887955  21.8633213  10.5495605  35.4520569
  20.6331120  10.8907738  36.2651672  61.2173195  64.3709564  12.8896255
  60.8745651  63.5462418  12.5452480  62.0764465  64.4638062  12.4779110
  57.6841049  27.4597168  10.3719082  57.4778824  26.5510864  10.5912123
  57.2397575  27.9753151  11.0449200  84.4197464  59.3627663  82.3415146
  83.9844513  58.8516083  81.6592636  83.7228394  59.8978539  82.7212906
  64.9508820  45.2353363  51.8739204  65.6160049  44.5904655  52.1147118
  65.4497528  45.9797783  51.5375137  15.3056250  36.2452240  19.6688461
  14.4376030  36.2409210  19.2654228  15.2576675  36.9328651  20.3329868
  11.4116945  57.5687714  66.5746918  12.1389322  57.0792809  66.9590759
  11.8293619  58.2988243  66.1177292   3.8428953  54.4839706  88.5697861
   4.0498562  53.9795418  87.7830582   4.5286913  54.2464600  89.1938934
  58.0104713   1.7549243  50.3770638  58.0346069   0.8401222  50.0963745
  58.8726730   2.0996089  50.1446114   2.4225771  29.6221123  65.5325165
   1.6375916  29.4174843  65.0244217   2.8272645  30.3523998  65.0643921
  10.3936186  42.4826241  79.4192581   9.6740341  42.5086441  80.0499344
   9.9651670  42.3617668  78.5718842  58.9323196   3.6023071  55.1682510
  59.7119484   4.1472497  55.0612526  59.2393379   2.7104070  55.0055084
  59.5108566  50.1089401  23.8704491  59.8731194  50.7679634  23.2782612
  58.9834862  50.6099968  24.4925880   8.7264318  69.7196045  53.0535965
   8.6896868  69.6798706  52.0979271   8.9859104  68.8376541  53.3201866
   9.6940632   9.7291212  36.4975166   9.8150444   9.0901995  35.7951088
  10.4286013  10.3349638  36.3993416  63.1877785  11.4162998  86.7672195
  63.4032669  12.3483400  86.7340927  63.7122498  11.0242548  86.0690308
  62.4264221  49.5720291  30.2106915  61.5062370  49.3088684  30.1951714
  62.8952751  48.7870865  30.4940147   6.0261431  69.0037231  54.4701157
   6.6596489  69.5089264  53.9605293   6.4831591  68.1895370  54.6809845
  57.3615990  55.0638237  47.2806740  57.2661324  55.9337616  46.8929558
  57.1839409  55.1958389  48.2119331  31.7031422  42.9410934   4.3949180
  32.1303139  42.1991386   3.9668324  31.4432926  42.6054764   5.2528634
  66.2296448  57.0475655  67.8666000  65.7431564  57.7720184  68.2599564
  66.3721466  57.3191338  66.9598618  60.8147430   5.7127519  54.4646149
  60.8527412   6.3671355  55.1621628  61.6384125   5.8213415  53.9892120
  37.6832008  66.5332718  12.0787573  36.9559326  66.2031021  12.6062965
  38.4451294  66.4694519  12.6546268  59.7646103  41.4804039  10.5737553
  59.8745651  40.6743889  11.0782156  60.1950569  41.3004570   9.7379513
   2.1476765   9.0270586   6.6582756   1.6423087   9.7896032   6.9399862
   1.6819119   8.2793694   7.0327840  67.3549576  21.1859455   8.0542717
  67.2260437  22.0497437   8.4460230  67.0332947  20.5727921   8.7151861
  83.1757050  57.4317665  70.9879303  83.1613617  57.0431976  70.1132660
  83.9103241  58.0450096  70.9655685  18.5547295  36.2974396   0.9756712
  18.3667774  35.4840736   0.5073327  19.3079643  36.6694260   0.5168718
  77.9986649  44.9405479  84.9566269  78.5886307  44.6714134  85.6607056
  77.7543411  45.8388977  85.1791229  53.4021950  15.9125843  29.8590050
  52.6783791  15.4445887  29.4427071  53.2274361  15.8382215  30.7971725
  50.4987259  29.1875229  11.9100580  50.6076317  29.5278969  11.0220737
  49.9288635  29.8237133  12.3422079  17.0480328  11.0817852   5.3353391
  17.6352768  10.8899946   6.0664983  16.9119186  10.2355833   4.9091377
  65.1518402  48.1877708  38.3387222  65.9466553  47.8304214  37.9427452
  64.5183792  47.4716530  38.2924576  77.7864304  30.3954620   9.2332077
  77.3535156  31.2416210   9.3464937  78.4018250  30.3414764   9.9643726
  52.7543755  62.9599380  78.2519760  52.5467949  63.8719215  78.4555283
  53.6572685  62.9847832  77.9351196  11.1674213  18.9662113  23.2223339
  11.0096292  18.1629620  23.7184410  11.8294964  19.4352283  23.7301846
  15.0842772  71.2733383  49.8131256  15.6748428  71.3577881  50.5616798
  14.2071695  71.3138275  50.1942749  39.5924606  60.3389053  75.5701141
  38.7721634  60.8088531  75.4201355  40.2256088  60.7739983  74.9991074
  42.0387573  19.4002743  11.8490524  42.7433510  18.9133816  11.4215956
  42.0146141  19.0532894  12.7408199  58.0751839  71.2268448  73.5754089
  58.0521545  70.5598526  74.2615738  58.0455132  72.0583801  74.0485916
  78.8217163  55.3478661  45.8446808  79.3687820  55.6031380  45.1018562
  78.6459351  56.1680870  46.3057289   4.2234855  44.5182724  64.0461731
   3.5623984  44.0753059  64.5781250   3.9569397  45.4376068  64.0494919
  75.8722992  33.8676414  32.6845245  76.4526901  34.0356483  31.9421291
  75.8454819  32.9135246  32.7564507  82.1166306   9.6316004  60.8624611
  81.5744324   9.7491007  60.0824280  82.0043869  10.4436073  61.3567047
   3.6037457  40.9536438  27.7233467   3.1029072  41.0442810  28.5340118
   3.3539314  40.0948906  27.3822174  70.7353973  54.3920555  83.8476562
  70.8958817  54.2393494  82.9164429  71.0032043  53.5777283  84.2735367
  78.4567184  14.4591007   3.3224027  78.4269943  15.0200014   4.0974755
  77.7437820  13.8336477   3.4518926  82.4844894  17.6080112  57.5068626
  83.3014526  17.3046761  57.1108932  82.7379150  17.9058781  58.3805237
  27.9149780   1.9972488  83.2244110  28.1865368   2.9095438  83.3254318
  28.7354412   1.5101866  83.1479797  83.3188705  66.4185791  84.3162460
  82.4987793  66.4089584  83.8227005  83.2727280  67.2172241  84.8418579
  27.9588833  64.4712372  88.4389267  27.0635090  64.7951202  88.5370789
  28.2450027  64.8112869  87.5911407  42.4020958  60.9047241  54.3871765
  43.2002335  61.4096489  54.2314339  41.8300476  61.1284790  53.6530609
  19.6166420  61.0706863  56.6929970  19.5541668  60.6244659  55.8484764
  20.0132027  60.4240417  57.2767982  46.9089928  22.3295250  86.5133514
  47.5161095  21.7705708  86.9983444  47.0947380  22.1429310  85.5930710
  59.9938316  63.0591240   6.4706931  59.8600006  63.5670128   5.6704621
  60.1282654  62.1619682   6.1652966  13.2985764   2.5495229  43.6778564
  13.9471922   1.8472668  43.7264900  12.7727757   2.4452672  44.4708862
   0.6604381  13.1871767  81.1296539   1.5099069  13.0040169  81.5310059
   0.1754724  12.3658514  81.2100525  63.7135239   1.9262474  35.0212822
  64.3822861   1.2418065  35.0443153  64.2084122   2.7453797  35.0396385
  31.9943619   6.4612746  43.9666748  31.8772087   6.0682068  44.8315468
  31.5259056   7.2945004  44.0168228  68.9931412  59.6542931  76.3176498
  69.6153336  59.6470070  75.5902863  69.1525803  58.8300591  76.7774811
  65.6568222  14.6305208  78.1555557  66.3727112  14.1215401  77.7751999
  66.0902023  15.3623409  78.5947037  67.6714859  10.5251455  13.8438978
  67.7197876  10.4637642  14.7979059  66.9575500  11.1411486  13.6793633
   8.4479837  52.9711800  46.9285393   8.9874821  52.2215652  47.1800385
   8.9470081  53.7340851  47.2203941  12.5278883  22.4755421  82.0800629
  11.5934448  22.4623814  82.2871246  12.6994123  21.6173439  81.6923676
  66.5022430  15.2571497  16.2836647  66.4623642  15.7954931  17.0741272
  67.1933441  14.6195402  16.4627399  30.7728310  30.7952690  53.5952835
  31.5029259  30.6471710  52.9942322  31.1887016  31.0470619  54.4198341
  48.7669716  20.8594799  12.5659008  47.9540253  21.0053787  12.0821018
  49.4534264  21.1882172  11.9854336  28.9995804  43.2202034   7.6909156
  29.1334877  42.6661415   8.4598866  29.8831940  43.4597893   7.4115324
  74.5821915  46.2584763  53.5785637  75.0813751  47.0305748  53.3122711
  75.1946793  45.7483292  54.1085052  16.7654324  54.0847702  58.9681778
  16.8604050  54.7224464  59.6756973  17.5218334  53.5060844  59.0641670
  66.7159805   6.8898640  10.1485453  66.1200333   6.8788462   9.3995752
  66.4185410   6.1677027  10.7019396   3.7777832  49.0468407  13.9377956
   4.4318085  48.8234138  14.6000366   4.0794020  49.8795471  13.5746698
  67.8308716  63.4807167  81.8113403  67.5077133  63.9329643  82.5906143
  68.5825272  62.9758873  82.1218185  34.3595772  38.6897545  35.8914413
  34.1332207  39.2243576  36.6524849  34.7265358  39.3112869  35.2627373
  83.6099548  49.3021851  32.2313156  83.2528381  50.1902542  32.2372131
  82.8507919  48.7397690  32.0777321  78.5689850  25.1430302  78.6907959
  78.2728500  26.0428848  78.8278885  78.4978180  24.7334709  79.5530167
   7.8425412  56.9490509  42.0418358   8.0956688  56.0993767  42.4026833
   8.1148720  57.5821228  42.7061310  72.3232193  71.1192780  53.3960724
  72.5121002  70.8690414  54.3004723  71.4886856  70.6938324  53.1991539
  19.9190426   0.8579450  66.9968872  19.8966122   1.3879188  67.7936707
  19.1134434   1.0875784  66.5337372  73.9665680  38.5642738  68.4499435
  73.3526764  38.4874992  69.1803360  74.4948654  37.7674103  68.4963226
  81.7587204  64.6348648  88.4989624  82.0943222  64.4808044  87.6158524
  82.0377884  63.8675079  88.9984818  85.9914932  42.4333763  67.7550430
  85.3158722  43.0424347  67.4570312  85.5906067  41.9730148  68.4923325
  23.1415195  40.1687241  26.6530323  23.9016151  39.8294563  26.1803970
  23.1514626  41.1098328  26.4785442  30.8399010  37.1026955   7.9359183
  30.3600693  37.4667358   7.1919632  30.2316628  37.1745262   8.6715269
  38.0181503  37.9324684  82.6692734  38.9069443  38.2512512  82.5122681
  37.7232132  38.4157372  83.4410858  46.7366753  57.0540733  17.0726814
  46.1809959  57.6887093  17.5251045  46.2306938  56.7999878  16.3008938
  11.6912003  22.2146435  76.9212036  11.3364782  22.8804016  77.5104141
  12.3727798  22.6704960  76.4273605  13.4128742  33.0962563  32.4877586
  13.6857338  33.9055176  32.0554695  13.7699633  33.1655159  33.3731499
   7.8514977  30.2394066  65.9345932   7.0333896  29.7456150  65.8789215
   7.5769353  31.1379604  66.1174850  39.1800842  10.5478334   6.5510159
  38.9376183   9.6369562   6.3844481  39.1408882  10.6358089   7.5033579
  60.6066284  15.7227459  46.8240013  59.6656494  15.5526514  46.8670883
  60.7794151  15.8795624  45.8956795  48.4092941  68.1021194  51.5500908
  48.6461945  68.2013702  50.6279984  49.1533737  67.6437302  51.9405479
  40.8978119  55.8125343  28.5005608  40.6532784  54.8916359  28.4089794
  41.8143120  55.7907410  28.7758484  51.1391602  62.4932594  51.5790672
  50.9217606  62.0547371  50.7564659  50.2915764  62.7305565  51.9552689
  18.5073776  68.3921967  20.6343193  17.9686794  68.4140778  21.4252415
  19.1785660  69.0582199  20.7831821  81.6216660  62.2211647  75.6800079
  81.6868515  62.8867683  76.3648071  82.0262070  61.4428673  76.0631943
  44.2604218  66.3989182  80.1014023  44.4074478  67.3142166  80.3398438
  44.8989792  65.9105225  80.6209564  33.0071640  16.8379993   3.4259908
  32.8462296  15.9025936   3.3021114  33.5108910  17.0985470   2.6548827
  35.7102509  11.7038488  37.7436714  35.0300827  12.3408346  37.9624176
  35.3202209  10.8553286  37.9537277  77.5010529  20.1319294   1.9154962
  78.2920074  20.2721653   1.3949655  76.7851639  20.4046440   1.3415965
  75.7203445  70.5793152   1.2384605  75.1508942  69.9931488   0.7400861
  75.5779724  70.3319244   2.1521142  32.3599396  41.3337402  85.0853348
  32.0826721  42.2490692  85.1244354  33.3155212  41.3743591  85.0472565
  11.0216246  29.5925484  17.7404671  10.2253103  30.0549927  18.0017376
  10.8039045  28.6657486  17.8398266   4.0235810  31.7954826  41.6796379
   3.2021325  31.7289066  41.1927872   3.9779949  32.6488838  42.1107559
  19.6956654  33.4303551  16.8300915  19.5600014  33.0608368  17.7026062
  19.6171303  34.3760300  16.9556255  77.2985535  62.2020493  76.0451660
  77.7911911  62.8687096  76.5238190  77.5686951  62.3130074  75.1336060
  58.8271065  10.5297556  71.1357040  58.1019173  10.0649462  70.7182312
  59.6131287  10.1443176  70.7486191  23.5667953  26.3961201  27.0275879
  23.5408020  26.1041584  26.1163731  23.1859493  27.2740917  27.0087395
  84.1722717  25.8595943  83.3497620  84.0052719  26.7823639  83.5417023
  83.9022751  25.3972416  84.1432114  79.5398026   9.3018055  58.6940079
  78.8329010   9.9383841  58.5877457  79.4797287   8.7453279  57.9175072
  46.2163506   1.0871861   1.7597415  46.5770149   0.7089546   0.9578097
  46.7660599   1.8515543   1.9323412  72.8449860  30.7515011  72.6766815
  73.6186066  30.1881828  72.6563568  73.0868378  31.5098038  72.1449661
  65.2869720  24.8813190  83.9608383  66.1766815  24.9872055  83.6240387
  65.1949615  25.5731125  84.6159668  74.8091965  23.2188816  15.9574070
  75.5348206  23.1189766  15.3411922  75.0945816  22.7499199  16.7415390
  28.4483585  68.6367645  27.3584881  28.4085732  68.7204437  28.3111935
  27.8505478  69.3101044  27.0337372  21.3001747  17.3088226  14.1920986
  20.4118576  17.6643181  14.1647558  21.6006393  17.3448792  13.2839947
  37.4564247  58.5365448   7.5839901  38.0461884  57.7842751   7.5339751
  36.7400627  58.3193512   6.9874253  62.0245056  33.4559479   0.5401049
  61.5728264  33.2230835  -0.2710638  61.7308998  34.3468971   0.7304541
  85.7278900  21.1703167  13.3871918  84.8081894  20.9382706  13.2585535
  85.9645309  21.6578140  12.5981550  73.0507355  34.9299049  67.5263519
  73.9912262  34.7635803  67.5899124  72.8216705  35.3330421  68.3637543
  65.6176605  56.1812210  36.8767815  65.4851913  55.6309090  37.6486893
  64.7993469  56.1062508  36.3858910  79.9967651  66.3858261  75.8360596
  80.7655029  66.0382080  76.2882004  79.8545456  65.7823334  75.1068192
  12.0312471  61.1245499  33.1614380  12.7618370  61.4682770  32.6473160
  12.2731943  60.2166405  33.3441772  62.6963768  42.8131332  29.1067066
  63.4934196  42.2839851  29.1376324  62.0072708  42.1942902  28.8650475
   8.3590403  65.2610550  48.5707054   7.7091503  64.5676498  48.4564209
   8.1361809  65.9104843  47.9037628  71.1871948  42.8333740   1.6162336
  72.0914764  42.6518059   1.3602346  70.8285370  43.3385582   0.8865854
  54.8484001  56.3407288  84.5378189  54.6143532  56.5823822  83.6416855
  54.1081619  56.6376839  85.0670624  67.8710327  44.3257523  43.2789955
  68.2995834  44.9290123  43.8861618  67.2630463  43.8277016  43.8253746
   5.6583428  50.8692360  36.6236916   6.1461120  50.1414032  36.2382431
   5.6792870  51.5528908  35.9540558  36.2541008  63.2973061  83.7555237
  36.9816589  63.9072876  83.6338043  35.4969482  63.8581734  83.9239883
  70.6264648  51.3286400  28.3043499  69.9337158  50.6702652  28.3580189
  70.2411194  52.0406914  27.7937393  34.4205475  53.9548836   3.9424515
  33.5809250  54.1493492   3.5259821  34.4826508  52.9999237   3.9218259
  64.9799957  30.9683456  71.7078781  65.1307297  30.1976700  72.2552109
  64.1991043  31.3777256  72.0805054  61.4608269  67.3811111   7.4736805
  61.0283012  66.5845642   7.7813654  62.3956528  67.1960373   7.5635762
  69.9204483  70.8279953  56.2465820  70.0512924  71.7663422  56.3829918
  70.3395538  70.6475449  55.4051437  75.0132141  48.1233406  46.4025116
  74.6998520  47.2960205  46.7679977  75.7927322  47.8837814  45.9013176
  62.5563965  26.9684658  88.4274979  61.6354065  26.7643871  88.5898438
  62.9570160  26.1229916  88.2252350  29.9397717   4.7797966  87.1050186
  29.3738956   4.7840590  86.3330078  30.7841816   4.4660850  86.7813110
   8.4581900  53.2611885  32.2988815   7.7942796  53.5927162  31.6942768
   8.8942175  52.5599480  31.8147564  74.0063248  56.9992485   1.3404697
  74.7988205  57.3320007   0.9192088  73.3390274  57.6585770   1.1501387
  44.7632637   2.9852161   5.1043363  45.2956161   3.1382115   5.8849926
  44.7790298   2.0354853   4.9860387  56.0202332  50.5046577  39.7513962
  56.3527679  51.3756409  39.9682884  55.2631073  50.3876038  40.3252373
  18.6757622  30.5304298   7.9981489  18.4929104  30.3130302   7.0840735
  19.0440884  31.4133167   7.9652982  30.9920940  15.3255320  80.0162811
  30.0369015  15.3586206  80.0686798  31.2905579  15.9115705  80.7117767
  75.8147354  37.8467255  34.5040932  76.0342865  36.9203682  34.6035576
  76.6588287  38.2810822  34.3813210  15.2221479  64.5226974  13.1828394
  15.1862841  65.4784012  13.1431494  14.7507915  64.2984467  13.9851904
  62.5281258  16.7293320  22.3789043  62.3539085  16.4196014  21.4901142
  62.8566208  17.6207428  22.2618179  42.2825394  52.3030052   3.7517972
  42.3450165  52.4897919   2.8150799  43.1458778  52.5275078   4.0988960
   0.3944527  63.2302856  20.7373676   1.0066792  62.6363869  21.1717567
   0.7585778  64.1024628  20.8888435  26.1451035  66.0110016  73.1039810
  26.3539715  66.9398575  73.2031403  25.1920567  65.9700470  73.1830750
  20.0398540   1.9005780  62.7646751  20.1161022   2.8514512  62.8437843
  20.4013100   1.7023615  61.9007912  43.8890762  68.6567841  84.7010269
  43.3957443  69.3596344  84.2781219  44.4080772  69.0990753  85.3727722
  78.6162949  23.8374939   1.4808295  79.5600357  23.9790421   1.5552983
  78.2650528  24.1144238   2.3270984  65.8817139   4.8803368  11.4784565
  66.1104660   4.6942372  12.3891001  65.1075058   4.3428440  11.3113375
  18.9223003  69.7704468  50.5248489  19.3162918  70.6405411  50.4621086
  18.3552208  69.7083130  49.7562180  19.2816086   5.8629780  12.3964739
  19.4479351   4.9411941  12.1992884  18.4022102   5.8721747  12.7743721
  23.3481388  20.7257099  20.7173538  23.4634094  19.9807301  20.1274815
  23.2537136  20.3320522  21.5847340  21.5186882  11.2025156  58.5509491
  22.0019722  11.5775347  57.8147240  20.8455372  11.8527498  58.7516861
  71.0309677  42.7909813  43.1027031  71.4748688  43.4710083  42.5960007
  70.5958023  42.2480888  42.4453316  86.0226974  25.1031570  77.6409531
  85.7733917  25.9802494  77.9321365  86.9578934  25.0428791  77.8358994
  41.9373894  62.3313942  78.8273010  41.5995445  61.5389862  78.4099503
  42.3878174  62.7990875  78.1240158  50.1374016  51.5587883  72.6651688
  50.4656448  52.4473381  72.8028793  49.2045784  51.6734886  72.4837418
  65.0234756   2.4424384  64.4877396  64.5726166   3.2529929  64.2511749
  64.3339386   1.8781295  64.8374863  69.6821823   8.3576517  45.7111320
  70.6035843   8.2004433  45.5049019  69.6334152   9.2969313  45.8889122
  42.1953659  40.6874847  31.7677841  42.1044388  39.7982063  32.1100502
  42.8466148  40.6103439  31.0705376  14.5302696   6.0726690   2.4968762
  14.1842842   6.4486432   1.6874509  14.7145576   5.1594386   2.2771506
  43.0742607  30.3324070   1.3410730  42.6576576  31.1553364   1.0852226
  42.5366936  30.0060272   2.0626891  35.7308540   2.6669683  63.6201286
  35.8456993   3.5416236  63.9916382  35.4371414   2.8245451  62.7228355
  50.2025185  37.7740402   1.9872780  50.3930206  38.6598396   1.6785754
  51.0267487  37.4705620   2.3677754  83.1357956  42.5027428  80.5171432
  83.5787811  41.8727837  81.0856018  83.7115021  42.5854874  79.7569122
  39.0344696  29.4731579   3.4030526  39.1643906  30.2123470   3.9971483
  38.3040504  28.9854698   3.7836840  19.5249577   3.0699084  11.8956928
  18.7801991   2.8630955  12.4603128  19.4486446   2.4569478  11.1644688
   5.1886544  49.2938080  85.1446304   5.4571238  49.2032356  86.0589371
   4.2425075  49.1493263  85.1573944  86.2233200  50.8228607  20.0552959
  86.7735519  51.5466957  19.7560692  85.9774017  51.0624428  20.9488049
  57.2220650  42.0425262  24.9200478  56.3665695  41.6327362  24.7918530
  57.0255928  42.8821640  25.3355446  36.8167572  35.7949409  20.9220104
  37.1327553  36.5858574  21.3588486  37.3269882  35.0854836  21.3126125
  83.8877258  44.1083031  77.5329285  84.6480484  43.6553040  77.1683121
  84.0523376  45.0342255  77.3545761  62.9073372  67.9467850  62.3856735
  62.0688858  68.1234131  62.8123322  62.7341042  67.1949310  61.8191566
  53.6988144  63.1129112  34.9935341  53.8038216  63.5498085  35.8387146
  54.1825905  62.2921982  35.0864220  41.6612053  69.1027985  47.7535591
  40.7823524  69.3997650  47.9894867  41.5146751  68.3262634  47.2134132
  26.6924629  59.7033653  80.6131744  26.3487225  60.4503670  80.1232147
  25.9149361  59.2097778  80.8740463  44.0585594  61.7093620  75.5245056
  44.2393913  62.2214165  74.7362595  43.7117348  60.8795853  75.1967545
   7.6061974  54.6692848  83.0010605   7.8641658  54.2270126  83.8098145
   6.8147006  55.1540260  83.2351379  45.2268333   7.4959803  53.2178802
  44.9727440   8.4163513  53.2856064  45.6346970   7.2974567  54.0607719
  43.6174164  13.2028027  64.0582199  43.6779900  14.0738354  63.6659660
  43.4498711  12.6183224  63.3189354  84.5154343  53.5658646  73.3295593
  83.5928497  53.6459961  73.0873947  84.6940689  54.3464241  73.8540115
  81.6222458  52.3912163  67.3001175  82.3178482  51.8576622  67.6844177
  82.0344467  52.8167763  66.5483017  85.1983719  33.5093575  28.2360821
  84.5405579  33.2891846  27.5765114  85.9256897  33.8784523  27.7350788
  20.6470108  12.4415407  52.1259041  19.8461571  12.3296413  52.6381035
  21.3240681  12.0029068  52.6410980  33.5237007   6.4033847  33.7318954
  32.6475945   6.1120830  33.4792862  33.5172882   6.3799014  34.6887856
  14.0547123  32.1644745  16.3583679  13.2833948  32.4830246  15.8895111
  13.9226980  31.2185497  16.4218445  17.9250908  68.6389923  63.9136734
  18.7185993  68.1170807  64.0327835  17.2666149  68.0098648  63.6189842
  76.8795395   4.8517857  39.9580421  76.5484314   5.4406676  39.2799416
  77.6883011   5.2651172  40.2601738  14.7525396  61.6565437  44.3583755
  15.0068979  62.4528809  44.8246155  13.9179230  61.8772850  43.9449501
  77.8100662  35.6862144   4.3188577  78.4339294  35.0612450   4.6882300
  77.0264053  35.1659622   4.1415191  69.4008026  65.1617050   5.2305841
  68.4646683  65.2628632   5.4027939  69.4443512  64.5511322   4.4946909
   7.4635262  41.9645958  70.7831497   6.5380425  42.1383324  70.6113205
   7.8664546  41.9331856  69.9154587  75.2226944  23.5492096  23.3079453
  74.5354385  23.7863808  23.9305687  75.5917130  24.3868675  23.0279713
   0.7655522  10.9565153   2.9117322   1.3411636  10.5677757   3.5703559
   1.2562418  10.8855915   2.0929372  30.4528141  67.6781998  22.4386215
  30.1373367  66.7766037  22.5005913  31.1537285  67.7318802  23.0882893
  26.8057537  63.8160210  25.1975784  27.3099918  64.6268616  25.1304398
  26.8143959  63.6052094  26.1312351  59.8765717  66.8580246  61.6298714
  60.6417122  66.4623947  61.2124176  59.8844757  66.5113907  62.5220642
  78.3266602  31.4725227  46.6200676  78.0046616  32.0187111  45.9029694
  77.5886383  30.9030285  46.8374023  83.1882935   8.0203924  15.6419735
  84.0855408   8.2614708  15.8723106  83.1837845   8.0005503  14.6849899
  26.4689808  42.0954628  27.7528763  26.7974129  41.8222618  28.6094551
  26.8233051  41.4483757  27.1429882  21.7392960  69.6006927  82.1665649
  21.7650414  70.2405243  82.8780289  22.4905109  69.0304260  82.3299942
  74.0214233  47.0370445  76.6422272  73.9154282  46.1789207  77.0528488
  74.9188843  47.0340767  76.3093719  67.8446426  17.4314594  73.7090836
  68.4474335  17.1478500  73.0217361  67.5256271  16.6174393  74.0987320
  41.0949135  59.6478615  44.1213417  42.0000458  59.6961212  43.8137016
  40.6595497  59.0696526  43.4949532  69.1524734  47.3997993  86.5579987
  68.4166412  48.0018845  86.6688232  69.8537140  47.9424095  86.1973572
  38.8003960  27.4092388  31.0935001  39.1321678  27.2433472  31.9759064
  38.1660995  26.7088852  30.9405060  81.1323013   2.0310395  45.7065277
  80.3656845   2.1543849  45.1467857  81.1998062   2.8464246  46.2033386
  31.6553402  43.9855080  10.7140970  30.9742718  44.4760971  11.1742048
  32.1789551  43.5910034  11.4115381  32.3343773  58.1372986  67.2849121
  31.4477787  57.8146782  67.1233902  32.8863983  57.6279869  66.6915283
   4.8591180  26.3443222  26.9423733   4.8863597  25.9358673  27.8076229
   5.1210313  25.6477642  26.3403435  54.2411423   7.3593731  87.9250183
  54.5051079   6.8170776  88.6683044  54.4261665   8.2558393  88.2049255
  10.5121574   7.3571000  40.4034081  10.7685022   7.2876697  39.4837914
  10.9918232   8.1188107  40.7289085  73.4510880  52.1459770  20.1591454
  72.5517807  52.2516747  20.4694748  73.3590851  51.7962189  19.2728958
  69.3399658  22.8347187  41.9813805  68.6113892  22.6582603  42.5765839
  70.1226044  22.7223759  42.5209084  30.5757694  71.6620026  49.4941788
  30.0032063  72.0956268  48.8614273  30.2201557  70.7766876  49.5715866
  22.3725433  35.5602837  60.8443604  22.9052906  35.0140724  61.4223442
  22.1522160  36.3261642  61.3745651  60.5524445  43.4507675  44.0069771
  59.8643837  43.1219597  44.5854988  61.0318069  44.0843086  44.5408974
  20.7673054  43.2874527  17.8302364  21.4301052  43.8946037  17.5011578
  19.9790154  43.4994469  17.3303452  85.2290192  51.8811226  26.5981178
  85.3895950  52.2601509  25.7339535  84.2893829  51.6988983  26.6088905
  57.8021278  57.7759819  77.3946533  57.8068848  56.9919815  76.8455124
  58.5543976  57.6656647  77.9761581  84.1606293  62.3292389  11.5632725
  83.2922211  62.4609528  11.9437332  84.6257324  63.1471481  11.7391415
  23.4669628  51.5972290  59.1982689  22.9543114  51.6026421  58.3899422
  24.3626595  51.4173203  58.9126282  24.9522820  57.1693306  68.6506958
  25.6761837  57.5758018  68.1742706  24.6177883  57.8647766  69.2169952
  86.5026398  30.6775856  51.3713608  86.3476334  30.6363850  52.3150253
  86.5177231  29.7625065  51.0909386  69.5950470  47.8594856  12.3209906
  70.0450058  48.4766884  11.7440767  68.9852371  48.4010086  12.8221111
  43.6581230  12.7172623   0.6681005  43.7785454  13.4959831   0.1246631
  43.7619133  11.9837761   0.0619178  62.6459198  62.2703476  19.2663765
  63.2904930  62.0837364  19.9489670  62.4622803  61.4182014  18.8709564
  85.5526428  14.2226048  16.6620979  85.3223572  14.6870375  17.4667740
  84.7526016  14.2421474  16.1369476  52.5881386  25.8593502  80.8748016
  52.7188072  24.9410744  80.6383133  53.2020111  26.3394909  80.3190536
  17.9698505  12.3274097  61.3434753  17.4952202  11.6630516  61.8430634
  17.4486523  13.1234379  61.4479828  69.9808884  64.6369858  86.8299866
  70.1563950  63.9666862  87.4903946  70.7775879  65.1671448  86.8092194
  42.5546875  20.8454056   3.8528879  43.2739105  20.8850956   3.2225111
  42.8372841  20.1973763   4.4982014  48.7976761  28.7087822  84.3161621
  49.5190392  29.0188694  84.8636246  49.0203819  29.0078144  83.4345627
  27.1617413  63.6895752  77.5848846  27.1413441  63.5381546  76.6399536
  27.4544182  64.5963745  77.6758728  67.3312988   9.0498781  19.8288231
  68.2627411   9.1789217  19.6499672  67.3029709   8.7250795  20.7287884
   8.1920681  10.7546997  69.5518112   8.0380840  10.2413130  68.7587433
   7.4919181  10.4897738  70.1483307  26.6338768  55.1327896  52.6717148
  26.5113449  55.1902275  51.7241287  26.1878319  54.3237915  52.9222984
  12.7021818   7.8964753  12.4536057  13.6575089   7.8366308  12.4523945
  12.5152788   8.7516251  12.0662832   7.9642406  46.5128441  86.7168655
   8.6175785  46.1973381  86.0924988   7.9276605  45.8327484  87.3894501
   9.2719221  15.8823280  38.2950478   9.8824377  15.2275095  38.6337471
   9.1769390  15.6643057  37.3678627  68.1064987  71.2891464  77.7028198
  68.0813675  71.0640793  76.7727966  68.6494064  70.6078873  78.0995255
  84.3642197  65.8620453  24.5347691  85.0601273  65.2313614  24.3498821
  84.7315063  66.4330063  25.2095566  50.6931381  27.0916939  13.6531248
  50.8574905  27.7037830  12.9357901  50.9361458  27.5763702  14.4419651
  50.6601067   8.5612850  27.8269997  51.1227150   7.7736635  28.1131439
  50.2755966   8.3203306  26.9841938  81.9042435  13.0666933  23.0839100
  81.2769699  12.7158051  22.4517403  82.7461319  12.6987524  22.8154297
  54.9740486  32.5633354  79.8903122  55.2217827  32.0581703  79.1159286
  54.3811417  31.9870758  80.3726120  19.0514736  14.1760664  14.6478262
  19.7428951  14.7801657  14.9184380  18.9593754  14.3236160  13.7065611
  16.1611824  59.2814674  80.5279541  16.2018070  58.4507980  80.0540695
  16.6843491  59.1336060  81.3157806  14.2202644  50.8230858  23.1060314
  13.4419260  50.2725029  23.1913357  13.9401522  51.5491066  22.5486584
  13.2506886  67.6030731  54.0079689  13.5977306  66.7110214  54.0134544
  13.0953312  67.7939529  53.0829468  52.1739616  48.5171242   1.2425222
  52.1635857  47.5829353   1.4508765  52.4107742  48.5532150   0.3157816
   5.8621783  60.7317886  37.8214378   6.0709548  60.5792580  36.8998222
   5.3023677  61.5081940  37.8148804  48.4194717  60.9002151  76.9105759
  47.7240067  60.5056877  77.4367981  49.0432510  61.2385445  77.5529709
  29.4418793  57.7670097  69.1918335  29.0947266  58.6565971  69.1258850
  28.9504929  57.3708839  69.9114532  58.2679749  28.8097534  88.2754745
  58.8036461  28.0469799  88.0576019  58.7666969  29.2671947  88.9524155
   4.8427877  33.9202805  21.1710720   5.3343744  33.1815300  21.5299911
   4.6744938  33.6764183  20.2608852  70.2940826  17.1371803  24.1205597
  70.4446716  16.2169399  23.9044266  71.1671829  17.4878864  24.2964115
  28.4547215  24.9793358  28.9557037  28.2174568  25.8614140  29.2418423
  29.3655071  25.0565834  28.6715679  23.5143356  37.3355827  79.8863297
  22.6381493  37.4104271  80.2643967  23.4138508  36.7069969  79.1714783
  84.5047073   0.5477136   6.9242835  84.3704224   1.3855735   7.3672175
  84.8093338   0.7858151   6.0486460   7.8249788  25.9454174  73.7790298
   8.5119648  25.3628044  73.4552307   7.4007378  25.4495144  74.4792633
  72.5437088  26.0010471  52.8804169  72.9136887  26.4619694  53.6333427
  73.1998825  26.1030807  52.1910248  65.1443558  13.5083494   9.3403826
  65.2673645  12.5625019   9.2599297  66.0326309  13.8634939   9.3729286
  66.0986176  56.0120010  12.5229092  66.8852692  55.7302933  12.0559397
  65.4000473  55.4614449  12.1691904  28.3168545  71.1851196   6.8912239
  28.6704350  72.0138016   6.5679617  29.0890999  70.6703568   7.1255069
  50.4733696  22.2416210  67.6856918  50.0836639  22.7064247  68.4261780
  50.6057510  22.9178429  67.0212860  75.7978592  24.4648762  83.2484360
  76.2090073  24.5033474  84.1119766  75.9993668  23.5863800  82.9261475
  60.9548302  11.1363850  52.5347290  61.2889252  10.4642515  51.9407196
  60.2936211  10.6850691  53.0594635  41.8600349  63.5687103  16.1118469
  42.3683853  63.8962059  15.3698492  42.1154137  64.1303482  16.8436756
  72.7290878  18.3858490  18.4186172  72.8228226  17.5218258  18.8197536
  71.7872696  18.4840984  18.2787838  56.9909019  68.1045837   6.6693554
  56.2821655  68.7360687   6.7924657  57.4326286  68.0718689   7.5179067
  42.6216431  55.8521652  34.6788521  42.5940437  56.2906189  35.5292778
  42.0246277  56.3590813  34.1285439  24.3271637  31.2541027   3.0585275
  24.7549667  30.5942707   2.5127845  24.7526665  32.0769081   2.8173468
  40.5873489  41.3878288  34.0591736  41.0667496  42.0967140  34.4879951
  41.1280441  41.1554146  33.3042793  16.8372707  16.3789444  27.2522526
  16.0257435  16.6748066  27.6647091  17.4806309  16.3806953  27.9609966
  46.2302284  14.0186768   4.4639168  45.6720085  14.2553787   3.7232471
  46.3719444  13.0771294   4.3657451  54.5817528  26.5928535  21.2161427
  53.9904861  26.5869808  21.9688702  55.4352303  26.3576679  21.5801430
  63.2592735   5.9768100   5.2622571  63.3544540   6.8771195   4.9514260
  64.0688171   5.5433230   4.9921398  14.0971031  68.4483871  25.3444042
  14.9608259  68.7318649  25.6441574  13.5580139  68.4458084  26.1353569
  79.4299393  32.9273911  53.3407135  78.8964539  33.7213440  53.3052025
  79.6133652  32.7208939  52.4242287  33.8896255  64.1722717   8.5369568
  34.2861671  63.8486328   9.3458080  33.6630249  63.3811569   8.0480623
  47.2639771  56.6846619  55.3730164  47.2972794  56.9852524  54.4648476
  46.6317368  55.9660301  55.3644180  37.5463753  31.6377430  89.2339630
  36.9873314  31.9653797  88.5294342  37.0191040  30.9650860  89.6649475
  62.6606178  57.5415497  52.5407143  62.1220016  57.5924454  53.3303604
  62.0336609  57.3967018  51.8320694  38.4630661   2.8483846  56.9329262
  38.3478966   2.1568487  57.5846519  38.1433601   2.4639220  56.1167107
  61.0295677  19.1102886  29.2851067  60.8316956  19.5844402  28.4774799
  60.5082283  18.3096523  29.2266598  77.3279495   9.6676426  75.3513336
  76.4514542   9.3398724  75.1499252  77.5818481  10.1656151  74.5742950
  67.9987717  47.1826553  38.3509483  68.8610764  47.5816727  38.4668884
  68.0266495  46.3914948  38.8890190  78.0854721  31.3183289  28.3522968
  77.6848679  32.0701714  27.9158535  79.0250778  31.4302311  28.2079124
   3.8111811   3.9312570  82.1079712   4.5101132   4.3351054  81.5935516
   3.2335329   3.5335071  81.4565506   2.6787491  69.2971344   9.1909189
   2.3475208  70.0373535   9.6994438   2.0465260  69.1930466   8.4797993
  55.4312744  24.2537365  41.1577759  56.0755005  24.9428101  41.3201942
  55.9550896  23.4820499  40.9424858  70.1075058  30.4497261  59.6175232
  69.2729568  30.1579819  59.9844627  70.5888901  29.6407089  59.4443550
  78.9170914  51.6196022  86.6568985  79.6828918  51.8648949  87.1761398
  78.1992493  51.5873985  87.2892838  76.2483292  39.2768707  51.2481956
  75.4997940  38.6881180  51.3446350  77.0065536  38.6945419  51.2009926
  19.5419579   6.3429971  20.5963478  18.6193676   6.2715640  20.3514881
  20.0145435   5.9340696  19.8713150  57.6556664  56.8224945  86.8671036
  57.8445396  56.4081879  86.0251389  57.8109398  56.1335564  87.5132294
  69.9576569  16.9152737  53.0893974  69.5020676  17.7473030  52.9613495
  70.8258820  17.0570812  52.7121582  42.1379318  10.1201172  34.4533195
  42.7819672   9.8069172  33.8182182  42.4206657  11.0104980  34.6619225
  83.6682663   2.9866161  84.6564941  82.7570419   2.8461277  84.3992767
  83.8983612   3.8319795  84.2709427  66.5981979  31.3747139  25.8157330
  67.2116013  31.2490120  25.0917397  65.7360916  31.3863029  25.3999615
  50.5269547  59.5093193   0.4082124  51.4434471  59.7314262   0.5723594
  50.5386429  58.5719757   0.2146121  44.2818794  61.4130211   7.4281039
  44.8402023  61.1456909   8.1582003  43.7027969  62.0780525   7.8004336
   3.6651750  67.8300171  80.0825577   2.9190629  68.2369232  80.5229797
   4.0376525  67.2401733  80.7379761  11.3050251  40.4260864  25.3632431
  11.8120041  40.3190804  24.5584106  10.7584639  41.1950874  25.2015686
  35.8733482  47.4344406  80.8249359  35.6224976  48.0658722  80.1506882
  36.5500336  46.8985023  80.4112930  65.0541611   4.0084476  43.5236588
  64.2092285   4.1835699  43.9379730  64.8737488   4.0506210  42.5845604
  53.4830894  18.2037563  87.0768585  52.5271225  18.2151489  87.0296249
  53.7139664  17.2758026  87.0340881  22.9966965   3.0424070  85.5477676
  22.4873619   3.6070254  84.9663773  23.7321568   3.5875888  85.8272476
  70.9011765  19.5556526   7.2606692  70.1904602  19.4609070   6.6265259
  70.4596405  19.7424660   8.0891457  69.1130829  37.1124840  22.9708996
  69.7434540  37.7581558  23.2902317  68.5480881  36.9368744  23.7233448
  58.4808846  18.3632355  48.8301582  59.3708458  18.3813801  48.4781990
  58.1259117  17.5227585  48.5406342  84.7302551  45.7331543   8.4894314
  85.4948654  45.1572990   8.4908991  84.1206818  45.3203354   7.8776898
  64.1980591  15.9073763  43.1740532  64.7939148  15.9278564  42.4252090
  64.0765533  14.9759178  43.3580513  64.8026352   4.3604517  22.1342983
  65.7125244   4.2168941  22.3945217  64.8586349   4.6800733  21.2337780
   4.2740469  45.7156487  88.6398239   4.1574464  45.5071220  87.7129211
   4.3996253  46.6644058  88.6579285  13.7229376  43.6375465  34.7331734
  13.9246674  44.4215393  34.2223969  12.8522005  43.8042946  35.0940666
  71.4668427  52.4458199  14.4737692  71.5351410  52.1781960  15.3902531
  72.0837326  53.1729126  14.3899670  84.2262497  49.6076546  23.1109791
  84.3267517  48.6632805  23.2305069  85.1073380  49.9177094  22.9017620
  30.2720776  47.8998947  78.4525909  29.7270069  48.0092697  77.6733780
  30.9707756  47.3074913  78.1749039  20.7254200  14.7144070  61.1040344
  21.6095982  15.0564966  60.9719925  20.6313190  14.6543932  62.0547028
  77.8543472   4.4115014  23.4966316  77.8195190   3.4742684  23.6879749
  76.9822006   4.6201916  23.1619091  44.4133339  63.1975899  35.0226021
  44.1398659  62.4285431  34.5225906  43.6672173  63.3922806  35.5897369
  71.7701263  15.7548628  86.0383224  72.0975342  16.6344166  85.8501282
  72.4100800  15.1693668  85.6334991  53.3745880  41.7927475   9.0693493
  52.6808510  41.6692924   8.4214888  53.3767128  42.7343330   9.2415209
  56.3098793  64.7032089  53.4669037  55.3626022  64.7890015  53.5743065
  56.4256134  64.4580307  52.5489044  47.3526306  46.5572205  37.4001503
  46.7447433  47.2945213  37.3445320  46.7968636  45.8027992  37.5955925
  75.3662720  22.7151814  46.8728905  75.6220856  22.2265491  46.0905685
  74.4145279  22.6214581  46.9132690   3.7777529  24.6253567  51.1846123
   3.5694163  25.5556850  51.0990753   4.6485624  24.5382862  50.7968712
  42.2939491  49.5286903  78.2551193  41.3422775  49.6314049  78.2577209
  42.4739075  48.9453926  78.9924164  80.5217514  18.2959423  46.5354080
  79.9337082  19.0008965  46.2643318  81.3574905  18.5080223  46.1197319
  58.0387726  31.7409000  35.7069206  57.4046288  31.0829773  35.9919357
  57.7326736  32.5563545  36.1038742  13.1113253  70.8609467  27.8111935
  13.6029043  70.2864914  28.3982010  13.7797832  71.4001694  27.3885422
  36.6475830  48.2722740  35.9754868  37.4666367  47.8367500  35.7394753
  36.8961678  48.8969383  36.6568336  19.2002869  10.5965815  78.0577850
  18.6582890  11.3077240  78.3994675  19.1329403   9.9060345  78.7172089
  21.7194481  58.5040703  77.2599564  22.1549473  57.6984901  77.5385437
  21.1266079  58.2266426  76.5615234  42.2144966   8.8187904  45.7827873
  42.2891197   9.6761007  46.2019310  42.9786987   8.7654486  45.2088661
  29.5680962   0.7887701  59.3942490  29.6990318   0.6514362  60.3324547
  29.5908451   1.7395445  59.2858887  71.7142639   0.4443891  25.6704311
  72.5576782   0.0348608  25.4776497  71.8768616   1.3830431  25.5770435
  83.4645462  14.9225874   7.7665682  83.4204559  15.6523666   8.3843946
  84.1187897  14.3319416   8.1398516  56.3043633  14.1018496  39.7310982
  55.4025688  13.8732996  39.5057983  56.7839661  14.0257435  38.9062233
   9.0542974  22.2804775  13.5081139   8.9499655  21.4228973  13.9203081
   8.8157635  22.1366634  12.5923347  26.9461288   7.8884888  17.3859291
  27.8078022   7.4735951  17.4260921  26.9156265   8.2938299  16.5193253
  84.4646072  42.4800529  15.3063202  84.3690338  42.4093018  16.2561054
  84.1822357  41.6283188  14.9730778  78.0249100  41.5082626  82.4886169
  78.4346695  40.6820488  82.2323074  78.7301025  42.0078125  82.9001770
  54.7851868  50.5237541  72.8395309  54.0545502  49.9621925  72.5805893
  55.3584671  50.5395126  72.0731506  12.5374594   9.0929623  59.9153061
  12.2448626   9.8462639  59.4023209  11.7302923   8.7060385  60.2544289
  40.8452644  69.6235733   9.7110920  40.7040977  69.1266022  10.5168934
  40.6512833  70.5295944   9.9513788  63.7764740  68.8577652  71.9065857
  62.9611473  68.9782104  71.4197922  63.9810257  67.9282150  71.8049469
  80.2397919  26.9404144  58.7529106  80.0728226  27.4531307  59.5437775
  79.5776825  27.2391739  58.1295509  23.2199173  29.6153355   9.1912642
  22.9592304  28.8286495   8.7123070  24.0573444  29.3844738   9.5933228
  74.4603500  33.6449280  58.6026115  75.0133133  32.8637352  58.5885925
  73.5792618  33.3116760  58.7724762  76.8171616  27.4023399  88.7335358
  76.7345123  27.8238182  89.5889664  76.4475327  28.0353069  88.1179428
  77.5636139  67.9050293  51.3289642  78.0502930  68.5703430  51.8155212
  76.8227310  67.6884308  51.8950119  83.6376877  32.5307198  26.1927929
  83.9131317  32.7042694  25.2926579  84.2119522  31.8236389  26.4868870
  81.2445679  41.0556602  55.1098404  81.7336655  41.5615692  54.4609375
  81.4550705  40.1434021  54.9105759   5.3732915   4.1763740  48.3261681
   6.2093105   4.3875251  48.7417641   5.4780431   3.2749176  48.0218048
  58.4637642  30.4915848  13.3314133  58.6271744  30.7100220  12.4139090
  57.8108940  29.7923603  13.2985382  56.2578049  68.3338242  47.9674606
  56.3416443  69.2202606  48.3187904  55.7592850  67.8588181  48.6323547
  16.3566189   6.0306931  52.4891853  15.9725332   6.4786301  53.2428818
  16.5680447   6.7337060  51.8749313  71.7050400  65.9181900   6.5656061
  70.8826218  65.7115631   6.1215787  72.0151825  66.7155914   6.1364260
  46.1897430  34.3423843  80.1415329  45.2400322  34.2969131  80.0309982
  46.4748535  34.9918709  79.4987946  24.6315289   7.1567535  62.3007317
  24.3808880   6.4432101  61.7139893  24.7509422   6.7359848  63.1521568
   3.4292822  19.9380054  17.6219196   3.0502419  19.4662075  16.8803234
   3.1303701  19.4540176  18.3917503  44.4549637  18.6156063  10.6105042
  44.8770638  19.3788052  10.2160521  44.0032806  18.1887531   9.8824863
  60.7399635  17.5058079  50.7158623  61.1917000  16.6897011  50.5010681
  60.6730576  17.9693966  49.8810921  43.8272057   5.6146202  61.6750488
  43.2756042   5.5977569  60.8929482  43.2289276   5.4128861  62.3944893
   5.9600778   3.3397472  37.8790855   5.9112692   3.8374598  38.6952553
   5.9698086   2.4239109  38.1572609  62.7738037  60.9608536  49.8035431
  62.7723579  61.2095833  50.7278595  62.9410248  61.7789726  49.3356171
  49.2667885  32.4779091  65.8522110  48.8272438  32.9409828  66.5653687
  48.6903152  31.7397194  65.6547623   1.7628292  71.0933228  79.0710831
   2.7150807  71.1011581  78.9741898   1.4881908  70.2680893  78.6713409
   9.1363373  42.3287125  50.5144730   9.1309366  42.4636116  51.4621048
   9.4569578  43.1565475  50.1565285  56.1930351  12.5434856  29.0146885
  55.9045715  13.2729578  29.5632248  55.6533279  12.6082392  28.2268066
  66.5668869  49.6774406  67.6238098  66.2828979  50.5864754  67.5276947
  67.0263596  49.4824257  66.8070602  41.6528015  63.9348564  10.3739529
  42.0805664  64.7773285  10.2206802  40.9767723  63.8830566   9.6982794
  25.2162418  68.8838348   9.2288170  25.7500935  68.3176880   8.6714010
  24.9996891  68.3393631   9.9857111  57.4652252  19.3821869  78.0273895
  57.4034195  18.5298157  78.4585190  58.3472404  19.6915607  78.2337189
  52.0505486  57.6169128  84.9686661  51.8192062  58.1002541  85.7618256
  52.5266342  58.2507782  84.4322052  69.9406433  -0.2566462  23.5806293
  69.3812943   0.3438447  23.0879097  70.3632507   0.2952066  24.2387238
  18.5180016  54.3084335   8.4524994  19.2431316  53.6980934   8.5863056
  18.7689190  55.0900841   8.9447327  67.8538589  30.9668236  64.7738953
  67.9308090  30.0627537  65.0788040  66.9761734  31.0180397  64.3953705
  80.5488434  44.1223831   0.2779182  81.4388275  43.7789230   0.1991859
  80.1328888  43.5619011   0.9329529  21.6993675  49.0760460   8.0190630
  21.1948986  48.3769875   8.4350700  21.4580784  49.8659935   8.5027924
  45.2319527  12.7003241  77.8665771  45.9329262  12.3659935  78.4261246
  45.2341156  12.1185055  77.1065063  40.5885086  69.8894501   6.9056187
  40.0644569  69.0899124   6.8572884  40.7542648  70.0110397   7.8404846
   1.0463333  27.9364071  58.9806976   1.0790368  27.7313881  58.0462837
   1.9638774  28.0236893  59.2390137   3.9095318  29.4956112  35.2101784
   4.0680809  28.9277897  35.9642830   3.1958141  29.0696125  34.7354546
  24.6966724  41.9788055  87.3832321  24.9572792  41.2244492  86.8547821
  25.3540783  42.6465912  87.1880188   4.9302683  12.3722801  21.8934689
   4.5273471  12.5910931  21.0532265   5.5514350  11.6740017  21.6866093
  37.5342102  64.8630447  86.2201004  38.0324669  64.7473984  85.4110260
  38.0078163  65.5440292  86.6977921  66.9713821   2.2026575  36.9898529
  66.3924866   2.7818787  36.4942513  66.5686798   2.1457827  37.8563538
  51.2195778  51.2928772   8.0571213  51.4684067  51.7196884   8.8769684
  51.1073227  50.3715515   8.2911940  61.3006248  61.3256302   9.2783861
  60.9222183  60.8815269   8.5195637  62.1086197  60.8451767   9.4587727
  70.4655228  12.4439211  75.9425735  70.5905762  13.0411177  76.6800995
  69.6054688  12.6741686  75.5911179  38.2689476  23.0785484   6.8583412
  37.9534302  22.7912197   7.7151513  39.1168060  23.4843769   7.0390806
  81.5812683  14.2375631  63.7370224  81.6667099  14.8571825  63.0124474
  82.3871384  14.3467960  64.2418671   1.9178960  32.6207161   3.2652175
   1.3114679  32.7825508   2.5425236   2.1921878  31.7111034   3.1485932
  65.2108459  42.2749634  27.1530933  65.1640625  41.8249016  27.9965916
  66.1161880  42.1538467  26.8668823  16.7625046  67.7032013  28.8954239
  17.1641197  67.3050842  29.6677208  17.4932537  68.1054382  28.4259148
  12.6421785  52.0245857  55.3561707  12.2623310  51.5064392  56.0657310
  12.0908031  51.8325386  54.5976639  40.2138481  42.4404907  29.7671471
  40.9636612  41.9181862  30.0521145  39.5338211  41.7960854  29.5708332
  82.4731674  24.3582592  56.5638847  82.7419357  25.0608959  55.9720268
  82.9140778  24.5587578  57.3894920  51.3787498  45.9885559   1.1424662
  51.0156631  45.8237991   0.2722622  51.5772057  45.1181984   1.4879023
  59.2925720  67.7089996  83.2485733  58.8598289  67.0910721  82.6593933
  59.8260117  68.2561111  82.6720810  83.9451981  60.1952171  26.5742912
  83.7737427  61.1249962  26.4248047  83.5476913  60.0122070  27.4256001
  83.0852890  48.4805069  42.9895325  83.2301483  48.5019112  42.0436020
  83.5348434  49.2589722  43.3183556  64.6370468  29.7827396  27.5552559
  64.8987885  29.2975960  28.3377876  64.9277039  30.6795464  27.7210503
   1.0602890  71.6338272  65.9591141   0.8934618  70.7812042  66.3608932
   1.4256790  71.4259949  65.0991592  85.5777817  44.8637047  41.1968613
  85.9943237  45.6092148  40.7644958  84.6717834  44.8836288  40.8886299
  61.5464249  69.7784119  39.7980423  61.6622734  69.1370621  40.4990959
  62.3721466  70.2621231  39.7770844  64.2128906  25.3493805  34.7001190
  64.6174850  25.1468143  35.5436249  63.4743423  24.7437325  34.6371307
  28.7439518  62.8367500  57.4682236  28.9363365  63.0960464  58.3693275
  29.4590893  62.2463799  57.2310028  18.1790447   1.3894529  51.6776085
  17.9952850   0.7162519  52.3327942  18.7578030   0.9593589  51.0480957
  69.1151047  30.7399197  28.7548599  68.8285828  30.5157681  27.8694839
  68.3054810  30.7906685  29.2629604  19.0122261  11.8476048  49.6489487
  18.9350700  12.3212109  50.4771843  19.0623341  10.9262753  49.9036484
  43.0190392  33.8802299  19.0189190  43.7233810  34.5283432  19.0098267
  42.2214661  34.3949890  19.1419468  78.7531815  70.7106247  13.6069870
  78.3974609  69.8654480  13.3324471  77.9984665  71.1872482  13.9526415
  65.5986176  65.2491837  84.5811157  65.0530777  65.0284271  85.3360214
  66.4865570  65.0139618  84.8503113  82.9483414  18.9453106  52.5787964
  82.4918900  19.7280693  52.2702904  82.3165588  18.2364311  52.4580574
  65.2773895   6.4533615  87.7120361  66.2305908   6.5227122  87.7651978
  65.1049118   5.5118651  87.7202988  16.1805134  66.2966919   6.8401642
  16.6557655  66.9710236   7.3256011  15.4252968  66.7546234   6.4711394
  47.6604347   1.3070698  52.9958878  47.5249977   0.4622487  52.5667419
  47.9551926   1.8876098  52.2942314  34.4375000  40.2548943  20.6417332
  34.7798958  39.7668724  19.8928471  33.6569290  39.7688904  20.9076958
  42.2867126  62.5712700  64.0987549  41.7743340  63.2257652  64.5734558
  41.6379089  62.0749283  63.5998268  21.5229778   2.0163212  48.4108772
  21.3902302   1.9809450  47.4635849  21.5729713   2.9510355  48.6109810
  29.6795273   0.2196486  33.0515556  30.6051426   0.0709293  32.8582840
  29.6475945   1.1110185  33.3989334  36.9508362  69.6587143  11.6136932
  37.4430504  68.8967514  11.3081388  36.1157303  69.6065521  11.1488142
  21.0025177  45.2990685  32.4441071  21.2986755  45.0664444  33.3241119
  21.8021526  45.5468407  31.9799690  20.6519051  25.5294380   4.2352252
  21.5538559  25.7164841   3.9749739  20.1519413  26.2850571   3.9265022
  67.9645920  14.4012318   0.6885579  68.4986649  14.5521107  -0.0913346
  68.5993042  14.2256174   1.3832023  10.3846369   3.4084048  26.7236786
  10.7933226   3.3587627  25.8595352   9.7858591   4.1527295  26.6630383
  21.1934566  43.8631630  34.8366394  21.7648678  43.1677208  34.5109329
  20.4653397  43.8853836  34.2156868  24.7955608  52.4495544  78.0495605
  25.7343044  52.2681694  78.0952988  24.3834343  51.5858765  78.0706100
  63.9562912  65.1295929   9.0393381  64.4455032  64.5692749   8.4368877
  63.0382271  64.9150696   8.8739033  37.8248482  31.4668999   4.7411814
  38.3603821  32.2445107   4.8985415  37.1745758  31.7499943   4.0983472
  41.9140625  64.9194336  61.6910439  41.0270309  65.2671204  61.7833328
  42.2425995  64.8600922  62.5881348  60.2277832  15.8571672  13.6461630
  60.9096069  15.2141294  13.8407230  59.4654655  15.3318291  13.4030161
  43.8980789  39.9369736  29.2219086  44.4366570  40.7256393  29.2865257
  44.4673996  39.2918587  28.8024635  21.4343300  56.4686165  37.7314415
  22.2206001  56.7458382  38.2017174  20.7830753  56.3242149  38.4179153
  10.8996372  57.7378044  60.1980171  11.7674026  58.1147346  60.3433990
  10.7830095  57.1197701  60.9195900  19.5660744  13.2017822  59.2143440
  20.0649796  13.5305700  59.9621544  18.8936424  12.6419678  59.6025162
  57.1888199  25.6617413  25.3455772  58.0568085  25.2695007  25.2508144
  57.1305199  25.8932762  26.2725201  32.1396217  59.7878189  85.5428848
  32.1731720  59.5694771  86.4742432  32.9395065  59.4083786  85.1789551
  49.8402557  46.7201958   3.3385379  49.9639664  46.1964302   2.5469587
  49.2525101  47.4260788   3.0692461  18.8076782  10.6468563  45.2365036
  18.5202904  11.4360447  45.6956558  19.6924076  10.4873056  45.5651817
  10.0013466  25.2225323  63.7616692  10.2758894  25.0910435  64.6691742
   9.1948328  25.7338886  63.8271255  51.0397301   0.1941888  14.8111486
  51.1844368  -0.0419889  15.7273979  50.4827919   0.9717464  14.8493185
  19.3178844  31.9740257  39.3479652  19.4622803  31.0701942  39.6280937
  19.6883240  32.0135880  38.4662399  73.1077118  36.5127907   1.2863433
  72.9059753  37.0401955   0.5134429  73.8949051  36.9158554   1.6525385
  66.3719940  25.0275745  33.0874138  65.8911362  25.1211395  33.9097595
  66.2517624  25.8667011  32.6428413  37.2651520  35.3042183  81.3867416
  37.5200233  36.1762199  81.6882095  36.7857399  35.4625702  80.5735321
  84.1921768  41.8445473  75.3769989  83.2386932  41.8331261  75.4604874
  84.3501511  42.1128769  74.4718628  68.3477707  25.1328125   5.3357806
  67.4401169  25.4014645   5.1936007  68.5605011  24.5946426   4.5733175
  72.1154175  56.6804543  43.3328934  72.4961395  57.0036087  44.1495056
  71.7070618  57.4507217  42.9377136  30.5740128  59.9376984  23.2796822
  31.3975258  59.4674950  23.4099331  30.7089348  60.7812080  23.7115612
  61.5952568  41.3832932  18.2882900  61.0356789  42.0281334  17.8555298
  62.4864731  41.6491928  18.0618744  12.8891878  49.4687424   8.1698437
  13.4624853  50.0891228   7.7196360  12.4993868  49.9760818   8.8818092
   1.2799475  12.2322836  53.9935379   2.1421032  12.3250036  54.3989067
   1.4020522  11.5614891  53.3217087  71.6875458  18.7199211  11.6007929
  72.3032150  18.0766258  11.2495794  72.2350998  19.3316860  12.0928879
  11.3446808  64.2540894  32.7300644  11.6762390  63.4549255  32.3206215
  10.8656406  64.7000732  32.0316010   2.2742352   8.6281271  72.8335114
   2.0944884   7.8089118  73.2948227   1.7829508   8.5550098  72.0152664
  29.0041409  66.7667923  67.8120422  29.4945812  66.2392044  67.1816864
  28.7544022  67.5517349  67.3244705  81.6938171  67.3503647  24.2591190
  81.2186356  68.1758194  24.1638947  82.6168900  67.6036835  24.2563610
  86.5942154  18.8300095  81.5309448  85.9719925  18.1884689  81.8737259
  86.5540543  18.7187977  80.5810776  66.0170975  30.6595917  14.6775675
  65.2727127  30.5475025  14.0863295  66.7651520  30.7994995  14.0969877
  12.6554470  18.0631657  11.4365177  12.5348673  17.4774914  10.6890697
  13.2705460  17.6011066  12.0060673  49.8565025  67.2874527  48.6175919
  49.4034576  67.6485367  47.8556213  50.7507668  67.6209564  48.5448074
  46.6322289  51.1964188   5.1298890  47.0229149  51.6219101   5.8931389
  47.0502701  51.6192894   4.3797884  23.0748711  53.9977531  79.8035278
  23.7170105  53.4294701  79.3781586  23.1398525  53.7788124  80.7330856
  43.6684265  18.3485279   5.9489274  44.0715942  17.6081734   5.4955349
  42.7274208  18.2162361   5.8338442  75.0894928  42.6076393  67.5785904
  75.0895386  43.3048248  68.2344589  75.9659271  42.6395264  67.1950760
  79.5242615  39.7602921  73.2591400  78.7044601  40.0777130  72.8804550
  79.6595993  40.3091202  74.0316086  74.4901276  42.9625511  11.0163336
  74.8282700  43.7982254  11.3381004  74.6654129  42.9795494  10.0754728
  11.3535786  33.2542152  21.0046730  11.5042181  32.5567780  21.6427326
  12.1633482  33.2921867  20.4956913  76.4729996  69.1285324  38.7153473
  77.3781967  69.1837311  39.0216103  75.9487228  69.1292572  39.5162048
  49.6206970  41.0505066   9.5656090  49.0973892  41.2605400  10.3390865
  50.3702164  40.5637856   9.9084702  65.5329514  36.1394730  11.6741743
  65.4424057  36.9154129  11.1210499  66.4479828  36.1509171  11.9549265
  19.1488419  15.5178518  39.4505539  18.8563538  16.1840382  38.8285561
  19.1361217  15.9604626  40.2991791  49.0437088  49.3100204  52.6557846
  49.5487480  49.9698715  52.1806412  49.4681854  49.2541580  53.5119019
  30.1117401  67.6861267  82.7428207  30.5434093  67.8063278  81.8969803
  29.9054260  66.7520142  82.7758255  63.0490799  58.1893730  78.7219086
  63.6614685  57.5056877  78.4502640  63.6028366  58.8657608  79.1118851
  76.2572556  41.7725410  33.0166283  77.0067825  41.2336235  32.7636147
  76.1192169  42.3562050  32.2706299   9.8346004  28.3715363  84.5403214
  10.0535202  29.1991463  84.1121063   8.8906870  28.2777996  84.4119797
  34.6180267  64.8980179  88.6474457  34.3587494  64.4952621  87.8187180
  34.9669113  64.1736984  89.1669464  65.7372131  18.1241589  61.5628281
  65.3418198  18.4893951  62.3543472  65.6018906  17.1798306  61.6413307
  11.4634171  50.3181076  37.1053810  11.1900892  49.5956345  37.6706772
  11.6995993  49.8987045  36.2780075  20.3733921  67.7024460  18.3346329
  20.0193462  68.2340698  19.0475540  20.1596336  68.1930847  17.5410252
  25.4352760  64.1432648  39.9992218  25.9182930  63.3376236  39.8151894
  25.5957203  64.3119431  40.9276810  47.8490448  53.1262817  25.3624897
  47.5815887  52.2101326  25.4357433  48.0726051  53.2373734  24.4384155
  65.5731049  19.6271095  73.6922836  65.2472076  19.6940231  74.5898056
  66.2323990  18.9340820  73.7279129  45.5833130  51.0409050   1.7044679
  44.7877464  50.6884537   2.1033199  46.1537590  50.2800674   1.5951800
  26.2774525  13.6294413  17.9806213  27.0027161  13.1470900  18.3775635
  25.5019341  13.3282032  18.4539700  43.7427368   1.5083052  69.3793259
  42.9073944   1.9701910  69.4506760  43.9289856   1.4938129  68.4405289
  53.4878006  59.6923943  64.7624359  52.8402596  60.2711029  65.1649475
  53.6641922  59.0293617  65.4299011   4.8070159  51.1101723   4.6877947
   4.9268746  52.0563965   4.7685685   5.4119549  50.7365456   5.3286428
  75.3648834  65.3163757  29.8235378  75.1276627  65.3843765  28.8986950
  75.0402603  64.4566879  30.0914822  51.9304543  43.1234398  80.0442581
  51.4442291  42.6465034  80.7168274  52.3778381  42.4414940  79.5432281
  30.2298775  12.9463272  75.3009033  29.8293839  12.3919430  74.6312103
  31.1200161  12.6064234  75.3922958  58.8387070  56.5601044  59.0896988
  57.9669647  56.5463562  58.6945915  59.3858299  57.0116997  58.4470863
  65.4208374  64.7324753  87.8636703  64.5676346  65.1652985  87.8329086
  65.2692642  63.8756599  87.4647598  54.1676674  25.7564678  34.0482063
  54.6984482  26.5485325  33.9637260  54.7030792  25.0664501  33.6564827
   1.1393483  59.9183884  70.0694275   1.6005976  60.2995872  70.8165359
   1.8031945  59.8604622  69.3822708  44.4368248  56.0645676  82.1972351
  43.8911476  55.3522339  82.5304794  44.7585793  55.7454948  81.3540878
  39.6644249  41.4434853  84.8154297  39.5798149  40.6557579  85.3526077
  40.2796326  41.9966965  85.2967911  49.3310242  57.2138710  48.4113731
  48.7292442  56.7860756  49.0205383  49.2974243  56.6732597  47.6221733
  13.8358917  25.5735416  18.6789761  13.2032909  25.9471874  18.0654316
  14.5284386  26.2315464  18.7393074  72.9311600  21.0022068  19.3079529
  72.8733139  20.0563030  19.1732178  73.0982285  21.1008472  20.2452850
  19.3381252  25.4995193  40.0676270  18.5952320  25.5403671  39.4654007
  18.9398708  25.4128418  40.9337158   4.5381236   0.3792954  81.2865829
   4.1940880  -0.4702539  81.5625153   4.7123766   0.8443642  82.1048660
  49.3056412   7.3375254  46.2690315  49.1400719   6.5273147  45.7869759
  48.5256996   7.8709154  46.1160164  67.9651108  51.8126907  55.8240547
  68.0775299  52.1611137  56.7084732  67.2531204  51.1781120  55.9053307
   4.2998519  46.9632225  10.4965811   4.3611908  47.9182396  10.5168791
   4.5247703  46.6898155  11.3859024  81.1516571  69.9553986  15.3654833
  80.3500366  70.2266846  14.9182253  81.2612076  69.0356903  15.1238871
  30.7415600  33.8674736  32.4756622  30.2123413  33.2925262  33.0284691
  30.3933277  34.7439651  32.6391602   6.4233241   4.2902746  54.3084793
   6.3555322   4.1355824  55.2506599   5.8011084   3.6756606  53.9194717
  52.0827446  10.2128801  31.5943565  52.8658981   9.9382839  31.1173916
  51.9431992   9.5230045  32.2430725  35.0530624  66.3375931  47.3716927
  35.2889557  67.2402420  47.5857201  35.0249062  65.8904037  48.2175407
  20.8194981  53.3964157   3.0133376  20.6590672  54.2551651   2.6221254
  21.7206268  53.4432907   3.3327134  62.1695480  67.7398911  30.5650520
  62.0942993  68.6460266  30.2659054  62.1210365  67.7978668  31.5192604
  57.1195717  49.6964607   8.0116711  56.8363190  48.7913246   7.8823457
  57.9948120  49.7310028   7.6256719  16.9530792  28.7907772  77.6142807
  16.5548038  28.6023617  76.7645111  17.5626392  28.0670605  77.7588501
  82.7210770  55.0371056  53.8510323  81.8870468  55.4530334  54.0692749
  82.5948944  54.1151619  54.0753822  12.2328224  17.3296280   5.2461805
  12.3153095  16.7242870   5.9830589  11.3291025  17.6416740   5.2925634
  83.2303391  37.3138390   7.8549328  84.0903702  37.6452141   8.1133413
  83.2941742  37.1953506   6.9072418  79.1787262  71.5087738  38.7807884
  79.0398026  70.9401703  39.5381699  79.2634048  72.3866882  39.1527138
  10.6741171  13.6534824  73.8521194   9.8242826  13.3944302  73.4958801
  10.4607773  14.1664753  74.6315765  63.5184822  63.6859856  78.5457993
  62.9548302  63.1585960  77.9797745  63.2081757  64.5832367  78.4238358
  70.5428162  63.4182091  78.4647293  69.9876785  62.6384354  78.4619827
  71.4303665  63.0799370  78.5832901  27.0241089  26.0948963  88.1667709
  26.0808964  26.1434212  88.0111084  27.1341381  26.3990021  89.0676804
  44.8773956  70.8038483  37.6809959  45.3773422  71.5296478  38.0545044
  44.0079269  70.8851700  38.0729713  17.9621468  38.3202515  40.0793457
  17.0866184  38.5062714  39.7401123  17.9950466  38.7762489  40.9203072
  73.7540054  22.2200470   0.0242772  73.5313339  21.2955322  -0.0849069
  74.3316727  22.2387829   0.7872875  81.8071823  16.3662663  20.1747570
  81.2946091  16.5942287  20.9503441  82.2919693  17.1645050  19.9649277
  28.9975986  36.7761688   9.7047930  28.2164707  37.2301407  10.0209913
  28.8247719  35.8512764   9.8806715  38.2107468  22.8405457   9.8244905
  39.0152626  22.3483505   9.9879866  37.5129738  22.2766457  10.1582041
   9.4494553  65.5652695  70.0382462   9.2498646  65.1752625  70.8892975
   9.6212091  66.4868927  70.2314911  74.1112289   2.6588771  11.1225023
  74.0227966   3.2003777  10.3381634  74.2354965   3.2867308  11.8342533
  76.5719452  62.5391197   3.4274428  76.1818924  63.2651024   2.9405744
  75.8789215  61.8803062   3.4711680  16.5081158  46.5938950  76.9944763
  16.2696877  45.6707458  76.9097519  15.6875029  47.0668755  76.8562164
  12.1821270  42.4956589  13.2197952  11.8193903  41.6300926  13.4080744
  11.6411180  43.0982552  13.7301092  80.6871185  37.9218788  69.5318680
  81.0181656  37.5480347  70.3484955  80.0094528  37.3095055  69.2455063
  63.6224594   0.3793254  45.1880226  63.1516838   0.3094433  44.3575287
  62.9403610   0.3131762  45.8563004  54.9820480  12.9563169  37.5030060
  54.2102699  12.4062576  37.6372871  55.5173874  12.4690905  36.8767090
  22.2286243  36.0757790   5.0592599  22.2981682  35.1339951   5.2155943
  23.0089417  36.4454155   5.4724212  74.0645218  35.2892265  78.9074173
  74.5092697  34.4455566  78.8258820  74.6622162  35.8257256  79.4281464
  86.2148972  38.1059608  43.4267426  85.7580185  38.9376411  43.3010483
  87.1069107  38.3566322  43.6669807  18.4870205  63.6192741  43.2198372
  17.7797737  64.1728134  42.8887367  18.4930592  63.7774773  44.1638527
  80.7327271  10.0133638  24.0790062  80.9873657  10.8068371  24.5499535
  80.6508408  10.2920456  23.1669407  12.0835428  14.7439213  23.3352852
  12.7192020  15.3681288  23.6853352  11.7386169  14.2950411  24.1071434
  28.3358097  22.6303158   4.3769526  28.2149868  23.3568230   4.9883609
  28.1880970  21.8457565   4.9050446  11.2134008  24.2712269  70.9425659
  11.2131805  25.1895752  70.6726227  12.0756464  24.1374645  71.3361053
  18.2816391  27.9702492  18.3917007  17.7524967  27.3387241  17.9044456
  19.1661453  27.6047134  18.3754349  79.3941727  49.5613937  42.8124275
  80.1486206  49.3907967  43.3762932  79.7531433  50.0545349  42.0747375
   2.9793339   6.2547460  59.5641556   3.8954403   6.0607967  59.7625580
   2.7381887   5.6137176  58.8954506  47.4383736  58.4440193  23.8636818
  46.4998436  58.4357300  24.0516434  47.7045860  59.3512115  24.0132294
  32.7321739  12.2398701  76.0503922  32.9681168  11.3538904  76.3253479
  32.9786530  12.7940817  76.7908859  32.6819153   6.6432199  71.7008133
  32.8779411   7.4511156  72.1752701  32.5810814   6.9189568  70.7897491
   9.6032314   5.3436284   9.4805527   9.2359228   5.1478796   8.6185789
  10.5247879   5.5379791   9.3096886  82.6910706  33.4905777  20.0233974
  83.1429443  33.6718140  19.1992607  82.4781418  34.3550491  20.3749352
  50.9946442  50.7070465   2.2428472  51.2411919  49.8015785   2.0542436
  50.6063271  50.6724167   3.1170568  45.1502724  61.9803658  23.9343548
  45.0711899  62.9149742  23.7433357  46.0152473  61.7403374  23.6020355
  35.4686241   6.0803485  64.4731369  35.3134384   5.4418254  65.1691513
  34.9001541   6.8181529  64.6938553  53.0868530  26.6835918  23.5259743
  52.4160881  26.6164417  22.8464146  52.8820877  25.9745369  24.1355190
  73.3448944  71.0037994  39.0875092  72.4596710  71.3140945  39.2781258
  73.8072968  71.7793198  38.7697372  69.4065323  54.6766624  63.9862213
  69.1496506  54.9179993  63.0962753  69.9326172  53.8844681  63.8771515
  73.5678940  16.0177708  25.1328239  74.3722153  15.5857477  24.8453293
  73.8604813  16.8575935  25.4868279   0.5490058  65.9739914  26.0513153
   0.0202415  65.3825989  26.5869408   0.3729858  66.8438416  26.4099388
   8.8605776   3.5078046  76.1542816   8.4148893   4.1693320  75.6251526
   9.3691654   2.9989071  75.5229340  26.9887867  30.3802891   6.9822631
  26.5964375  31.0076447   7.5894871  26.5457306  29.5534458   7.1726880
  41.0122375  12.4478416  15.5674448  40.2794762  12.4017582  16.1815872
  40.6665230  12.0802231  14.7540741   5.3135028  64.4295044  42.3723068
   5.4281678  63.5541573  42.0023689   4.5040555  64.3708801  42.8798409
  71.9533844  53.9710808  53.0787697  71.7526627  53.5477219  52.2440796
  71.3113174  53.6108971  53.6905251  39.6975822   6.3404980  55.6795273
  40.4485207   5.8303781  55.9830055  40.0761490   7.0042276  55.1030045
  73.9547424  43.0312386  52.6724815  73.3488617  42.3930969  53.0492058
  74.7885818  42.5647507  52.6147804  73.9547653  10.4067907  66.0884476
  73.8373032  11.2976990  66.4181671  73.6413422   9.8456287  66.7977371
  32.6423454   8.0225687  84.0963898  32.9840240   8.3150549  84.9413376
  33.4225464   7.8406177  83.5725479  70.1178131  10.1085501  19.6432705
  70.0314789  10.2411022  20.5873089  70.5201950  10.9161825  19.3238182
  32.1683807  59.6106873  44.8740616  32.7572975  58.9326401  45.2052155
  31.4210415  59.1275330  44.5215340  55.6026154  37.6122971  85.5186844
  55.4121704  37.9965630  86.3744278  54.8127899  37.7736168  85.0025558
  80.6791840  35.9965134  34.7448540  80.8090897  35.2683754  34.1372566
  80.2031708  36.6519623  34.2349205  64.0244064  25.3069477  45.2148056
  64.9705658  25.4158039  45.1190567  63.6797752  26.1999454  45.2188911
  34.1951103   2.4961107  30.0618553  35.0060768   2.8148353  30.4580650
  34.4767151   2.0599997  29.2576561  16.5746956   6.8517151  21.8814106
  15.9407015   7.3068690  21.3272266  16.0727444   6.1466532  22.2902699
  16.1671352  32.5558853   2.2767680  15.8704214  31.6977615   1.9737608
  16.6350803  32.3735199   3.0916307  20.5913467   6.7378650  14.9468298
  20.4204025   6.4631252  14.0459814  21.3856945   7.2687731  14.8886738
  52.9118919  42.2607765  74.0895233  53.0218964  42.6003227  73.2013550
  53.6767235  41.7023544  74.2288971  64.0562592   7.4345994  70.4021301
  64.2819214   7.9878178  71.1499634  63.4450912   6.7892413  70.7573929
  65.5582047  29.5683613  10.8320036  64.8501205  29.8183937  11.4255791
  65.8609467  28.7228031  11.1630821  85.9257965  23.3775425  50.4939003
  84.9828186  23.4066105  50.6556892  86.0696487  22.5329590  50.0670319
  68.5646133  10.3218803  87.4269257  67.9939346   9.6366453  87.0790634
  68.0837784  11.1350889  87.2729111  18.5152893  64.8903275  48.4683571
  18.1723728  65.4839325  49.1363907  19.4593143  64.8724823  48.6256104
  37.5214005  21.9761639  13.2170658  38.0192032  22.4293995  13.8975058
  38.0564919  21.2137642  12.9964943  71.6724930  20.2473278  35.4380646
  72.2439346  20.7529736  34.8601379  72.1609955  20.1794796  36.2584267
  81.2086182  30.8725967  36.2082825  81.8407288  31.5823936  36.0948868
  80.3998260  31.3118744  36.4711800   0.7648411  16.0750504  56.2426071
   1.6888152  15.8935680  56.4145622   0.7605345  16.9512234  55.8572044
   7.0809240  20.3789349  58.7945862   7.2248898  20.8868828  59.5930176
   7.9161010  20.4227581  58.3289757  45.2252197  64.7963562  11.8450747
  45.2485428  63.8560104  11.6677589  46.0363235  65.1322174  11.4635677
  85.2121658  33.5986481  64.1475220  85.1323929  32.6899529  64.4375916
  84.8348999  33.6032448  63.2678146  51.2279663  65.1106339  25.4844761
  51.8589973  65.2304535  26.1941776  50.9981880  64.1822052  25.5224915
   5.8275900  41.0350227  20.0963993   5.2331829  40.5232124  19.5477982
   5.4441690  41.9119415  20.1116295   9.2195501  34.7089844  81.8662338
   8.3822908  34.3776894  81.5414658   9.3163033  35.5651703  81.4493256
  69.2752838  29.5161304  75.6254501  69.0110474  28.6823483  76.0143127
  69.9527512  29.2807407  74.9915237  77.7643433  64.7338943  58.5619812
  78.5150528  64.2703781  58.1907310  77.3159714  64.0763626  59.0938148
  11.7941494   7.9823647  25.1540012  12.0553408   7.2730360  24.5667515
  11.7573776   8.7567921  24.5926266  69.6759415   5.2730155  72.0930252
  70.0079193   4.9462624  72.9292450  68.7254181   5.1829109  72.1610107
  80.1939697  26.9594517  40.3395157  79.4843597  27.3436794  39.8246841
  80.3417892  27.5855236  41.0483284  64.2574310  32.7271423  30.4188595
  63.4479179  32.5506783  30.8982162  63.9654388  33.0471268  29.5652885
  66.3965759  69.0043106   1.3003228  65.5556870  69.3543549   1.0060426
  66.8248444  69.7425308   1.7337378  82.3034286  16.3887081  23.8305607
  82.1837006  17.0342484  24.5271053  83.2428970  16.2053223  23.8328629
  75.3431473  67.8731003  52.9713707  74.5286636  67.4013519  52.7973251
  75.0922241  68.7967453  52.9593353  62.1994171  38.4829865  65.3415985
  61.8608742  37.9649696  66.0718613  63.0830231  38.7312088  65.6133652
  55.0634270   4.7065272  31.4393139  54.5484428   5.4690132  31.7032051
  55.9483986   4.8956079  31.7512436  30.0004005  45.0416451  28.2091351
  29.4485455  45.7074928  27.7988529  30.8818359  45.4142227  28.1870003
   3.0850115  18.2209969  12.4890661   2.8932316  17.2837486  12.4572020
   3.9354298  18.2767792  12.9248505  15.4911489   0.8173330   1.5418004
  15.6916752   0.2295685   2.2701919  14.8043728   0.3654742   1.0514998
  70.5078201  13.1099863  49.1791077  71.1301727  13.7478533  48.8297729
  69.8463287  13.0202694  48.4930954  75.9209976  67.6405334   5.6259303
  75.6335602  67.3150177   4.7729068  76.8721161  67.7132797   5.5464339
  76.2840424  30.0426064  79.0710983  75.6425858  30.4683380  78.5023117
  75.8012009  29.8505821  79.8749771  55.1704025  28.4268303  33.5018997
  54.5552826  28.4231567  32.7685204  55.0310707  29.2729969  33.9271317
  26.4443207  41.1860428   8.8524141  25.8204918  40.6461830   8.3670073
  26.1029205  42.0767441   8.7728567  39.5393867  16.7927589  76.7838745
  40.0929146  16.0542831  77.0378342  38.7320023  16.3886929  76.4659271
   3.9575324   9.1666508  66.8937225   3.3561080   9.9088497  66.9542313
   4.1389818   9.0810909  65.9577789  41.8444977  32.7284966   0.0766361
  41.7047920  33.0604630   0.9634914  41.0198021  32.2992668  -0.1511166
  79.1798935  22.9343281  30.6372395  78.7682724  22.9254971  31.5013695
  78.8624420  23.7397785  30.2289448  82.7935486   1.3811419  63.9672890
  82.2715912   2.1323714  63.6854286  82.4826279   1.1921071  64.8526306
  68.6534882  12.8022461  38.6554298  67.8044052  13.2100515  38.8256874
  69.0461121  12.6957932  39.5218849  86.1580887  39.3109894   4.6041808
  86.9748383  38.9001236   4.3207216  86.2078857  40.2037239   4.2624612
  48.7051239  46.8762512  59.9980659  47.7920685  47.1632576  59.9843140
  48.9175339  46.7977562  60.9280930  30.8647785  12.8512535  35.3601608
  30.2575874  13.5678711  35.1757355  31.5537987  13.2516098  35.8904419
  47.9395409  61.3123512  24.2016373  48.8583450  61.4788437  24.4121494
  47.4580612  61.6228943  24.9684296  74.6938934  43.0068436  64.7627792
  75.0372086  42.8634872  65.6447220  73.8423996  42.5695877  64.7632141
  33.6319237  56.2037048  65.9229355  33.2352753  55.7222252  65.1969299
  33.7876129  55.5393677  66.5942383  82.8416061  57.9395065  80.5221252
  82.2463989  57.1959839  80.6176987  83.5139618  57.6315002  79.9144287
  43.4958534   9.6706171  32.2529488  42.9452934  10.0904226  31.5919819
  43.3183022   8.7352858  32.1536369  56.0435524  59.7976418  83.5094528
  55.3600998  59.7094841  82.8451080  56.8626480  59.6880684  83.0264282
  67.1975784  67.8878555  22.6678925  66.8510971  68.2571182  23.4801903
  67.6594543  68.6156998  22.2517910  58.0836754  12.5791130  32.3954659
  58.3435974  13.0290709  33.1993408  58.9084702  12.3993149  31.9442253
  66.0369644  54.1781082  67.9553604  66.4816055  54.1273880  67.1092148
  65.7321777  55.0837250  68.0118561  20.6133976  43.8740959  49.8548698
  20.2846012  43.3018646  50.5481796  21.2968426  44.3941650  50.2775574
  67.8777695   6.3557677  21.4623241  67.1685867   6.5189562  20.8405037
  68.6372833   6.7954845  21.0801945  52.8944435   2.2064254  14.2857771
  53.2116394   2.2623396  13.3843946  52.3655853   1.4088087  14.3045387
  48.9103737  65.2851028   1.1003610  49.4468498  65.9701538   0.7014472
  49.4254303  64.4852982   0.9942481  54.2326241  38.0113335  15.7632723
  54.9311028  37.4817123  16.1478043  54.6237450  38.8775635  15.6496944
  86.0398865  60.4597664  10.7516031  85.4059753  61.1508713  10.9433537
  85.7354431  59.7078247  11.2596636  79.5214920  43.1331902  40.7728271
  79.8187637  44.0226517  40.5812149  80.0770111  42.8458710  41.4974442
  40.5723457  35.4537697  19.7258759  39.8772507  36.1116943  19.7113667
  40.1288719  34.6321297  19.5149956  60.8934021  54.1623421  11.6707516
  61.5249634  53.5130653  11.9802732  60.5764809  54.5871468  12.4678278
  75.0145721  49.5005074  40.5377197  74.5850601  50.3447189  40.6757774
  74.3065948  48.9113655  40.2771072  64.9154587  64.4845428  41.8223190
  64.2090302  63.8792992  41.5967712  65.6806717  63.9233856  41.9479218
   7.9589744  52.3330154  44.2482758   7.7806606  51.3927498  44.2665253
   8.0030003  52.5863876  45.1702805  62.5475960  44.0669899  60.2663040
  62.1680832  43.9277916  59.3986473  61.9273682  44.6463699  60.7088737
  26.7522602  38.1804008  10.1694651  26.6296501  38.2635994  11.1151266
  25.9618912  38.5652122   9.7906981  49.3199615   0.3119579  72.9506760
  49.8989105  -0.3612255  72.5930862  49.5464020   0.3537342  73.8797684
  20.2156639  55.1229515  80.7980499  19.9333057  54.5356712  80.0969009
  20.0887012  56.0016136  80.4401855   6.6257319  35.1150017  50.3545914
   7.1739173  35.8251495  50.0208054   5.9793062  34.9667511  49.6643829
  11.2547073  58.4293404  28.5496521  10.5130005  58.8814087  28.9518204
  11.9756050  58.5562782  29.1664391  46.3625908  61.6075897  84.7441864
  45.5425911  61.1414642  84.9071503  46.4087372  62.2619591  85.4412537
  58.3882217  11.0066862  76.0883484  58.8811378  10.5713234  75.3928452
  58.7859039  10.6886911  76.8988800  48.3936348  26.5984039  80.5831070
  48.2965126  26.4785728  81.5277939  48.9981003  25.9064064  80.3147888
  18.3294735   6.4452739  88.4379959  18.4772720   7.2313762  87.9122314
  17.7396564   6.7311015  89.1356049   2.9805510  21.0007553  82.1633453
   3.9271045  21.1262321  82.2306061   2.6406865  21.8639259  81.9274292
  63.9140396  38.2313652  36.4878616  64.1158218  38.8341064  37.2035599
  63.3737030  37.5522995  36.8917656  45.5753937  10.9919872  35.5857468
  45.5212669  11.6855497  34.9282722  45.9762535  11.4133940  36.3459854
  52.2615852  55.5104027  67.8319168  51.7618866  54.7213745  68.0416031
  51.6229820  56.0980873  67.4281311  43.8604088   8.3430376  86.9277039
  44.2876320   8.4434128  87.7783737  43.9248390   7.4073968  86.7362442
   4.2468052  30.7470665  61.6751060   4.3681269  31.6042252  62.0835037
   5.1355796  30.4336338  61.5075569  12.0949554   1.8869216  46.2479973
  11.7680607   2.3251939  47.0336723  12.5815649   1.1322875  46.5796127
  20.1063232  56.5418320  75.6578522  19.3950424  56.6455688  76.2899475
  20.1195698  55.6045876  75.4638748  62.7969208  18.9856396  11.0486336
  62.1453323  19.3731194  11.6330338  63.2574501  18.3471622  11.5931435
  39.6470718   5.9374714  50.1395607  39.3492165   6.6925201  50.6469269
  40.5997810   5.9478188  50.2315941  62.3377151  50.3332710  77.0339355
  61.9103889  50.3530464  76.1776428  61.7972755  49.7418175  77.5577164
  69.4165573   4.5818672  19.0646782  68.8829803   4.0795679  19.6804867
  70.1527252   4.0053287  18.8599796  61.6871681   3.5943074  62.9624710
  62.5465889   3.8859196  63.2667618  61.4431648   4.2296114  62.2893562
   8.2366381  57.6714516  86.9662552   7.2843208  57.6031723  87.0345306
   8.3928118  57.9479179  86.0632553  17.0772762  54.2457199  42.9748535
  17.1154118  54.0443192  43.9098473  17.9922333  54.3556747  42.7160149
  49.6291771  10.5416193  74.9144974  49.3602753  11.3009310  75.4315796
  50.2767639  10.0967093  75.4612350  84.7839813  57.1221809  14.5435152
  84.4187927  56.3280182  14.1534281  85.5237503  56.8136673  15.0667696
   9.5028868  52.5905418  50.3308525   9.2091770  51.6822815  50.2599487
   9.0739059  52.9200363  51.1205635  53.8314667  48.7639809  51.3279381
  53.0427589  48.2520599  51.5071259  54.5491943  48.2189178  51.6504402
  73.7323456  28.9844532  61.9183655  74.2872925  28.4057503  61.3955154
  74.3332748  29.6443634  62.2642555  76.4126740  38.2153244  74.2374344
  75.8243561  37.6578941  73.7281342  76.0833664  38.1548462  75.1341705
  66.9077988  16.7429371  18.5743961  67.3413925  16.4379711  19.3714066
  66.2735062  17.3914261  18.8799496  42.7506485  17.4247227  76.4074860
  43.4090881  17.7664509  75.8025818  43.0052948  17.7745533  77.2613068
  15.4022427  31.2745132  78.5742416  15.0103254  30.4598103  78.8887100
  15.3505793  31.2126083  77.6204376  80.2137680  67.4763641  29.3705006
  80.7351608  67.3962708  30.1692295  80.6965866  66.9697189  28.7174873
  20.1458263  61.8883018  67.5354691  19.4120007  62.0007057  68.1397018
  20.5638905  61.0739517  67.8152618  26.4416428   7.1580100  44.9699173
  27.1117001   6.5110497  45.1905937  26.9305668   7.9665828  44.8169632
  45.6937828  50.0547104  40.1704865  45.2939301  49.5193176  39.4851379
  45.0096283  50.1446953  40.8338623  62.0713043  34.5382576  75.4427948
  61.7951469  34.0707855  76.2311096  61.2547417  34.7423477  74.9869385
  18.0316525  47.6616669  82.0045090  18.9623928  47.8851128  82.0096207
  17.8010254  47.6175270  81.0765533  32.0326614  64.2744522  22.0140018
  32.6099548  63.5555000  22.2710495  32.6249733  65.0043640  21.8333778
  51.3531075  63.8456345  80.6400452  51.5096092  64.6184006  80.0973053
  50.3997116  63.7815361  80.6962738  72.6929779   9.6047955   0.4484022
  73.0156555  10.4944801   0.5918356  72.2573929   9.6423702  -0.4031154
  75.2975540  14.5131607   8.6102085  76.1350403  14.8048468   8.2499695
  74.9962387  15.2495365   9.1423664  32.1027832  63.7324028  28.7757969
  32.9884033  63.8179283  28.4228210  31.9378414  64.5673828  29.2137814
  21.0972500  14.7764864  63.8354950  21.2770977  13.8572855  64.0328751
  20.1933441  14.9102659  64.1206131  19.0239162  12.5325365  56.6620789
  19.3662872  12.8706980  57.4895210  18.0765629  12.4929523  56.7931709
  52.2094803  14.3987589  22.7896633  52.7783966  14.8472290  23.4153156
  52.8089485  14.0397625  22.1354523  81.5752182  31.4436436  81.9921341
  82.1926575  30.7130432  81.9571304  81.6230469  31.8395538  81.1219635
   4.6457148   4.6809864   1.2970879   4.4134808   5.5601330   0.9980895
   3.8269434   4.1875124   1.2488306   9.2141962  67.5532303  59.7553596
  10.0689564  67.5609131  59.3245926   8.5831890  67.5666122  59.0357170
  13.5497561  40.1500053  14.7019138  13.2606430  40.3901291  13.8215809
  14.3622475  39.6634521  14.5627909  10.6555023  49.7295723   2.4320695
  10.6154566  50.6002808   2.0364745  11.1040840  49.1908035   1.7803544
  26.2284775  60.3936119  21.6407013  25.3767433  60.5526199  22.0475159
  26.0197163  60.1139259  20.7493954   8.6703033  15.2287903  35.6171303
   8.6639519  16.1859703  35.6174011   9.1687317  14.9928017  34.8347588
  15.6656628  17.2858639  41.7410583  15.3594294  16.4112473  41.5012741
  14.9625692  17.6459637  42.2816315  70.4022751   1.8189948  56.9679222
  70.6645584   2.4930010  56.3409004  71.1731415   1.6937492  57.5213776
  57.7660866  42.4983177  80.2876892  56.8359413  42.6295204  80.1036987
  58.2126884  43.1358643  79.7306366  73.3697128  11.9776020  17.4775143
  73.4060440  11.0367613  17.6499386  72.6345749  12.2896013  18.0052166
  72.2137222   8.6463470  10.2106905  72.4643707   8.0230427   9.5288544
  73.0428772   9.0171099  10.5127945  29.9699688  49.1743622  19.9376221
  29.6828995  48.6848068  20.7084370  29.1852055  49.6348228  19.6403770
  24.9062614  35.8081665  63.3508682  24.3054123  35.1508331  62.9999771
  25.5908699  35.2993202  63.7851753  39.1928711  51.3460617  75.2105560
  39.0995369  52.2897491  75.3408356  38.6209106  51.1489525  74.4687805
  30.9923859  58.3535728   1.9061427  30.3308945  59.0022850   1.6656567
  31.1477356  57.8600349   1.1008357  39.4918823  32.1692696  11.8461304
  38.5523262  32.2716942  11.6945553  39.8860817  32.9385529  11.4349833
  53.3055077  30.0130386  68.3542252  52.8221588  30.7166615  67.9211884
  52.8683777  29.2109337  68.0682526   8.2160025  29.0915108  22.9864635
   7.3426170  29.1950722  23.3642273   8.0868616  28.5036716  22.2421513
  78.8830566  70.2594376  34.4132042  79.4315186  69.6236496  33.9536400
  79.4784546  70.6904373  35.0263710  18.0244179   3.6682506  67.7281265
  18.5867462   4.4250908  67.8930893  18.3828812   2.9775178  68.2854691
  37.0098495  13.1048517  35.2047539  37.1248283  12.3711929  34.6008034
  36.3993568  12.7777653  35.8654671  25.7414379  52.1851234  56.6630630
  26.5835686  52.0522003  57.0982399  25.6874657  53.1314545  56.5297356
  77.2186127   1.3584121  79.1906052  77.5918274   2.1217422  79.6313629
  76.3527985   1.6476706  78.9026413  24.9126568  43.5590363  35.9063835
  25.7676067  43.2376785  35.6199913  24.2864437  43.1182594  35.3320999
  15.9168701   1.4355825   6.1450710  16.7694969   1.4800600   6.5778322
  15.8987474   2.2022290   5.5722218  46.3226357   5.2546382  88.4496841
  46.9522209   4.9740620  89.1138687  45.8323784   4.4612932  88.2340851
  58.5699120  54.6242218   1.7612853  57.9506493  55.3445816   1.6437031
  58.0307503  53.8347359   1.7139058  82.2318878  23.7620220  23.3046360
  82.9347153  24.0131836  23.9039574  81.4632263  24.2333183  23.6260014
   0.6612148  70.3889160  40.3051758   0.6642404  69.7919235  39.5569611
   1.1640048  69.9311295  40.9788742  76.3457336  69.5572205  59.3104286
  76.5124054  68.6323471  59.4922638  76.6373978  69.6800537  58.4070587
  19.6934242  49.0250511  71.0246429  19.7460308  48.4138412  71.7594147
  20.4007473  48.7562675  70.4384003  62.4230804  36.0342102  34.5362892
  62.1169815  36.9055634  34.7878532  62.9609604  35.7470284  35.2741547
  32.1197014  46.2059517  22.5484085  32.4196587  45.9593391  21.6735153
  31.4561214  45.5517654  22.7673454  53.3747940  53.0661736   3.4424248
  53.1075439  52.6005707   4.2349038  53.3894272  53.9880371   3.6996839
   9.8748798  20.0248508  76.3547287  10.2487888  20.9026012  76.4320450
  10.6336880  19.4415073  76.3423538  32.7021790  43.0269432  42.8291893
  33.5729752  43.4089584  42.7195969  32.1008224  43.7178879  42.5513420
  66.4202042  47.5035820  14.2995577  66.9356689  46.9769592  14.9104557
  66.5866699  48.4084015  14.5638132  69.2786636  57.0166550  50.8740273
  68.4987869  57.4414864  50.5168991  68.9489517  56.2179871  51.2859154
  71.2083588  30.4724865  78.9020004  70.7282333  30.1913090  78.1231232
  70.7243195  31.2347965  79.2195282  15.6442442  54.4216537  78.3267136
  14.8083515  54.2819824  78.7716904  15.8879223  53.5564423  77.9976730
  16.9954071  56.0570335  86.5979614  16.7291775  55.3217697  86.0459290
  17.8894348  55.8441734  86.8656158  19.6199951  41.3861732  61.2218170
  20.0260334  41.3027039  62.0846024  20.3429699  41.2725716  60.6048622
  15.4744673  60.1085777  23.8199387  15.9090977  59.3263397  24.1596947
  14.7029448  59.7742996  23.3625050  55.6083069  68.6813583   4.1756434
  55.9396782  68.2077789   4.9386282  55.3597412  67.9946442   3.5568771
  70.7831421  16.7519722  31.5339794  70.9052048  17.0400791  32.4385948
  71.6615829  16.5132179  31.2380543  37.1048622  33.5727425   2.6733210
  36.8188324  33.7283669   1.7732086  38.0239944  33.3181763   2.5919399
  59.7166290  56.6074867  68.7740097  59.2820015  55.7584839  68.8548203
  60.0747948  56.6096840  67.8863525  13.7416821  44.5965424  68.8534164
  14.1935368  43.7585831  68.7539978  14.0402193  45.1194038  68.1092911
  60.8594208   4.0215044  20.7275696  60.8793488   4.8176436  21.2586040
  60.1920929   3.4741602  21.1414776  85.9134216   8.0921659  15.5265951
  86.2254028   7.1873012  15.5157537  86.6148148   8.5822201  15.9556913
  48.0416336  57.8190041   8.2803268  48.1136780  57.2255096   9.0278587
  48.1260681  57.2509842   7.5145235  17.2601871   6.9034977   1.6471814
  16.6508579   6.3151278   2.0930181  16.7122841   7.3998742   1.0391979
  50.9898262  30.9339085   6.2066264  51.8327332  30.6931934   6.5910649
  50.6460953  30.1144619   5.8508353  25.1884327  60.4374199  67.4214935
  25.7463455  59.7882690  66.9930420  25.6629219  61.2629623  67.3236542
  39.5558624   9.6595020  25.6033154  38.9084663   9.5396862  26.2981224
  39.1826630   9.2060833  24.8474293  60.3903847  20.7034664  23.7230301
  59.6364708  21.0293827  24.2145824  60.0090637  20.1723347  23.0239410
  48.3893433   4.3761292  58.4038963  48.4251862   4.0416245  59.3000298
  49.0434418   3.8623829  57.9301338  69.7140350  44.7612228  86.1141891
  69.0964355  44.0828896  86.3874588  69.3032303  45.5822945  86.3849564
  31.6042461  65.1189194   9.7819347  32.2623558  64.7511444   9.1921320
  31.6085548  64.5344009  10.5399275  46.1330070   1.0909359  40.9174995
  46.3222313   1.1878977  39.9842148  45.2146416   1.3467386  41.0035286
  60.8804817  54.1105499  52.8610306  61.1607208  54.5004196  53.6891022
  61.1773033  53.2019348  52.9115105  71.4001007  35.9448051  65.5321960
  70.6548462  35.3734093  65.7174759  72.1216049  35.5684242  66.0361786
  48.3632774  11.1170979  47.5916939  47.9481621  11.6984348  48.2288437
  48.8838997  10.5135679  48.1217270  33.6410103  55.5149040  60.6909561
  33.2424393  56.1145210  60.0602150  33.2911034  54.6549416  60.4580154
  78.2884140  10.6148262  44.5302277  78.8402481  10.3371134  45.2613831
  78.6196518  11.4817963  44.2959709   7.1824350  32.9851379  31.6994324
   7.9743214  33.1767654  31.1970100   7.0458593  32.0450478  31.5819263
  62.6483917  22.9366169  25.7355404  62.8933563  22.0117836  25.7656288
  63.1089630  23.2816181  24.9706326  10.6219521  27.9749584  15.0421925
  10.9962349  28.2455158  14.2037754  11.3548374  27.5815830  15.5158672
  60.2628212   6.1791425  41.8286476  60.0569344   5.3773627  42.3092651
  60.0554237   6.8852425  42.4407272  64.3176727  11.9314632  72.8071442
  64.3642426  12.7546120  72.3208389  63.8593292  12.1571016  73.6166153
  26.6295967  36.4123383  82.3056717  26.5455303  35.9348450  83.1309967
  27.5521240  36.3191948  82.0679703  33.7277641   9.2051268  86.2368698
  33.2023659   9.2089338  87.0369797  34.5993576   9.4801111  86.5213623
  18.8357182  22.5526295  76.0377579  18.3896389  23.1731720  76.6140976
  19.6648235  22.3689632  76.4794388  17.0333824  24.7105541  13.6274061
  16.9092083  23.9047337  14.1288710  16.3172054  25.2801723  13.9082203
  76.9531021  31.5555134  39.0121155  76.3245773  32.2277832  38.7489777
  76.5377197  31.1167221  39.7545128  65.5292511  58.9150047  84.9096680
  64.8188782  58.7099304  84.3017654  65.0864487  59.2245712  85.6998138
  23.0113659  45.7059021  11.5826206  23.9096050  45.8790207  11.3007908
  22.7818165  44.8798141  11.1570358  75.8728256  27.3001404  25.7161083
  75.8544769  28.1279812  26.1962929  75.9378281  26.6299953  26.3964844
  36.5675697  24.9340935  78.6303024  36.0993881  25.6651382  79.0335541
  36.4133186  24.1962700  79.2202606  38.8645325   3.2232313  24.2977982
  38.2985916   2.4513965  24.3124504  39.5641518   2.9956529  23.6854458
  75.3065720  67.1258469  46.4144707  75.9706726  66.6873550  46.9463806
  74.8880997  66.4189301  45.9231682  83.1599503  14.2825403  81.3218079
  83.1430511  13.5269632  80.7344055  82.2643356  14.3484344  81.6531143
  52.6798439  37.1551857   2.7616777  52.6302910  36.2115402   2.9143581
  52.5311775  37.5453110   3.6230328  52.7205887   2.2010067   2.5021079
  52.7964363   1.2578557   2.6468341  53.3115997   2.3793623   1.7705854
  40.2500191  44.7798653   1.1452332  40.5892181  43.8889656   1.2316936
  39.3589821  44.6658669   0.8146470  28.6616077  34.0808525   9.6786108
  29.3520527  33.7377815   9.1113176  28.9558125  33.8742714  10.5657415
  20.5220318  39.7809944  26.7843647  21.4034882  40.1222305  26.9354382
  20.6627769  38.9130745  26.4060268  15.1637516  18.7619591  62.1327324
  15.2394524  18.0115376  61.5433540  15.9807911  18.7582397  62.6313972
  61.0260353  68.4750443  75.7645874  61.7271194  67.9791565  75.3417282
  61.4468803  69.2838745  76.0559845  49.6734505  66.5649567  57.7651711
  49.4959412  65.6796875  57.4473419  49.1515579  66.6418228  58.5638885
  47.1361122   0.3215418  71.1599731  47.2278633   1.1730977  70.7325745
  48.0109787   0.1266719  71.4959259  40.4860611  68.7546844  17.6688499
  39.9945984  67.9389496  17.5725594  40.4234657  69.1747055  16.8110065
  12.8273773   3.0292566  30.7775612  13.6901894   3.0778077  31.1891804
  13.0124283   2.8812070  29.8501625   0.6136189  30.2997456  29.1440773
   1.4802098  29.8953114  29.1030216   0.0398159  29.6044445  29.4658527
  23.1487694  32.9880600  21.7098980  22.8995342  33.9032097  21.8387947
  23.5595093  32.7330475  22.5360279  21.1116314   2.3491559   3.7879238
  21.8397064   1.9131188   4.2306538  21.5288124   2.8937130   3.1203544
  73.9401016  49.1093597  88.7387772  73.5428391  48.2839127  89.0163651
  74.2414246  49.5154037  89.5515289  61.3199692  13.3640013  19.4126530
  60.9385338  12.9202814  18.6551228  61.3186951  12.7017946  20.1038208
  48.9301186   4.0823765  46.6427689  49.5003548   4.0726848  47.4115143
  49.2882271   3.4039006  46.0703506  34.2671242  58.9572411  32.8744316
  33.9942017  58.7713966  31.9759865  34.2354126  59.9115410  32.9418411
  22.4864197  40.2960129  87.9693298  23.0060806  41.0871048  88.1120148
  23.1339169  39.5961418  87.8846893  15.2563353  29.5188484  26.8949432
  15.5684347  28.9062405  26.2289581  15.1596088  28.9858665  27.6841240
  43.9510345  69.2283554  26.3666172  44.4999390  68.7849884  27.0134201
  44.4844933  69.9628067  26.0628986  36.9832077  68.2319946  33.4376984
  36.5899734  67.5584869  32.8827286  36.2968559  68.8918610  33.5363197
  72.9783783  48.3667984  37.0842209  73.1953659  49.2740974  36.8698654
  73.5828247  47.8448792  36.5565109  73.1112442  28.3982773  36.9731636
  73.7587280  27.8477497  37.4135246  73.3821106  29.2940750  37.1741829
   4.6300416   8.1734915  87.7317734   5.5320063   8.2877731  88.0311584
   4.2257423   9.0321369  87.8562851  56.0824242  12.2199078  73.1698303
  55.1585846  12.2861023  72.9282303  56.3154945  11.3114223  72.9786148
  74.9236374  13.8972130  79.7269440  74.8383636  14.6345978  79.1226120
  75.7453995  14.0606642  80.1897888  28.6162052  45.0029335  45.2194481
  28.5680618  44.0648880  45.4038048  29.5480480  45.1722565  45.0807762
   2.8458133  29.5956440  27.0191383   2.5665178  30.0514164  26.2250996
   2.5156059  28.7036152  26.9119949  73.3332825  21.3675938  72.0851746
  72.6130219  21.7215538  72.6068726  73.6481171  20.6173534  72.5894089
  81.2269363  58.5543480  13.4963446  80.5381088  57.9110107  13.3294268
  81.4152832  58.4666100  14.4307203  41.6561203   3.2771146   5.2712231
  42.0955353   4.1265936   5.3103857  42.3010139   2.6919677   4.8737946
  85.1939087  38.4174538  79.7673645  85.0812836  37.4678307  79.7253571
  84.6907349  38.6845322  80.5365906  17.6031704  29.3167725  12.8103352
  17.0877056  29.0756893  13.5800161  17.9748516  28.4901485  12.5024719
   4.9530497  62.2328453   9.0882177   4.2789688  62.8600311   9.3499060
   4.4637446  61.4732132   8.7723436  68.5588608  71.2082596   9.0583601
  67.6062012  71.1734161   8.9720860  68.8785324  71.2756424   8.1586342
  41.3017921  20.3885803  84.1439438  42.0442009  19.8412266  83.8880768
  41.2687454  20.3166847  85.0978699  45.8668480  56.3309517  76.1785126
  46.4624367  56.7839241  75.5815811  45.9932327  55.4022903  75.9839706
  79.6000214  65.5632324   4.1220126  80.2580338  64.9774323   3.7477412
  79.2526703  66.0443115   3.3709133  49.2944450  66.3384323  69.6056442
  50.0892525  66.8342361  69.4089355  49.4483986  65.9752579  70.4777832
   7.1114850  20.9211597  45.5958672   7.0866318  21.6219158  44.9442863
   6.2521272  20.9543095  46.0161476  57.6386566  70.3309479  30.2264538
  57.8655739  69.4484329  29.9333324  57.2627449  70.2047043  31.0976505
  47.6175766  67.2076645  87.8699112  46.8896408  67.6574783  88.2988739
  47.9065018  66.5561829  88.5089188  53.0551643  66.5104599  17.3617992
  53.3274612  65.5937195  17.3207951  52.3461761  66.5785522  16.7223225
  47.1714439  35.1185036  15.4478254  47.6953278  35.3593712  14.6837816
  46.7102051  34.3233490  15.1809568  82.7584381  41.5752716  67.9769287
  83.4147263  40.9484634  68.2812881  82.5234146  42.0746841  68.7589722
   6.6871295  31.3320580  69.0977173   6.3622785  31.8711758  69.8188629
   5.9182005  31.1774521  68.5490112  72.3411713  24.4472885  82.5433655
  72.3085327  24.9756622  81.7458725  73.1629944  24.6995316  82.9643326
  85.8632431  36.7399712  85.8695221  85.9230347  37.6907158  85.7760468
  86.4696808  36.5305405  86.5798798  59.1913948  17.4265728  32.9122047
  59.8566170  16.7804012  32.6752014  58.5135231  17.3287754  32.2435074
  28.2817364  66.9878159  10.8393841  28.6061707  67.8812790  10.9520674
  27.7823048  67.0155029  10.0232744  44.4456291  55.2913971  20.1627350
  44.0844383  55.9763298  20.7254410  45.3749733  55.2601852  20.3898296
  59.5163803  15.3396473  43.6991119  60.0790062  14.7636690  43.1814919
  58.6743774  15.3241034  43.2441101  62.0481415  39.4058571  56.3607292
  61.2631721  39.5907974  56.8763390  62.0104675  38.4635620  56.1967239
  55.7723236   9.3452396  40.9819145  55.1544189   9.1679859  41.6911469
  56.0276375   8.4790058  40.6646080  11.2824554  10.8423948  85.5782623
  12.1539145  10.5580053  85.8537903  11.1886101  11.7199612  85.9488068
  27.3559990  45.7197495  71.4309311  28.0568008  46.3536797  71.5833817
  27.7262688  44.8819466  71.7088089  39.9943695  14.3248692  49.6690483
  40.8326530  14.7561073  49.5030823  39.4977379  14.9581003  50.1873207
   8.5553417  49.5248795  85.5826645   8.7925081  48.8767090  84.9194412
   7.6042137  49.4507256  85.6606903  34.3475113  57.2192993  71.8406754
  33.5399513  57.2231789  71.3268051  34.7262650  56.3541069  71.6850662
  16.4896088   3.6509933   4.3080072  16.3290043   3.4891312   3.3783629
  17.2553825   4.2251148   4.3223634  26.4827614  68.1078339  33.6879425
  26.7100010  67.7345734  34.5395699  26.6338062  69.0474854  33.7902794
  26.4420586  25.7196198  19.9793224  27.0964165  25.0210972  19.9686794
  26.8614845  26.4334145  20.4597492  33.2586479  60.0179253  35.8472061
  32.8688087  59.2722626  35.3908691  33.2803497  60.7151680  35.1917572
  68.0582504  40.9812241  70.0341415  68.7422867  41.5456696  69.6739655
  67.2416992  41.3488693  69.6960373   6.1056862  24.4903355  25.1506424
   6.2707109  24.8105736  24.2638245   6.9561081  24.5437775  25.5867138
  61.1913567   3.1192319  88.3961868  61.2202492   3.9646983  88.8440552
  60.7452354   3.3014240  87.5691376  52.9670372   4.2120199  73.8628540
  52.0955238   3.9383976  74.1489105  53.4216347   3.3935795  73.6635361
  11.0954905  36.5954857  12.7837591  10.3231564  36.3219299  12.2888870
  10.9444685  36.2608032  13.6677341  50.2593651  43.7499695  43.3980293
  50.5669289  43.8412590  44.2998619  50.6691704  42.9432831  43.0857048
  72.6834488  47.5141487  28.8338032  72.5053024  47.6491966  27.9030724
  71.8531189  47.7106781  29.2675724   9.4818001  71.5581894  55.0618134
   9.9734955  72.0275726  54.3879128   9.2878962  70.7075500  54.6680527
  45.0039864  64.6250763  23.0808811  45.8455811  65.0764999  23.1454620
  44.4081497  65.1518478  23.6135387  40.7502937  57.5539474  60.3307533
  40.4055252  56.8201485  60.8395844  41.3460312  58.0025673  60.9308128
  10.9372835   5.3861961   2.6154637  11.1858330   6.2992282   2.7597809
  10.4270000   5.4019918   1.8057768  49.3949814  71.5911179  69.0493088
  50.2400055  71.1751633  69.2200317  48.7494354  70.9141159  69.2522049
   2.4654477   4.6400251  71.1595688   2.4751587   5.3415632  70.5084305
   3.0987034   4.0010157  70.8326340  10.0107746  42.6736946  37.7126503
  10.7727661  42.1796341  38.0151482  10.3661041  43.2990608  37.0810699
  12.6697731  28.5431614  86.0572433  11.8582411  28.9618950  85.7703476
  12.6224623  28.5588970  87.0131454  52.4040565  52.9518967  65.3929062
  52.9295731  52.6210060  64.6645050  52.0736885  53.7961502  65.0857849
  32.7998085  54.9997444   1.8309889  33.4746857  54.8689613   1.1649063
  33.1742134  55.6482735   2.4271955  12.3052807  71.6922760  40.2895355
  12.0513601  71.0518417  40.9540672  12.0323286  71.2985916  39.4608383
  86.0640259  66.9119720   0.1771529  86.0226288  67.7170410   0.6932693
  85.3951721  66.3458633   0.5623574  60.7927322   8.4897690   6.0447221
  60.6918526   7.5833597   5.7540727  61.6854324   8.7245836   5.7913847
  63.4445152  40.5114326   2.4517078  63.0149040  41.3235779   2.7201898
  64.3593216  40.6283188   2.7080324  37.0796471   6.4090767  77.2796936
  37.7852058   5.7626195  77.2570496  37.5090752   7.2395911  77.0745926
  45.0537643  30.5969849   6.5944037  45.6371155  30.0882015   7.1574984
  44.1837044  30.2343979   6.7610044  43.3231850   0.4537841  28.3327045
  43.8384094   0.6569368  27.5519981  43.7728539  -0.2925777  28.7289047
  22.2550869  52.2074242  23.5427170  22.6971321  51.5677032  24.1009140
  21.6582623  51.6854630  23.0064449   3.7366171   5.6732707  52.1753197
   4.5073347   6.1733356  51.9066925   3.5309098   5.1250763  51.4180908
  67.4760818  48.4819946  65.0789490  67.1527176  48.1140060  64.2566071
  68.2918625  48.9220505  64.8400269  76.0216141  68.8223419  33.4814148
  75.7567368  68.2363510  32.7724075  76.9118118  69.0889511  33.2518539
  71.5990906  19.3461208  26.1568775  72.4479675  19.0310688  25.8464222
  71.6400146  20.2957115  26.0435867  65.8513794  38.1275444  55.8788414
  66.6975098  38.5741463  55.8496933  65.8029099  37.6519203  55.0495834
  57.0095863  30.1754208  28.7191772  57.8662338  29.8004360  28.5147972
  57.0334435  31.0513153  28.3338585  43.3304977  57.6267166   9.7296524
  42.6871796  58.3326035   9.7936783  43.8349304  57.8330269   8.9427519
  61.8367462  57.7478676  61.1937523  62.2293320  57.6317139  62.0589790
  61.4786148  56.8873749  60.9757576  83.6514206  17.6008205  76.2626953
  83.0605316  17.0825729  75.7163391  83.3192368  17.4836369  77.1527252
  69.2916107  42.9981956   3.6222048  70.1278305  42.8951302   3.1679435
  68.7364044  43.4663200   2.9986405  20.0710678   1.9027516  42.4551849
  19.6417141   2.7564154  42.3991051  19.9824104   1.6499724  43.3741379
  73.9250336  56.3362656   9.7465248  74.6872025  56.5686722   9.2161322
  74.1634064  55.5051003  10.1571074  81.8278351  70.5956726  32.7209663
  82.5635986  70.8204651  33.2904778  81.3212280  71.4050064  32.6534538
  59.0667877  59.4864845  53.5227547  58.6583977  59.0686150  52.7645760
  58.4094734  60.1072769  53.8370476  50.0120430  43.2706146  20.3858128
  49.2987099  43.5156136  20.9751854  50.2977104  42.4124985  20.6992855
  21.2867737  28.2257290  32.7471390  20.6229839  28.9128819  32.6885262
  22.1154156  28.6989613  32.8222008  59.0039635  44.8075714  25.5283298
  59.6442680  44.5536079  26.1929665  59.0297050  45.7644157  25.5242081
  83.7039948  54.5850220  67.3849792  84.3819733  54.6579971  66.7132187
  84.0550690  53.9525986  68.0118866   7.1068716  50.5551033   7.3510962
   8.0180187  50.4129181   7.6076603   7.1433344  51.2843819   6.7321820
  44.3412781  22.5461044  87.3363571  44.4203758  23.4207573  87.7170944
  45.2449341  22.2633228  87.1960983  64.5783691  22.5197716  85.0782089
  64.9087677  23.2602482  84.5695267  64.8081055  22.7295208  85.9834518
  28.0818405  59.3848038  83.1855698  29.0199394  59.2592506  83.3285370
  27.9860039  59.4106827  82.2335358  85.7420578  52.1360817   4.2070251
  85.9420166  52.5552216   5.0440245  85.1413727  51.4257050   4.4323540
  76.2689896  68.2612839  81.4548416  76.7892380  69.0637665  81.4148254
  75.4732361  68.4670258  80.9642487  65.9926910  29.2392693  48.8820648
  65.5864487  29.1414642  49.7432442  65.4025345  28.7791615  48.2851982
  66.5013199  27.7285595  88.9415436  67.2561340  27.1787548  89.1518021
  66.1580963  27.3626041  88.1263733  37.6928215  38.5675888  79.5726089
  36.8300667  38.5471077  79.1585236  37.5130157  38.4577141  80.5063324
  46.8032951  17.7398720  83.7161484  46.5803947  17.8326988  84.6423950
  47.6013451  18.2573929  83.6088181  68.0074005  63.0830650  22.9042645
  68.0276413  63.9497871  22.4985371  67.1356888  63.0217667  23.2948990
   2.4705393  64.9576569  38.5265160   2.0976970  65.7094498  38.0660515
   2.2311671  64.2037964  37.9874153  85.3041077  70.7301636   8.9962797
  85.1020432  71.3069839   8.2596054  85.8413467  71.2660599   9.5797358
  66.4554291   4.3091092  84.0353851  66.4348450   3.3982775  84.3289719
  67.2890930   4.6473360  84.3622513  16.2510567   0.2104518  19.7491131
  15.7805605   0.9766886  19.4208641  17.1524467   0.3380544  19.4534035
  44.9445038   7.8158259  45.2911911  45.4304543   6.9928732  45.3444214
  45.6212616   8.4920893  45.2611847  69.8433914  21.8340149  12.8112621
  69.1416931  21.9909706  13.4430981  70.2416611  22.6940193  12.6770887
  71.6041718  32.5005875  20.1113968  71.8680496  31.7195950  20.5978661
  71.1018295  33.0169830  20.7416496  64.1381378  57.0579224  57.3141403
  64.1521378  57.2544823  56.3774452  63.5633965  56.2962952  57.3904839
  30.5598488   6.3335376  41.3207817  30.8600674   7.1306329  41.7575188
  31.3336735   5.7709327  41.2907219  30.9972744  37.5676231   2.5163095
  30.7775822  36.7886467   2.0052698  30.8515987  38.2977180   1.9146681
  84.8497314  15.1872511   4.2296586  84.3828125  15.9647064   3.9234195
  84.2267838  14.4706240   4.1087747   4.5341396  23.4740677  20.0412865
   5.0887814  24.2250195  19.8299122   3.8029525  23.5358143  19.4266434
  42.0065384  50.6547623  29.1087914  41.4846535  50.3796501  29.8625698
  41.8867264  49.9553185  28.4664097   0.3642751  16.3389225  32.5943565
   1.1258372  15.8352690  32.3069763   0.2895592  16.1476822  33.5292778
  37.4868355  14.5116463  23.5577126  37.2717934  15.3813877  23.8946686
  37.9975548  14.6810246  22.7660637  35.9130745  11.3174543  11.9604511
  35.5016975  10.7158060  11.3399496  35.6227722  11.0109892  12.8195410
   7.3372521  34.6731567  17.5469208   7.9635463  34.3985443  18.2166786
   7.0741324  35.5544777  17.8120155   5.5229459  65.7541122  85.3504105
   5.5322070  66.6742477  85.6140289   5.6060715  65.2689133  86.1713257
  84.6161346  33.2726402  75.5899429  85.5037155  33.2980461  75.9474182
  84.7270126  33.4678154  74.6594391  56.9833069  45.8425827  66.0767059
  56.3555069  45.1662216  66.3309402  57.7770958  45.3588867  65.8482971
  16.8752213  67.9349670   1.9589012  16.4623432  68.5429077   2.5722308
  17.7502270  67.7892532   2.3185699  42.3855476  21.1192703  23.1163425
  42.7783241  20.2728062  23.3295574  42.8065300  21.7362442  23.7149658
  76.3322144  70.8187714  48.1623268  77.0711823  70.3942490  48.5981445
  76.3388748  70.4595795  47.2751007  59.2925339   8.4114656  48.7222443
  59.7728958   8.9157038  48.0655632  58.4701805   8.1787987  48.2911568
  61.2110558  35.2869835  19.4051266  61.7363625  34.5378685  19.1238575
  61.8180580  36.0267868  19.3835297  26.7795372  10.5455351  55.3989716
  26.7960606  11.4357262  55.7504196  26.0996952  10.1007671  55.9051628
  36.9596291  50.1329346  22.1898708  36.4508553  49.9013634  22.9668884
  37.6785049  49.5010414  22.1772041  51.3379745  41.5363197  17.7470970
  52.2567368  41.4605370  18.0047112  51.1599464  42.4765701  17.7686768
  22.6380157   4.7047057  12.2753210  22.5832767   5.6524429  12.3979197
  23.4117737   4.4429417  12.7743301  85.6949539  22.5801697  65.4283142
  85.0300522  23.0980415  64.9745026  85.8278809  23.0363140  66.2592697
  85.3283310   3.5315070   5.7347713  86.1150208   3.9496157   5.3847294
  85.0123520   2.9790969   5.0197649  79.6389847  50.4754181  79.6872482
  78.9479752  50.6767769  79.0562286  80.4497604  50.7185173  79.2402878
   4.1900792  50.1068001  51.2166824   4.7953286  49.6152039  50.6614952
   3.7316422  50.6909218  50.6126366  86.2135315  20.4590893  26.1069946
  86.5392990  21.2659245  25.7080879  85.5664673  20.1282120  25.4840527
  48.3423042  38.5316811  81.4001160  48.4794540  37.6236725  81.6701813
  49.1608772  38.7800598  80.9705963  63.8386078  43.3686981   3.4368811
  64.5713120  43.4591141   2.8276184  64.2471390  43.1306496   4.2691474
  58.7345772  21.0635395   9.9469433  59.1809921  21.1842918  10.7850161
  57.8984413  20.6584244  10.1771393  60.8619728  11.7354269  31.0959129
  61.3218155  12.5736732  31.0498676  60.6604881  11.5224037  30.1847286
  51.9182854  23.3533497  22.0165482  51.3680649  24.1351490  22.0642776
  51.3995743  22.6692028  22.4397697  23.9542923  50.5939751  17.6658535
  23.5134983  50.2166061  16.9045887  23.7999935  49.9631615  18.3690567
   0.5598409  23.3040504  18.4697075   0.3061512  22.3812046  18.4848232
   1.4739480  23.2965412  18.1858349  29.2581654  60.5071716  67.8443069
  28.7915287  61.0410728  68.4872894  30.1005211  60.9479599  67.7330704
   0.5621915  42.6716423  25.9424934   1.3352367  42.4561195  25.4207821
   0.5145811  41.9763298  26.5986252   9.8912020  65.5918121  10.2241297
   9.9505196  66.4841003  10.5654917   9.7162733  65.7039642   9.2897568
   8.0072651  33.6220818  87.8759232   7.8807316  32.9860611  88.5799789
   7.8081288  33.1362267  87.0755920  41.8982162  50.7552490  51.9143562
  41.7983398  50.2720985  52.7346115  41.0034790  50.9771881  51.6566391
  10.4096060  52.8793106   2.0186958  10.5092554  52.8811417   1.0666988
  10.0447779  53.7403564   2.2229843  44.7625923  64.0198975  32.1478500
  44.5586433  64.9523163  32.2201042  44.7186317  63.6947212  33.0470505
  37.9231071   1.3601291   5.3203506  37.3331871   0.7659867   5.7842689
  38.5668106   1.6211230   5.9789577  47.5131950  18.7779884  35.2874222
  47.1310844  18.9019299  36.1562500  46.9339943  18.1479454  34.8586960
  72.5913391  26.3436604  80.5680466  73.3378525  26.0035343  80.0748291
  72.6582565  27.2943172  80.4785843  18.4482574  37.5607109  12.0457039
  18.8783169  37.6522675  12.8959379  18.5176086  38.4284019  11.6475430
  59.9362411  41.5180702   3.8043854  59.1191597  41.8430786   4.1825051
  60.3066750  40.9540901   4.4833069  48.1352272  33.9115105  20.5377350
  48.0905800  33.7765465  19.5911503  48.9793396  33.5394096  20.7931728
  11.5483217  27.6756878  57.3078651  11.0278845  28.3870831  56.9346428
  11.4586878  26.9585648  56.6802254  13.1698151  38.8306694   4.3119926
  12.6146431  39.4041557   3.7836621  12.5931015  38.5124474   5.0065203
  33.2152939  33.5243683  22.3796825  32.8714142  34.0809860  23.0783634
  32.8695564  32.6534653  22.5752048  47.7246094  11.9669075  79.3725510
  47.9548569  12.8947067  79.4215927  48.0644798  11.5925007  80.1852875
   0.8546335  24.2945175  83.6897278   0.6123388  24.1242771  82.7794800
   0.2404413  23.7698040  84.2032166  51.0630226  20.4988251  73.6691742
  50.7941170  19.6585464  73.2978897  50.8122025  20.4444656  74.5913315
   1.3558972  50.4715118  37.2258186   0.4269217  50.5552292  37.0108147
   1.3881559  50.5413361  38.1799240   4.4731002  14.2510862  52.5418701
   5.1496382  13.5745182  52.5698738   4.8312883  14.9696836  53.0629768
  20.7197227  18.8616123  59.0391350  20.2234612  18.8093204  58.2222977
  21.3816509  19.5332012  58.8746605  28.7982483  23.0035152  14.4190454
  29.5734863  22.4459209  14.4848413  28.2091713  22.6758595  15.0986490
  67.8985901  60.1132927  32.1665382  68.2098618  59.9459305  33.0561104
  67.2416611  59.4347000  32.0110168   0.1559551  68.3027573  78.5438995
   0.4985748  67.4239731  78.3808594  -0.2784816  68.5459442  77.7263641
  21.2831879  70.3254776  74.6198044  21.0273495  70.5809555  75.5060959
  20.6261673  70.7315521  74.0544205  66.6956482  23.7164669  78.2839203
  66.4290314  24.0757370  79.1301270  66.3086548  24.3090572  77.6394730
  36.7714195  59.8083763  57.7861977  37.5466576  59.7774467  58.3468056
  36.5202789  60.7319794  57.7754936  47.8124084   5.2855501   5.5477076
  48.2656479   5.4067664   4.7133737  46.8829613   5.3403387   5.3255429
  28.9343090  24.8265991  23.0731831  29.3676624  25.6475048  23.3067398
  28.7678890  24.3965282  23.9119778   7.6712489  42.2927246  68.1352844
   7.0787377  42.0374222  67.4281921   8.4108629  41.6901283  68.0573273
  52.7904587  20.3766098  27.5811214  53.3092995  19.6226196  27.8613663
  52.1654205  20.0166721  26.9518337  32.2378693  67.4665985  37.5388603
  32.4372253  67.4027710  36.6048279  32.7571831  66.7712708  37.9426689
  10.4418898  29.1413364  78.9342117  10.6386404  28.9701500  78.0132294
  10.9799109  29.9010658  79.1568680   2.1457665   5.6626444  75.7156219
   1.2482257   5.8954778  75.4780502   2.3609290   6.2481890  76.4416275
  66.4670792  63.0298004   8.1704969  67.2237854  62.7496071   7.6555924
  65.8523331  62.2985802   8.1102266  62.4700165  40.6687431  78.7610321
  62.4498367  40.9069672  79.6878891  63.3764153  40.4059753  78.6009521
  46.0622253   7.4926796  11.6490421  46.3326340   6.5979114  11.8551998
  46.2469597   7.9885139  12.4466963  20.0715199  65.5949478  29.0678406
  20.4964008  64.7448807  29.1822338  19.3784904  65.4321518  28.4279671
  10.7360582  64.6962662  47.4887962   9.8149595  64.7676620  47.7392197
  11.2145700  65.0787277  48.2243118  80.1607132  57.9116249  19.0346832
  80.1207581  58.8503685  18.8519497  79.6374512  57.7996178  19.8283348
  18.7568207  44.0548706   9.4070597  17.8455257  43.9530830   9.6816750
  19.2209072  43.3436279   9.8486319  34.7126083  36.6464539  15.3745422
  35.4466667  37.1566963  15.7166557  34.7429466  35.8248405  15.8647079
  22.8836803  35.5956764  78.0200653  23.0181160  34.6481247  78.0025330
  22.1382923  35.7426453  77.4378052  53.9063110  59.2177658  75.7728119
  53.9883881  59.3437958  74.8274994  53.1442566  59.7420349  76.0190659
  38.6813850  61.8864059  19.3187408  39.2068634  62.6701698  19.4794197
  37.8561249  62.2194557  18.9662437  76.0420151   5.5524259  45.3119507
  76.5580444   5.3906217  46.1017380  75.2928314   4.9618025  45.3901672
  23.9389477  31.5216446  29.6670113  23.7838707  32.3109665  29.1482124
  24.2277164  31.8480701  30.5192394  38.8670769  57.6981201  50.4751053
  39.7495728  57.5464859  50.8133926  38.3085785  57.1206398  50.9955139
  70.5959320  18.6358566  29.3979836  70.7681351  18.2486572  30.2562695
  70.0999908  17.9655190  28.9279613  78.5460510  62.2507210  34.7117996
  79.2490158  62.8853493  34.5728073  78.8206940  61.7540665  35.4826012
  35.5202789  48.2802887  15.3312035  35.0011826  47.5324898  15.0352859
  35.0341568  48.6285553  16.0786171  76.1226654  56.2699585   6.1456938
  76.4668121  56.2314758   7.0380573  75.4355164  56.9353142   6.1824789
  64.0671616  19.0289001  31.1622334  63.1149483  19.0254593  31.2597733
  64.2186279  18.6934357  30.2786312  60.0369682  59.0520058  41.2688828
  60.1453171  58.2729645  41.8143997  60.8082771  59.0566521  40.7020607
  76.4884949  25.8626614  35.6700706  76.3598404  26.2241440  36.5470009
  75.6027527  25.6993294  35.3460121  64.0235443   3.9989686  40.9622917
  64.4674835   3.4355102  40.3285179  63.1090889   3.7175627  40.9336739
  64.2694321  31.5521126  24.2877502  64.2000198  32.0106659  23.4504070
  63.8113403  30.7237072  24.1458607  17.1803665  37.6544266  18.1464710
  16.5721416  36.9857559  18.4613857  17.5953026  37.9934158  18.9396591
  36.3856621   3.6667411  69.1010132  36.5903244   4.4978251  69.5295486
  37.2367554   3.2486236  68.9704437  51.8763771  32.0504875  32.0313911
  51.0919724  31.8093700  31.5386391  52.6037712  31.7825603  31.4698334
  52.7729111  48.6786919  72.2336121  52.7210732  49.0654411  71.3595581
  52.5715065  47.7527771  72.0981522  20.1631241  42.9702835  79.3738098
  21.1133366  42.8568535  79.3952789  20.0371304  43.9019890  79.1941452
  54.3828773   2.0592396  73.0955887  54.9424515   2.2129529  72.3343582
  53.6860771   1.4896859  72.7695389   2.2006085  56.4581490  53.2422829
   2.3655884  55.5201988  53.1460190   1.7029868  56.5314636  54.0566711
  30.6585064  50.1116028  62.8609962  30.6209278  50.2554131  63.8065834
  29.9005814  49.5581703  62.6725922  54.2042885  50.7025452  37.6348534
  54.2242355  49.7959137  37.3284950  54.8199539  50.7213783  38.3675423
  74.5405655  45.8252640  22.1559734  75.4318695  45.6369019  21.8621731
  74.0514603  45.0247536  21.9657269  34.0547867   4.2663951  46.2565193
  33.8224182   4.9756718  46.8558197  34.9967880   4.1484470  46.3788109
  55.4331322  21.8498363  31.9224377  54.7109833  21.7681808  32.5453873
  56.1901588  21.4902363  32.3848572  76.4024582  24.4668369  39.4285431
  76.5443878  25.0860481  40.1445503  76.2933731  23.6203976  39.8619843
  13.4532042  62.6755371  31.4206200  14.0746460  63.4012299  31.4790115
  13.4287634  62.4554749  30.4893799  50.0549355   4.9805870  79.0983353
  50.4099731   5.6386490  79.6959457  50.7581520   4.3379993  79.0045166
   5.3717995  41.3916092  23.2803707   5.7424307  40.7547340  22.6694260
   5.9898672  41.4103546  24.0110359  11.7942963  46.4141083   4.2908292
  12.7442293  46.2964821   4.2858953  11.6700983  47.3621025   4.2448688
  71.0665283  39.7519035  49.1307297  70.5293884  39.3576660  49.8179588
  71.2402573  40.6400948  49.4424362   2.0058908  44.3236580  74.9969101
   1.9782393  43.7429314  75.7573166   1.0926832  44.5704308  74.8506699
  50.5461159  70.0776367  55.3975067  49.7912827  69.4909439  55.4449921
  50.8828011  70.1077118  56.2930336   6.7847428  21.7655201  63.5813026
   6.7107830  21.7920666  64.5352707   7.7165709  21.6205463  63.4172592
  36.1478004  69.6240768  46.8039055  35.5965424  70.4065704  46.7966423
  36.7890167  69.7763824  46.1097298  31.8811207  35.0849037   1.2553293
  32.7116852  35.0113869   1.7254261  32.0964508  34.8554955   0.3513184
  83.3656693  23.9769325  27.6209755  83.4670563  23.6652756  26.7216301
  83.7561188  23.2879696  28.1586647  45.2635918  -0.0093274  25.7652130
  45.7254944  -0.3916606  25.0190887  45.5895004   0.8893725  25.8137245
  85.6834946  61.0680695  77.2730331  84.8028564  60.7422905  77.0870590
  86.0855484  60.3813248  77.8049774   2.4068196  39.9568291  75.4131317
   2.4775577  39.0361252  75.6651840   1.5508548  40.0242424  74.9900360
  39.7354736  68.0138321  20.5535431  40.4177284  68.5901108  20.8980122
  38.9181938  68.3845749  20.8864689  53.2647057  24.6947327  19.8629036
  53.8808975  25.3891411  20.0960026  53.0025024  24.3156433  20.7018166
  68.3824158  27.2498703  13.1807642  67.8836288  26.9489136  13.9402866
  67.7816467  27.1452847  12.4429483  13.2856998  53.5069618   0.9352096
  13.4233170  52.5897560   1.1719127  14.1352978  53.7991791   0.6050225
  44.7307396  20.4837589  36.8353958  45.6619949  20.2707767  36.8957024
  44.3053093  19.6469994  36.6481171  57.9227562  41.9043198   8.4893217
  58.4513550  41.9821930   9.2835197  58.2902107  42.5559616   7.8921862
  85.2236023  64.2207489  89.1126328  85.0648804  64.8341980  88.3951950
  84.7471313  63.4295807  88.8611069  39.0008812  32.9686852  79.9506683
  38.2597809  33.4127541  80.3627396  39.7660332  33.2815475  80.4332581
  64.3269119  55.9608727  87.5151596  64.7655945  55.5222855  88.2441559
  64.1720657  55.2657166  86.8756256  15.3002939  56.3280106  19.9248447
  14.8640137  56.9782562  19.3743248  14.5911417  55.7700653  20.2442665
  68.0217361  47.7528992   3.5366859  68.0060043  48.6935768   3.7130711
  68.9459000  47.5123558   3.6022069  26.0062218   5.6439738  20.3364220
  25.7741108   6.3939400  19.7887840  25.3019848   5.5922027  20.9826431
  80.3879013  37.5167351  47.5279388  80.0906143  36.6641464  47.2102203
  80.7923889  37.3289680  48.3749123  54.4636497  11.5529737   7.7857685
  54.6001930  10.9729795   8.5348969  55.2574501  11.4557667   7.2597823
  61.8562698   7.9433389  84.8363342  61.1771393   7.8188066  84.1733856
  62.4784584   7.2333450  84.6781464  75.5194855  30.3565063  41.0120773
  75.5515900  31.0923271  41.6234436  75.2514420  29.6106625  41.5488281
  67.8039017  45.7631111  40.9471436  68.7382202  45.8886070  40.7812119
  67.7714691  45.1662674  41.6947784  29.5367126  71.7762451  27.3664169
  29.0826054  71.2008820  26.7508049  30.4349442  71.8170013  27.0381584
   6.7921944   5.9626775  88.7044296   6.9436512   6.8714213  88.9641876
   6.4879589   5.5326452  89.5036392  13.2790327  58.6309700  61.0987129
  13.9137535  59.2002411  60.6636391  13.7242041  58.3401947  61.8946457
  62.6411934  30.3525143  51.1253967  62.0597916  29.8368835  50.5665321
  62.6824608  29.8613014  51.9459076  40.7867622  65.4431076   4.2170796
  40.4184418  65.8906860   4.9788194  40.1595268  64.7468872   4.0219026
  73.4547958  70.7898712  87.3154907  72.7522736  70.1399307  87.2989273
  74.1166534  70.4424362  86.7176056  17.6337376  46.4500504  72.2006760
  17.9444237  46.9865074  72.9300079  17.0561962  47.0307465  71.7052307
  57.1742821  37.5727539  77.4308853  56.4358940  37.0012283  77.2202377
  56.9201508  38.0009079  78.2483978  22.0657253  14.6436396  33.6730499
  21.7786808  14.2796822  32.8355713  22.9706097  14.9149437  33.5187492
  22.5617466  25.1260414  10.7172174  22.6723976  25.7376442  11.4451809
  23.4521618  24.8526917  10.4965963  27.1067505   0.3681738  74.7853470
  27.2941875   1.3065327  74.8094711  27.1304741   0.0955314  75.7025909
  33.3161125  13.5060234  28.7464294  32.9130936  13.6796274  29.5971165
  33.7161827  14.3389158  28.4964924  17.7860947  21.8175983   5.0884023
  17.3891811  20.9574432   4.9512038  18.3468952  21.7029819   5.8556032
  23.0595837  56.4321823  35.3613853  23.1618710  55.5114174  35.1206284
  22.3635998  56.4320259  36.0185318  42.9008369  67.2443390   5.7571797
  43.4225426  67.5694275   6.4909177  41.9966278  67.4451218   5.9986787
  50.8851585   6.2383475  33.7460594  50.1655388   6.0135899  33.1562614
  51.0821800   5.4220352  34.2054596  43.6000862  50.3244019  42.0015144
  42.8908997  50.6846771  41.4690857  43.1561737  49.8055229  42.6722908
  56.3506203  31.0861282  31.1518517  57.1307373  31.0190487  31.7024422
  56.6492844  30.8256149  30.2805519  21.8390598  37.7642860  18.2055531
  21.0655022  37.3328133  17.8426819  22.5279102  37.6028404  17.5608425
  39.5975266  32.3403435  85.8183746  39.5556412  31.8411903  86.6340485
  39.9957619  33.1741943  86.0680313  17.9628162  62.8606987  34.8630981
  18.7758255  62.8843994  35.3677673  18.2107449  63.1774940  33.9945335
  71.7029266  61.9748650  33.5059662  72.0208206  61.1139755  33.7780800
  72.4722290  62.5419731  33.5588989  31.7407856  47.2891846  88.4475098
  31.3375797  46.8703575  89.2079315  32.3784599  47.8983688  88.8196640
  59.2062111   4.2102256  74.0914764  58.4141121   4.7141657  74.2781754
  59.0206490   3.7711473  73.2614059  22.9173641  64.2466125  21.1048069
  22.1369209  64.7616653  20.9002285  22.6186256  63.6046715  21.7489357
  75.2252197  37.5691528  84.1453400  74.7154846  38.0063438  83.4632416
  75.4816742  38.2731514  84.7410278  65.7763596   0.9499863  51.9975510
  65.8706131   0.5904220  51.1154709  66.0181122   1.8717703  51.9075432
   8.5050592  64.0738144   3.0326939   9.0819063  63.8116150   2.3152475
   7.7179937  63.5422134   2.9137039   1.1898724  25.4051952  34.3911362
   0.2525595  25.2606468  34.2615891   1.3522735  25.1296329  35.2933121
  79.9193192  51.2862091  55.8722801  79.3417206  51.7990799  55.3069687
  79.3593597  50.5923309  56.2204361  74.4563828  41.6676674  47.2980537
  74.6525345  41.4766350  48.2152596  73.7109451  41.1043320  47.0901871
  28.2414341  35.4130859  88.1296768  28.7548752  34.7858086  88.6387329
  27.8739491  36.0081367  88.7832108  71.9318771  49.4222603  49.0846748
  71.7882385  50.0152016  49.8222504  71.6237869  49.9106178  48.3212509
  78.0208130  63.8633156  13.1544275  77.4546280  63.9706345  12.3901339
  77.5429001  63.2602463  13.7237539  31.0808449  61.4753647  40.4345741
  31.8795452  61.0868301  40.0777168  31.3003979  61.6824417  41.3429527
  18.0344467  55.3744202  11.2041264  18.4328976  54.5076714  11.1252842
  17.2462749  55.3258057  10.6631508  84.2932587  58.6566124   3.6026986
  83.5516815  58.1453590   3.9266238  84.9966049  58.0163994   3.4946921
  12.8877420  68.3149185  10.6495256  11.9369078  68.3208160  10.7595806
  13.0658865  67.5192642  10.1480961  38.8463440  -0.0603988  78.0905228
  37.9756241  -0.2763320  77.7566757  39.1517982   0.6472200  77.5228882
  47.4436493  37.9181061  76.1165695  48.0535355  38.6115913  76.3682556
  47.0953979  38.2006912  75.2709351   8.2450628  46.0976410   8.0600805
   8.7633467  45.8937607   7.2815914   8.8887072  46.3841515   8.7080507
  55.5040741  62.3377647  28.1545467  55.3026352  63.1046982  27.6183891
  56.3300858  62.5571404  28.5856075  27.7114182  41.0854149  25.2379208
  27.8273983  41.3120041  24.3151875  28.1712646  41.7768936  25.7139797
  61.8922806  53.8829613  26.3491230  61.3482933  53.4220848  26.9877987
  62.4426765  53.1999130  25.9660587  54.5403595  58.5020752  59.5859680
  55.2826576  58.6802216  59.0084839  54.0157204  59.3021088  59.5554008
  83.5906219  21.9939671  25.2804222  83.5743942  21.0386410  25.3380604
  83.5188980  22.1786652  24.3439522  49.7812805  15.5980997  33.9707565
  49.6407089  15.9984541  33.1127434  49.3804588  14.7317963  33.8994026
  74.6666641  67.2222137  31.6569576  74.7726059  66.7843170  30.8124142
  73.7430344  67.4721603  31.6829567   5.3573351  39.7092514   1.3441100
   6.1600828  39.2946815   1.6602789   4.7152619  38.9997864   1.3189391
  70.6338348  36.3920822   3.0506773  70.9088898  35.8417435   2.3173940
  71.4514771  36.6508980   3.4757776  53.9921303  53.3196983  67.9464111
  54.4263878  53.5474243  67.1243515  53.4912376  54.1019897  68.1774063
  45.7833214  70.2973557  35.1528091  46.6989403  70.0399246  35.2605247
  45.5347366  70.6596069  36.0032272  35.5310326  56.4453888  30.2238998
  35.9225883  56.5004349  29.3521862  35.9414978  57.1563187  30.7161674
  49.0463829  67.0176010  38.6229706  49.7552376  67.1570206  39.2509155
  48.3885193  67.6730576  38.8549728   2.6214609  68.7668076  60.4454880
   1.6884027  68.6957626  60.6469460   3.0571964  68.3082123  61.1638565
  49.3562965   1.2297114  18.9485092  48.6688957   1.1799257  19.6127625
  49.9062996   1.9617945  19.2274075  30.9927578  68.5377274  19.7170811
  30.7618427  68.2402420  20.5970879  30.1591473  68.7998734  19.3264389
  79.6089783  64.2977524  52.2386856  79.7608032  64.5861435  51.3386765
  80.0089569  64.9790115  52.7791824  11.6768532  58.0160103  55.9293594
  11.9526091  58.6892586  55.3073235  12.4948635  57.6315384  56.2444344
  19.0119228  21.1333027  88.0542450  18.4798679  20.4026794  88.3694305
  18.4968777  21.5156670  87.3437805   0.5418002  22.9395447  25.4444790
   1.3660578  22.4979115  25.2400475   0.3871398  23.5163040  24.6963749
  18.9727764  61.6925163  52.5288544  18.2633095  62.3350334  52.5211830
  18.6392403  60.9738197  53.0659409  35.7600899  71.1494370  63.3478813
  36.5409279  70.6718750  63.6279869  36.0422745  72.0628433  63.3000679
  71.4540634  28.7402287  73.7318344  71.2397232  28.0690765  73.0838776
  72.0522690  29.3316803  73.2751465  35.1032715   8.5769768  51.1057091
  35.9170113   8.7365007  51.5838432  34.4146805   8.6870213  51.7614250
  28.0317116   8.7900324  77.1017075  28.4003010   8.4501839  77.9171066
  27.1197338   8.9875050  77.3150940   3.4542310  28.0911331  23.2439919
   2.9672253  27.7503624  23.9942799   3.6571565  27.3171577  22.7186184
  85.5752869  16.8678188  21.0456028  86.0212097  17.3682690  21.7289257
  84.6439362  17.0167809  21.2087841  58.9405022  64.1258698  85.3047485
  59.7608490  63.6327553  85.2947617  58.3134575  63.5566826  84.8585739
  11.2778082  52.6104012  84.4888916  10.6838951  53.1782341  83.9979019
  10.8996782  51.7354279  84.4013062  51.2349472  68.7101288  39.6419449
  51.3571854  69.6406631  39.4538116  50.9492760  68.6859207  40.5552025
  20.3385201  17.6168346   7.8652411  19.4756222  17.9178944   8.1498461
  20.2854881  17.6067657   6.9095645  78.0786209  63.7648048  42.3889084
  77.2534180  63.2992249  42.2528763  78.4031754  63.4369354  43.2275963
  26.2427750  51.3161392  59.9756012  26.9487991  50.7703133  59.6294289
  26.6916695  52.0431747  60.4070511  50.8247185  34.6434937  32.3915787
  50.8964577  33.6924896  32.3098831  51.4754791  34.8767815  33.0536385
  50.3819695  24.2634964  14.7605343  50.8387299  23.5907536  15.2655296
  50.3466721  25.0198689  15.3460979  20.1530342  38.3467903  44.8905144
  20.7194118  38.6142426  44.1666946  20.5515499  38.7428932  45.6654434
  64.5013504   1.7791686   6.6718278  64.3574371   2.7199912   6.7736716
  63.6700745   1.4447790   6.3350878  63.2103081  63.3656769  48.1112480
  63.8238907  64.0933609  48.2123947  63.6782379  62.7315826  47.5679283
  22.6269913  24.9645786  82.0196304  23.0921440  25.3657665  82.7537384
  21.9317760  25.5873909  81.8074799  71.4860077  42.7162514  34.3269005
  72.3579788  42.3241997  34.3737564  71.5907288  43.4635353  33.7379723
  19.7055702  24.5554543  16.4509411  19.7903728  25.2220287  15.7692375
  19.4315529  23.7670918  15.9822941  83.2685165  14.5408535  15.2224455
  82.4408951  14.8501205  15.5907173  83.0239182  14.1358147  14.3903713
  74.1571045  53.0003510  77.4231949  74.8985291  52.4505692  77.1697006
  74.4294662  53.8894157  77.1960068  72.6058350  32.9311943  52.8451767
  72.9312515  32.6243057  53.6914330  72.2105713  33.7820930  53.0348320
  72.4592819  42.7753601  76.2061539  72.6386719  43.3375740  76.9597931
  73.2870560  42.3236656  76.0418777  15.6871042  22.3618050  14.5497723
  15.7068586  22.6852455  15.4504538  14.7594128  22.2083492  14.3706846
  37.0816841   2.2372060  12.9618015  36.6065750   2.9308989  12.5043182
  37.6486931   2.7012644  13.5777426  26.6045456  46.5442772  28.6555672
  27.1229782  47.3243752  28.8528233  26.0965443  46.7839775  27.8805103
  37.9476166   6.2462149  33.8811455  37.1542511   6.5873756  33.4683304
  38.4285240   7.0264754  34.1571045  14.6759624   7.9420805  46.4937592
  15.3703299   8.1053715  45.8554611  15.0138044   7.2312918  47.0386162
  24.4938354   6.6174092  84.9226151  23.8923111   5.9372635  84.6196289
  24.0754833   7.4390402  84.6654510  86.5676117  45.0348358  25.7693214
  86.8374252  44.1164513  25.7695599  85.9205322  45.0945511  26.4721355
  78.6412735  61.6918182   1.8228868  77.8277588  61.9399719   2.2620211
  78.3730927  61.4640541   0.9327000  15.5279865  13.4524117  65.5675583
  15.3822813  14.2541037  66.0698471  14.7289104  13.3443670  65.0517731
  48.6894875  40.7644119   7.1237717  48.9378204  40.7994232   8.0475340
  47.8257179  41.1756783   7.0922065  61.5256767  26.4919472  15.8286409
  60.8781319  26.0384159  15.2889843  61.9610672  27.0939522  15.2251043
  70.8415604  58.6920204  79.6828537  70.2770996  59.4574242  79.5743103
  71.2349930  58.8053284  80.5480728  54.4754944  30.7284813  18.1524353
  55.0440941  29.9625816  18.0728951  53.8068085  30.4657021  18.7849197
  77.8539658  21.9322586  19.9947147  78.6947632  22.1249027  20.4096489
  77.2296448  21.9053135  20.7197895  30.7486000  35.9914513  17.8405800
  30.5236511  36.6233482  17.1576920  30.1391487  35.2657928  17.7055874
  73.2022934  16.6542511   1.9309005  72.9248810  16.8963871   2.8144410
  74.1504745  16.7853069   1.9332139  14.9846210  45.6761627  29.9610424
  15.1412058  46.6177750  29.8898067  15.1471167  45.3390121  29.0800438
  78.6309509  47.0830231   9.7873974  77.9304276  46.4596329   9.5953665
  79.4258575  46.6558495   9.4682035  39.7406158   8.6523657  31.3099670
  40.3419876   8.7818680  30.5766087  38.8773422   8.8574572  30.9508953
  34.4610176   1.7416282  74.7573395  34.5611992   1.0316415  74.1232147
  34.2397537   2.5070760  74.2268982  14.4796886  56.2623672  51.2053757
  14.8211384  55.3868370  51.3872910  14.2491226  56.2413254  50.2765999
  22.3114281  63.2629814  29.3270988  22.7703037  62.9148979  30.0916252
  23.0015736  63.6528358  28.7904930  69.6088791  18.2540970  14.7058249
  69.4559097  18.4088974  13.7736940  70.5604858  18.2920971  14.8019171
  19.0217171  52.9661827  60.5083694  18.4439888  53.0263672  61.2691841
  19.4898853  52.1398888  60.6279030  50.1200905   3.5592737  31.6034374
  50.8283997   3.9392366  32.1232071  50.4578285   3.5514460  30.7078362
  73.9934311  37.3548050  51.1538734  74.1333313  36.4831810  51.5239105
  73.1397400  37.2985611  50.7245941  73.9198456  62.5864677  24.5584106
  73.6663742  62.3891563  25.4601040  74.1367874  63.5186958  24.5691319
  50.8616676  68.6397705  10.2871752  50.4191475  69.3118973   9.7688637
  51.5134850  69.1209259  10.7969408   3.3941853  12.5614109  13.2340336
   3.3931603  12.1210060  14.0839005   2.5032468  12.4463186  12.9035578
  10.0562372  33.8688393  10.1104136   9.3178673  33.2616005  10.0624571
   9.7304955  34.6011391  10.6337299   3.9492950  62.4494019  83.6760941
   3.0442367  62.6035004  83.9469376   3.9698603  61.5263596  83.4235153
  13.5597506  59.6755028  22.1009922  13.1659098  59.1820793  21.3815079
  12.8278894  60.1508369  22.4942703  10.8180485  58.9445610  47.5370216
  10.9007225  58.9544334  48.4905930   9.8762960  58.8786659  47.3789291
   0.7341552  11.9087248  57.7327881   1.4118059  12.5441723  57.9635010
   0.6567262  11.3497877  58.5059814  46.7690544  28.2715778  14.3782787
  47.0432854  27.4479008  13.9750595  47.0360489  28.9450588  13.7526808
  31.4922237  71.0785522  10.4679976  30.6908627  70.7789001  10.8972540
  32.1917610  70.8493195  11.0798244  67.7317963  33.1534843  67.6953735
  66.8036652  33.3024673  67.5148087  67.8573380  33.4776344  68.5872269
  57.5091972  10.5729227  30.6155777  57.6209831  11.1830273  31.3446255
  57.2515717  11.1258316  29.8779106  48.1915436  12.7992601  28.9241161
  47.3292885  12.3952084  29.0215397  48.6241035  12.6461277  29.7641602
  10.7359037   6.4211316  55.9661446  10.2399530   5.9123340  55.3247490
  10.1874914   6.4173222  56.7506599   9.2386923  37.8651237   1.1282653
   8.8786402  38.4260979   1.8152170   8.4777613  37.4105453   0.7669173
   7.2501674  30.2652855  56.2560043   6.5196533  29.9665813  56.7976303
   6.9010868  30.2704353  55.3647423   1.3952692  58.8840790  62.3457565
   2.2718599  59.0321045  61.9909210   1.2648613  59.5995064  62.9681587
  46.9202843  27.7311840  21.2034130  46.2117348  27.0928879  21.1211491
  47.5010338  27.3600788  21.8676720  67.4662704  57.7336388  74.9296188
  67.1766205  58.6459541  74.9260788  68.0058899  57.6567230  75.7164688
  26.9880009   1.8980136  26.2364273  27.9286671   1.8166382  26.3937702
  26.5843487   1.6668479  27.0730038   6.8436022  34.6464500  76.6454391
   7.0748444  35.1831055  75.8873138   6.0789227  35.0815086  77.0225677
  42.4387589  68.6321945  54.5621681  41.8642845  68.5762100  53.7985764
  42.5327682  69.5711136  54.7228508  18.6001053  69.8880463  43.0056000
  19.5320454  70.0058060  43.1895866  18.1607742  70.1581421  43.8119926
  82.9269638  45.9400864  69.0334320  82.0841141  45.6087837  68.7234726
  83.5718994  45.5315285  68.4560471  44.9889946  36.4103470  13.9257793
  45.4366188  36.0136528  14.6731071  44.5579681  35.6765251  13.4876518
  56.0581894  58.5133820   6.6896200  55.7157631  59.4047546   6.7562079
  55.2795563  57.9636421   6.6015997  17.7199936  29.8421631  35.1025429
  16.8134613  30.0382328  34.8659325  17.6701374  29.5345669  36.0076027
  13.4962120  58.5167122  32.1898956  14.0681152  59.0858192  32.7049446
  13.9266815  57.6620331  32.2111664  26.7401943  61.4685478  39.8150558
  27.1285000  60.7111740  40.2530441  26.8533001  61.2894211  38.8815918
  54.3758049  69.0166855   6.7390556  53.4987640  68.8155823   7.0655351
  54.2319489  69.3405228   5.8498621  81.6776810  56.3532143  17.5288944
  82.1152420  57.1195908  17.1581631  81.0810852  56.7123833  18.1856308
   7.1771579  10.6060362  22.2268772   7.9130745  10.2638226  22.7343693
   6.7548599   9.8279791  21.8628387  36.8844414  58.1828232  43.4287338
  36.7213287  58.9490051  43.9788170  37.1047859  57.4863853  44.0473289
  29.9297829  70.2609787  78.4642181  30.1604328  70.8254395  79.2020645
  29.8764591  70.8551178  77.7156372   6.9590011  50.1907272  54.7126923
   7.2693553  49.4995689  54.1277046   7.2091146  49.8941231  55.5877342
  32.4000816  54.7970352  70.1419220  32.3881454  55.7534180  70.1796341
  31.5071640  54.5372314  70.3687134  71.3449707   2.1511321  78.2429047
  71.0278702   1.4968945  77.6202850  70.7703705   2.0570409  79.0026474
  55.6275368   2.9825354  60.9808960  55.0142136   2.7481713  60.2843781
  55.6489983   3.9394228  60.9691811  61.1831207  56.6772728  16.6668530
  61.5368004  57.5237656  16.9399719  60.2494812  56.7306442  16.8710442
  10.2548971  16.5961113  19.9905071  11.0706882  17.0605984  20.1775093
  10.4298029  16.1228180  19.1770992  48.3665848  55.6597557  72.8963470
  48.9737015  56.0001144  73.5534592  48.4158516  54.7088737  72.9944534
  53.3119240  63.0564690  31.4989204  53.8062935  62.4235268  30.9781380
  52.5415649  62.5723419  31.7962437   0.6356858  18.9225101   7.7569776
   1.2765995  18.5312443   8.3505859   0.6518074  18.3600597   6.9826255
  74.2565460  56.3462296  29.0225582  73.6021729  56.1892395  29.7032795
  74.1328354  57.2634544  28.7783737  59.3697510  21.6282501  82.0046921
  59.5581932  20.9144154  82.6139221  60.2199478  21.8494968  81.6246414
  76.6812057  48.9344368  17.9465275  76.1497040  48.5087547  18.6192303
  76.5045319  48.4343681  17.1496906  59.4209480  37.0555649  37.6176796
  59.2025986  37.4888268  38.4428101  58.7002144  37.2823601  37.0300217
  44.4952393  13.5595703  25.4246407  43.7236748  13.8077440  24.9153957
  44.1399765  13.1505909  26.2137909  32.2574234  59.3786049  73.5601730
  31.6832161  59.6932106  74.2584152  31.6632900  59.1565857  72.8432693
  57.8865166  12.1837807  88.6496582  58.3634796  11.9186344  89.4360657
  58.3970299  11.8205261  87.9260178   1.4980274  34.6091537  54.3965263
   2.1326354  34.1930542  53.8131180   1.3498449  35.4731483  54.0120888
  32.3824615  48.1119614  29.2844620  32.0014229  48.3452072  28.4379177
  32.9069214  48.8743515  29.5292778   6.4970012  36.6583595  20.7962685
   7.1167312  36.7787933  20.0767803   6.8287950  35.8977661  21.2733879
  23.5178986   9.0069027  49.7967949  23.2358379   8.2099724  50.2457695
  24.3553848   9.2277555  50.2043152  16.2797680   7.8064656  67.6710968
  16.8550053   8.2136297  67.0233688  16.3029099   6.8733401  67.4590302
  24.6821270  32.7373390  10.8934460  23.8534698  33.1868057  10.7274971
  24.9768219  33.0818367  11.7364817  30.1490192   1.3669518   0.8667325
  31.0131111   1.7451054   0.7037115  30.2693214   0.8206378   1.6434565
  51.6686287   1.4621139  47.2318726  51.6514549   0.7634450  47.8859367
  50.7547607   1.5636826  46.9658585  13.5953856  23.9003716  71.9390640
  13.4006691  23.0379009  72.3057556  14.5390301  23.8852062  71.7792587
  45.6200981  48.4998703   5.1530700  45.9711380  49.3735580   5.3253279
  46.3932838  47.9575348   4.9972100  12.1460876  65.1700439  45.2707329
  11.7526875  65.0260696  46.1313934  11.4636650  64.9151764  44.6497879
   2.8333116  48.6113052  80.8260803   3.5901875  48.0406876  80.9593658
   2.7206650  48.6417427  79.8760147  52.3261032  54.3807335  41.6375046
  52.8384628  54.8704376  42.2808647  52.6228676  53.4757919  41.7336273
  74.8821716   0.0339877  76.3945312  74.8965149   0.7784930  76.9959793
  74.0790329  -0.4373621  76.6159668  82.4997025  12.2510529   5.7549601
  81.8482666  12.2650490   5.0537672  83.2165298  11.7217216   5.4053931
  77.1598969  26.3179932  64.1438217  76.3028793  25.9765682  63.8885078
  77.2199326  27.1667061  63.7052917  82.4711609  36.4978256  52.8668556
  81.8545151  35.9760323  52.3533211  82.8655930  35.8726082  53.4749298
  40.2753944  13.9476404  60.9766998  41.1152420  13.6778746  61.3483353
  40.4127274  14.8563414  60.7090569  65.1078720   2.7477031  25.5185356
  64.6522675   3.2471626  24.8408947  65.5898590   3.4065351  26.0183945
   2.8569262  42.2277832  85.8617172   2.7100503  43.1026230  85.5021057
   3.2609963  42.3843918  86.7151947  22.2013626  25.8844872  58.4409256
  21.3033447  26.2100353  58.5026779  22.7388287  26.5973740  58.7861137
  18.7743740  15.9127550  55.7577744  17.8840160  15.5613394  55.7563591
  19.2669563  15.3194075  55.1907349   8.2419529   1.0978129  30.2859383
   7.8163633   0.5240911  29.6487980   8.9598417   1.5041255  29.8003693
  17.4167862  32.3025055  36.8220558  18.2124672  31.9858780  36.3944206
  17.5878983  32.1932144  37.7574730  86.0175400   7.4325714  81.6605911
  85.3032608   6.8214774  81.4800110  86.7405853   7.1239586  81.1145172
  82.2989731  62.4160652  33.6330032  82.1759567  63.1269608  34.2620697
  82.4595871  61.6427917  34.1738243  64.0755463  39.9838181  54.7201843
  64.6733551  39.5853882  55.3527260  63.2544289  40.0898361  55.2005577
  84.3773422  39.6336632  15.8946161  83.9242859  39.2987785  15.1207743
  85.2573242  39.2614899  15.8367500  19.5797462  19.0555668   2.8276298
  19.4840450  19.9377880   2.4687994  19.2996941  18.4768772   2.1184614
  48.2443962   8.7168303   4.2167587  49.1754799   8.6425953   4.0074573
  48.2263794   9.0556211   5.1118159  23.7027740  60.6462555  22.5398312
  23.6039619  61.4911308  22.9787540  23.5258255  59.9993858  23.2228222
   3.5487692  32.7980499  71.4963226   4.1161866  32.2963486  72.0816116
   4.1342249  33.1145859  70.8083725  19.6275253  17.3966675  70.1120682
  19.7943287  17.3173790  71.0512848  18.9010506  18.0167751  70.0493393
   7.2782888  65.2175827  75.4743881   6.5032878  64.6673050  75.5875168
   7.0632615  65.7848358  74.7339706  34.5219002  66.9896088  29.4108543
  33.8438911  67.6606598  29.4898014  34.1692200  66.2359619  29.8839951
  70.8593445  36.7039719  13.6686754  71.4422913  37.4628220  13.6920061
  70.0614700  37.0276375  13.2505045  44.7335739  20.6795464  13.9028311
  45.4661255  20.7399540  14.5159817  44.3953590  19.7918491  14.0204573
  71.7136307  24.3148155   1.6423336  72.4932556  24.5742302   1.1512853
  71.1961288  25.1170902   1.7114198  27.6907310  37.9135971   3.4486909
  26.8205280  38.2479477   3.2314665  27.5354881  37.0171432   3.7461905
   5.4754934  52.8964806  74.5529709   6.2116566  52.4829865  74.1020584
   4.7281604  52.3301468  74.3606415   6.7592411  49.6796532  24.6263046
   7.1913085  49.7306938  25.4789143   6.3777232  50.5482216  24.4987564
  35.4701004  10.5953970  49.0247269  35.5856361  11.3969173  49.5350685
  35.4243126   9.8989086  49.6797371  86.1295013  14.2706156  85.1293716
  85.3695755  14.8523712  85.1120911  85.7623138  13.4017038  85.2918320
  48.7881317  48.5489807  39.0716324  48.1656113  48.9068985  38.4387054
  48.9814911  47.6697159  38.7464561  22.9348850  45.7626305  36.8625145
  23.1458111  44.9131660  36.4750175  22.0906353  45.9983292  36.4779129
  15.3531561  65.8732681  44.7908134  14.6029844  65.8521118  44.1966515
  16.1090450  65.7045822  44.2283096  82.6606140  33.9156380  42.9797249
  83.4009781  34.5086250  43.1080132  82.3756866  34.0792542  42.0806808
  60.3395348   4.7860146   9.7263718  59.4339180   4.5857377   9.4897709
  60.8649521   4.3381691   9.0633459  64.5191650  11.4128304  39.0269470
  64.5915680  10.9624119  39.8684425  63.9046211  10.8800802  38.5222206
  80.6805954  33.8484154   8.2177286  80.6733551  33.4226456   9.0749922
  79.7644119  34.0716743   8.0534410  39.4890862  62.1874123  34.5305290
  40.3850136  62.1505775  34.8654785  39.2910767  63.1224632  34.4785385
  26.8693771   3.9555221  67.9075394  27.2950783   4.8102307  67.8405685
  26.0144138   4.1434579  68.2947693  27.2856026  32.3700180  31.9334183
  27.8806648  31.8668137  32.4892235  27.3407383  33.2639313  32.2712173
  81.1130295  10.9785881  21.2584743  81.8913803  11.2347031  20.7636909
  80.4701080  10.7442904  20.5891590  34.8227386   3.3998306  82.8453598
  35.6683083   3.8475401  82.8170700  34.7061081   3.0521562  81.9611969
   6.4675241   1.1878526  79.3940887   5.8811264   0.8082877  80.0485382
   6.4234128   0.5830515  78.6534805  31.9684601  40.6962357   8.6622944
  31.5748711  40.9448280   7.8259206  31.7233658  39.7783241   8.7789164
  70.7306824  24.9144630  79.3755035  71.5404892  25.4201756  79.4440689
  70.0612259  25.4811611  79.7587967  21.7160492   2.1780169  13.3955383
  22.4619312   2.6061268  12.9752836  20.9486313   2.5781357  12.9866285
  23.4344673  15.8775187  64.5352631  23.4963951  14.9458494  64.7459564
  22.6094704  15.9606075  64.0570297  17.1465206  37.4484482  47.7379036
  16.4826736  37.0099983  47.2056427  16.8650341  38.3628769  47.7664452
   4.5048699  58.7115135  72.4480591   5.0520949  58.0177193  72.8160629
   4.6303520  59.4542236  73.0387115  79.9350281   3.7851498  52.5366402
  79.7704468   4.6712270  52.8591499  79.4546204   3.2177413  53.1395416
  80.8354340  70.9234619  86.9603119  81.7728958  70.8269577  87.1278915
  80.6691360  71.8605881  87.0621719  83.3979874  48.2267952  84.6305695
  84.1518860  47.6509743  84.7582397  83.3539581  48.7454071  85.4338989
  41.0499878  19.7406845  29.2809124  40.9102592  19.4795876  28.3706741
  40.5223999  20.5323219  29.3866959   3.3387682  38.9569740  22.2501392
   3.5871027  38.5003700  23.0539265   2.6033711  39.5128441  22.5078888
  10.9897957  55.4426193  54.7091141  11.1556625  56.2510414  55.1940613
  11.3257351  55.6174507  53.8300171  83.6919937  38.1403618  67.5746231
  83.7735596  37.3134727  67.0994034  83.3217316  38.7486801  66.9350204
  32.1803513  45.9612617  25.9365234  33.1248817  46.0704117  25.8261623
  31.8553600  45.7812233  25.0543690   6.7863641   4.5515800  65.4049530
   5.9939609   4.1270390  65.0761795   6.4842415   5.3955331  65.7406540
   5.2384725  21.3578262  47.5283012   5.5635962  20.7728863  48.2126808
   5.4043851  22.2377567  47.8665733  11.5274591  15.8003359  47.6963158
  12.1308393  15.2604027  47.1857910  11.3575716  15.2877836  48.4866714
  60.4753342  56.0476303  80.7653656  59.8793640  56.4605980  80.1404648
  60.9801102  56.7741241  81.1309357  24.7726269  71.1793900  55.2256165
  24.9676151  71.7782059  55.9464722  24.3963432  71.7379074  54.5453949
  76.3219452  59.5949593  86.7388611  76.8876877  59.2787209  86.0344772
  75.4341583  59.3996506  86.4389801  67.0726395  16.4825687  79.4321442
  66.3886261  16.9349918  79.9257736  67.6445770  16.1089783  80.1026306
  10.1087837  14.6272116  61.9638634  10.4486771  13.7546835  61.7653732
   9.6954117  14.5336933  62.8221207  36.2751846  54.9616318  78.7741928
  37.0279274  54.3936577  78.6098328  36.3884964  55.2537193  79.6786652
   5.6756024  65.8468475  88.2844315   5.3996043  65.9416122  89.1960678
   6.5455461  65.4510956  88.3374634   5.8389058  37.6929588  68.3429260
   6.2814584  37.9797783  69.1417465   5.5222492  38.5018768  67.9409180
  64.2471008  60.0299835  73.3391647  63.3346825  59.7735023  73.2052383
  64.7523117  59.2551193  73.0930405  11.6964006  64.1109848   2.9491634
  11.7035236  65.0256424   2.6670620  10.9302082  63.7331390   2.5174096
  62.7232056   3.7983904  50.1085434  62.5809250   3.5863907  51.0310631
  62.4345703   4.7071438  50.0243454  61.3250504  49.2463074  79.5315857
  61.3487549  48.3088303  79.3397369  62.2423439  49.4877510  79.6600876
  74.5175323  34.1291389  15.3912382  73.6841660  33.9597130  14.9518881
  74.3642120  33.8759193  16.3015156  63.9544029  38.5625267   7.9553847
  64.3745880  39.3422050   8.3184004  64.3148499  38.4855347   7.0719914
  35.3261070   9.2233648  19.8956432  36.2050133   9.0202007  19.5755119
  35.0321465   9.9486351  19.3444614  49.0878448  69.1054764  46.2971649
  48.3959618  68.4811172  46.0787430  49.4847488  69.3274918  45.4549026
  64.9951935  18.1438274  80.6160736  64.1694641  18.4280319  80.2241211
  64.7406921  17.7459183  81.4486237   3.7364924   7.7147474   2.2265582
   2.8484149   7.8184743   1.8848112   3.6282692   7.1889277   3.0190437
  71.3343048  26.8547764  43.0375824  70.6583633  26.6296501  42.3983154
  71.1910324  26.2458973  43.7621307  75.4345093  10.0227070  51.5292473
  76.3452225   9.9160709  51.8039551  75.4629669   9.9567852  50.5747452
  66.3184967  40.6772728  43.1699982  65.4124069  40.3768997  43.0992775
  66.8353119  39.9741631  42.7765846  11.5567064  37.0105095  48.8468056
  11.4924679  37.3108559  47.9402199  11.9182568  36.1266441  48.7812500
  71.9883041  61.5768166   6.7645316  72.1569138  61.2979240   5.8645191
  72.5854645  62.3119164   6.9033418  15.1391659  47.1372452  52.7660561
  15.5779276  47.5188980  53.5263596  15.8524742  46.8818054  52.1810989
  43.6981201  70.7914276   1.3076233  43.0348206  70.1484299   1.5582505
  44.5199318  70.4293518   1.6389263  20.6829987  61.7176743  41.5033455
  21.3673744  61.3642693  42.0716438  19.8639374  61.4714279  41.9331512
  16.6510506   4.1894274  37.3421669  16.1226025   3.6410670  37.9220581
  16.0686970   4.9079671  37.0955925  70.7134933  24.7737885  22.4346905
  71.5650253  25.1344833  22.1876659  70.3595047  24.4162102  21.6204033
  55.4544373   8.4640923  67.9172974  55.8288841   7.6429029  67.5984421
  54.5783310   8.4930706  67.5328140  76.9690552  37.5988426  22.4813576
  77.6079712  37.3726273  23.1572571  76.3924789  36.8363724  22.4320011
  59.1358070  68.1786423   4.8028841  58.6026154  67.9453659   5.5628328
  59.9340935  68.5524445   5.1760368  64.1734009  52.3095551  25.7010326
  63.5506897  51.6834068  25.3317146  64.1074295  52.1830406  26.6475372
  62.0529175  65.6715088  60.8666801  61.8509712  64.7584763  61.0711823
  62.5860405  65.6269073  60.0729408  34.6443100   5.0723467   0.4998416
  35.5489426   4.8673434   0.7361542  34.7153244   5.5541401  -0.3242117
  55.1582947  51.1330681  76.3551941  54.8697052  51.6910210  75.6329498
  55.9189377  50.6667709  76.0084610  31.6601067  51.6443367  43.8512115
  31.4126358  51.6630516  44.7756805  30.8271904  51.6070480  43.3810081
  11.2316694  29.2274113  43.9076691  10.3805609  29.3034916  43.4763260
  11.0905094  28.5867443  44.6047020  30.4401035  32.8134117  21.0525074
  30.5838203  32.0724487  20.4638233  31.2597542  33.3067856  21.0210571
  16.7385368  65.8566513  59.9089966  17.1153927  66.7358093  59.9448662
  17.1224842  65.4632721  59.1253700   7.7142358  33.7223740  46.1553192
   8.2176332  32.9224091  46.0040741   7.2668400  33.8844528  45.3247757
  73.5539474  52.2913246   8.4706869  74.3808823  52.4037132   8.9394951
  72.9485779  51.9531784   9.1305447  53.7713852  11.9552355  75.5416641
  53.2155495  12.0376377  74.7667542  54.6070404  11.6330614  75.2038498
  27.6471672  68.2200928  71.3309784  27.8552246  68.8695526  70.6593018
  28.2835007  68.3832474  72.0271759  30.2319126  11.9837933  15.7077427
  30.8898678  11.2886162  15.7002201  30.1821518  12.2763319  14.7977009
  85.0148697  64.1751862  70.0994644  84.6229172  63.3794250  69.7397842
  84.3605576  64.5078964  70.7137985  75.7817307  42.8703537  23.1816673
  76.5845566  43.3391418  23.4095440  76.0162354  42.3547745  22.4100342
  52.3758278   2.2046092  50.1327209  52.0903397   2.2736235  49.2216988
  53.3301773   2.1517043  50.0812988  54.6837273  71.0748672  73.9860687
  54.6403046  71.9133682  73.5264282  53.7687988  70.8285980  74.1220398
   0.0979141   6.4847155  27.0206394  -0.5525711   5.8061924  27.2014885
   0.5111379   6.2084208  26.2026291  62.5301628  38.1684227  13.0348072
  63.1294403  38.0058784  13.7632837  62.9894562  38.8020668  12.4836464
  42.9554253  27.7620354  17.0890770  43.5451851  27.7391205  16.3354893
  42.1147804  28.0419903  16.7269001  54.3168030  71.1293564  64.1212387
  54.7856827  71.9638443  64.1236038  53.5944519  71.2622375  63.5074081
  79.8979416  51.5672684  49.8320694  79.6072388  51.9259300  48.9935684
  80.6811218  51.0606003  49.6172371  21.0566845  68.6490860  38.4618912
  21.8507233  69.1759949  38.5518684  21.3255177  67.8995667  37.9306831
  79.6090317   3.6404917  49.8626671  79.2958374   2.7384374  49.9293060
  79.6828232   3.9360595  50.7700958  20.6461697  47.5771446  80.7646103
  19.8287106  47.1357994  80.5339432  21.2973824  46.8761406  80.7919464
  86.5651932  68.7068939  18.9136524  85.8611298  68.1204758  18.6367931
  87.0609894  68.1992722  19.5561008  82.5659943  21.4180336  11.3156862
  82.7622452  20.7565517  11.9791317  82.6614151  20.9570274  10.4822598
  40.3628426   7.0659170  22.9624805  41.0973625   7.5245562  23.3703556
  40.6674843   6.8651419  22.0775433   1.6155747  33.7694511  42.7773743
   1.6582440  34.3322563  42.0042877   2.1208851  34.2371597  43.4423103
  11.1509295  29.5908394  88.3620911  11.5473633  30.1781940  89.0055847
  11.2602453  28.7166615  88.7363815  17.2838535  45.5131683  66.3107224
  17.3117466  44.5669899  66.4528351  17.9500351  45.6747704  65.6426544
  79.4785919  47.8735886  80.5237350  79.3526917  48.8215141  80.4810562
  80.4278870  47.7562027  80.4877625  30.3025932   8.9964886  17.6465664
  29.9862232   8.0931311  17.6559544  30.1563091   9.3107796  18.5387840
  56.3860016   1.3745844  23.0274525  56.6044273   0.4427702  23.0430794
  56.5562935   1.6755081  23.9200211  59.0348854   1.1375339  27.3055401
  58.4068031   1.6651119  26.8121738  58.7982903   1.2785836  28.2222519
   8.3401966  10.7311335  25.8973713   8.6803474  10.7977571  26.7896118
   7.4560633  10.3800859  26.0036945  28.1987934  52.3659477   6.1906843
  28.3450031  51.4982147   5.8139992  28.6329975  52.3332748   7.0431113
  61.2828751  15.8326054  34.8147736  61.9472656  16.5214329  34.7964630
  61.2760353  15.4826927  33.9238510  58.3749542  56.2494965  21.5376759
  58.2853088  55.9925270  20.6199818  58.7002640  57.1490860  21.5038204
  48.8269081  45.6018562  84.2262878  47.8762703  45.7125092  84.2097244
  48.9564590  44.6654205  84.3763885  73.3161392   6.7558532  84.2478943
  73.7146988   6.3983564  83.4544373  73.3219528   6.0268717  84.8682098
  68.9657593   8.2673483  62.9967575  69.5886002   7.8112597  62.4308243
  69.2787094   8.0953922  63.8848610  20.3885479  57.7656212  27.7168255
  19.8029442  57.9204178  28.4579983  20.3108997  56.8277245  27.5420380
  11.5512848  16.0576725   9.5257139  10.9521027  16.7107906   9.8871660
  11.3703194  15.2629042  10.0275393  49.6375656  66.5648499  44.4796562
  48.8035240  66.8200607  44.8739586  50.2993965  66.8728256  45.0988159
  44.9264069  60.7530174  56.9600525  44.4471283  61.5732155  57.0775185
  44.2451591  60.0957184  56.8182983  30.3776093  68.8734665  16.1940689
  30.4102249  68.8078003  17.1484566  30.5122051  67.9767151  15.8875484
  22.5410290   6.9125366  87.8949814  22.2805691   7.4755063  87.1659698
  22.5093670   7.4840932  88.6621475  72.4015350  17.1864433   4.4539928
  72.8340149  16.5790653   5.0542297  71.4733200  16.9598656   4.5115600
  33.2369194   3.1772156   6.1478467  32.7446136   2.4215338   5.8272004
  34.1121368   2.8340075   6.3279290  27.6443310   5.4373884   6.9524188
  28.5779171   5.4439116   7.1636257  27.2937698   6.2117171   7.3925920
  13.3468323  29.1569386   6.1401315  13.2852850  30.0830975   6.3739567
  14.1909838  28.8762817   6.4935026  55.5706863  32.8064537   9.3675680
  54.7058182  33.2165604   9.3607559  55.9676933  33.0983009  10.1882038
  21.6778316  10.7393494  32.2976761  22.0098343  10.8789539  33.1845322
  22.4098454  10.3395290  31.8280678   5.0052133  68.0812607  30.1201000
   5.1726065  68.2474060  29.1924133   4.0508661  68.0718613  30.1933460
   2.1807477  30.2468262  16.5177784   1.9879214  29.8992691  17.3885555
   3.1214890  30.1085968  16.4076424  60.9870491   0.6682388  49.4736938
  60.9216156  -0.2770229  49.6094513  61.1674652   1.0232959  50.3441048
  71.5159454  63.0110512  73.4523163  70.9962387  63.3627129  74.1751404
  72.0151443  62.2938309  73.8429947  68.1094666  69.2343521   5.1262951
  68.2130661  68.7944794   5.9701018  67.2067337  69.0479813   4.8682752
  47.2650909   4.4424205  78.5227203  46.8747253   5.1402001  77.9964600
  48.2038536   4.6288877  78.5092545  67.8889160  41.2333717   5.2736521
  68.2154388  41.5489120   6.1162963  68.3646011  41.7504845   4.6236129
  16.7973862  11.8465357  83.0801544  16.2586575  11.7706537  82.2925949
  16.6945934  11.0040522  83.5227509  58.9488945  42.9935646  37.6808167
  57.9952888  42.9606857  37.7569237  59.1116982  43.0679970  36.7405052
  59.2906876  25.0843086  86.1029358  59.5608482  25.7007713  85.4223328
  58.7004356  24.4776249  85.6559753  40.8108444  18.7012711  75.3628387
  41.4977608  18.2384892  75.8426361  39.9978333  18.2817516  75.6443405
  54.4775925  -0.1333339  68.4866486  54.3508530   0.7531203  68.1484680
  54.5918655  -0.0158419  69.4297104   1.2446589  38.7565498  11.6906242
   2.0213766  39.1204605  12.1154900   1.3075591  37.8137436  11.8435678
   9.7068758  50.7736931  63.1027145  10.4741459  50.2154961  63.2290001
   9.8941412  51.2601967  62.2999229   0.0573465  29.5366192  22.6294651
  -0.5345717  28.7958241  22.7601833   0.9306579  29.1451569  22.6116772
  42.0710487  12.3275461  84.3255844  41.7037964  13.1495466  84.0005035
  41.5431557  12.1174307  85.0959167   4.6026163  38.4880333  19.8241596
   5.2359838  37.8807182  20.2065811   4.0857291  38.7954025  20.5688648
  16.4132290   5.3576965  84.6584320  15.4997721   5.6309452  84.7430649
  16.4760246   5.0033193  83.7714691  25.1508751  38.5590096   2.4146638
  25.1845055  37.9682541   1.6622603  25.1852226  39.4358978   2.0324099
   3.9856682  70.8170242  23.3051758   4.1490707  71.6048279  23.8237305
   4.4446564  70.9739761  22.4799919  15.2788401  57.4056473  46.1561699
  14.3611832  57.4137764  45.8840103  15.7414494  57.8604202  45.4523201
  66.2373657  22.2917194  75.2756958  67.1380081  22.1911373  75.5838470
  65.7565460  21.5848732  75.7062912  16.9866486  60.3231239  13.6768608
  16.2901096  59.8135529  14.0908623  17.6541843  59.6758690  13.4495163
  63.9999924  47.7613411  45.0370255  64.8759689  47.8735123  45.4062347
  64.1530838  47.4131470  44.1586418   6.2466497  44.8727570  84.0628662
   6.5606713  44.4509239  83.2630692   6.2790022  45.8093987  83.8682098
   8.8416395  39.7771454  71.7267303   8.4239063  40.5512543  71.3492584
   9.5768509  39.5926971  71.1422043  70.1681976  24.6050682  18.8435497
  69.8808365  23.9124184  19.4384403  69.4395828  24.7133598  18.2322979
  26.9145756  71.4461899  64.6219788  26.6820774  70.7454071  65.2311401
  26.1178226  71.5950775  64.1128159  85.5972443  40.1242065  69.3400955
  84.9154663  39.5032959  69.0834198  86.4170914  39.6487808  69.2057190
  79.7226639  65.0336609  40.2839355  80.5314407  64.6331482  40.6028557
  79.0874710  64.8803711  40.9834061  26.8957272  61.3611755  49.2107506
  26.9128990  61.4214211  50.1659012  26.9323730  62.2700615  48.9127388
  25.2479210  23.7927513  13.4771252  24.7889500  23.1841488  14.0560713
  26.0016613  24.0873241  13.9883347  24.1435986  65.2569809  24.4787769
  25.0576344  65.2063446  24.7584324  24.1733246  65.7308197  23.6476192
  55.5512047  21.1171494   8.2490311  54.7128563  21.4375248   8.5818424
  55.8650055  20.5185509   8.9268522  73.0922470  17.6369877  81.8255539
  72.5014877  16.8922176  81.9376068  72.5193481  18.3614120  81.5741043
  58.2092438  35.0349426  23.5194950  58.1629410  35.9598732  23.7615433
  57.5903168  34.9457436  22.7947865  86.5898819  50.8462715  28.6798096
  86.1574860  51.3696365  28.0050068  87.1132965  50.2108955  28.1913795
  27.4170208   2.9343941  56.3155365  26.7392483   3.6102438  56.3246880
  27.3226795   2.4891665  57.1576195  83.8761520  37.7009583  38.9741249
  83.6446609  38.0713158  39.8258743  83.0494537  37.3677521  38.6251564
  40.9776993  43.4765778  16.0208740  41.4241943  42.8592377  16.6003208
  40.1895714  43.7292747  16.5017433  75.7196274  17.1804810  81.8968430
  74.8821716  17.3768482  81.4769211  76.1945114  18.0114822  81.8843384
  13.6308947  25.5334396   6.5148144  12.8195410  25.7664986   6.0635715
  14.2482700  26.2222366   6.2685671  47.1400871  58.8174896  19.8689423
  46.2908020  59.2524261  19.9449368  47.7636871  59.4438477  20.2364120
  41.2008362   4.7634683  41.2942810  41.6553917   5.0012407  42.1024132
  40.3082008   5.0862703  41.4177017  18.5891418   4.5747104  22.9990902
  18.0522861   4.0933170  22.3695831  18.6636143   5.4537234  22.6275749
  45.7539520  13.6566210  34.4211082  45.6690178  13.2918158  33.5402336
  46.6871986  13.5844345  34.6212845  23.8585720  37.0171432  23.4441814
  24.0152950  37.5287628  22.6505108  23.0569191  36.5278435  23.2593307
  86.0176315  32.2014656  35.1600189  86.3246307  33.1080818  35.1656418
  86.6422806  31.7405434  34.6000214  20.4989681  70.1519623  20.8130589
  20.0412617  70.9231033  21.1478310  21.3651505  70.1928177  21.2183876
  84.0703888   3.0034966  24.3792744  84.5524521   3.4422774  25.0802135
  84.6713562   2.3301690  24.0603790  29.1240444  69.9377213  36.0775032
  28.3972015  69.4234009  35.7262192  28.7353859  70.7854843  36.2930832
   1.3776915  52.3330002  48.1965256   1.2423825  51.5010948  47.7428093
   1.9446092  52.1131821  48.9357948  13.1136065  24.4769535   0.6333115
  12.8230591  23.8806019  -0.0567460  12.5270815  24.2969723   1.3680408
  46.1857681   9.2051058  30.4463863  46.3880920  10.1391783  30.4993534
  45.6401749   9.1221933  29.6642818   6.4890633  24.0604267  49.6001701
   6.2692280  23.2848873  50.1163521   6.9440637  23.7156715  48.8318253
  52.0520935  62.9713860  63.6733627  52.8967552  62.5232430  63.7174492
  52.2391472  63.8640900  63.9637489  15.4773006   2.6592140  31.5605221
  16.0750332   2.7380049  30.8170567  15.2299194   1.7346050  31.5720119
   1.7736307  39.3470535  38.0890923   0.9031972  39.1664276  37.7341919
   1.6060183  39.7523689  38.9398880  25.5902576  65.2204208  51.1475639
  24.8491783  65.7857132  50.9296837  26.3272266  65.8219376  51.2537880
  23.1206493  58.9374313  56.5357323  23.3580933  59.0779839  55.6191635
  23.7104759  59.5097580  57.0264244  64.6386261  66.7109756  57.8454018
  64.9433594  67.5759506  58.1196213  64.6456451  66.1890793  58.6477776
  11.2344723   8.1755629   2.9238632  11.9092655   8.8544474   2.9225950
  10.4102993   8.6571999   2.9945450  62.4555054  67.7585526  56.0626297
  62.0393066  68.5274963  56.4521713  63.0287628  67.4218292  56.7512665
   2.7379801  54.4813232  17.9560986   2.8609037  55.2005081  18.5756893
   2.9863143  54.8503113  17.1085091  46.8484535   3.3311613  42.4197884
  46.5631676   2.7750175  41.6948395  47.3435440   2.7443213  42.9913940
  62.6742744   7.4759521  45.9110107  62.3321800   8.2722120  45.5045967
  62.0151672   6.8081756  45.7215843  85.9477234  56.5773277   3.3737311
  86.4097672  56.0432968   2.7275457  86.3828735  56.3796234   4.2030611
  64.5263672  64.6449509  59.9843063  65.4431686  64.4690552  60.1959000
  64.0584106  63.8636131  60.2788696   9.9382219  67.0120239  77.9036179
   9.4539728  66.1913681  77.9944839   9.5985250  67.5693588  78.6037750
  -0.0658899  50.7841988  22.8131866   0.1604241  50.7675629  23.7430992
   0.7777869  50.7743149  22.3611431  77.9117966  22.7290382  86.8542404
  77.4171524  23.4813194  87.1792526  77.2552719  22.1750050  86.4320450
  34.0159988  25.4290314  15.3346548  34.6435127  25.9908504  15.7894297
  34.5029602  25.0821514  14.5871420  65.0039215  40.6436462  22.6568718
  65.9266357  40.6295166  22.9110889  64.6377335  41.3934555  23.1258373
  69.7991180   6.5462084  60.9936333  69.7696915   6.8615956  60.0903625
  69.0025024   6.0245819  61.0912666  13.4692860  45.9828033  50.7525558
  14.2958136  46.1618042  51.2009354  13.4713697  45.0354538  50.6156006
  54.0316963  52.2823372  42.6871605  54.9050217  52.6685295  42.6209183
  54.0770302  51.4935036  42.1468658  57.8843231  10.1391449  35.4126053
  57.8344917  10.1397753  36.3685074  57.1555786  10.6939182  35.1344147
   7.5922089  68.6902084  50.6636467   7.3761454  69.0523682  49.8043518
   8.5039930  68.4102020  50.5831718  79.1736603  23.9171925  67.5715179
  79.4566650  24.0483246  68.4764709  78.5990448  24.6609287  67.3901062
  16.8735828  20.1140671  13.6382513  16.4332829  20.9271660  13.8857117
  17.3549271  20.3353863  12.8410330  27.2790279   7.7921896  10.5224638
  26.8883419   7.8964295   9.6548634  27.9407406   7.1102867  10.4068089
  72.8685532  39.6290779  78.9334030  72.6667938  40.4803734  79.3217545
  73.6954880  39.7665520  78.4713287   0.5737254  51.0410576  45.3477097
   1.0226401  51.8565636  45.1248665  -0.3176943  51.3109665  45.5685043
  52.9113579  58.8316269  21.6759243  53.1123734  59.7297325  21.4128113
  52.1245232  58.6069679  21.1792812  62.5093765   5.0330234  72.6334076
  62.5212822   4.1215091  72.3414612  61.5939178   5.2009964  72.8569107
  83.8513412  41.7544174  19.6815414  84.3874969  42.4533539  19.3070374
  83.4791183  41.3052864  18.9226170  60.5795708  27.9490318  85.1851273
  60.7247467  28.4779549  84.4006577  60.4440231  28.5890808  85.8838425
   7.0361481  47.5703812   1.2379563   7.6842871  47.7409515   1.9213688
   7.3856430  46.8192368   0.7585112  20.4292660  37.2742653  25.6341858
  19.6296749  36.9550667  26.0525169  20.3958626  36.9145050  24.7477951
  20.1900196  40.3968315  33.1777992  19.2710171  40.2599411  33.4078598
  20.1629620  40.9853401  32.4233742  36.0364189  48.9876633  24.4530430
  35.5210724  48.2988586  24.8728065  36.8270950  49.0551338  24.9883137
  13.7768373  61.7308922  15.8967028  12.9276075  61.6141624  16.3226299
  14.1002626  60.8405304  15.7592831   1.2361764  36.6283760   8.2760639
   1.6314226  37.0685883   7.5235829   1.9194455  36.0385132   8.5945511
  56.7176018  16.8599415  40.3640900  56.6036491  17.2345066  39.4906235
  56.7288475  15.9138117  40.2193718  83.4254913  33.2115746  62.1183434
  82.7714233  33.5740738  61.5208282  83.6828003  32.3816185  61.7168541
  54.3695679  53.7853470  26.1269360  55.2746086  54.0866241  26.2067146
  53.8458252  54.5851364  26.1744404  62.3581810  43.4283447  14.6164188
  61.7987862  43.0285378  13.9504900  63.1087418  42.8382149  14.6845036
  28.3666439  46.9898567  35.3083076  28.5708752  47.1898193  34.3947792
  27.5111217  46.5618858  35.2743301  42.1331902  44.7672806  77.5512924
  42.5290947  44.4331093  76.7464218  41.5327339  44.0751534  77.8281403
  38.5483818  40.3989830  21.4248409  38.1200905  41.2536545  21.3764725
  38.1699562  39.9850006  22.2004967  44.1627350  18.3814831  17.0414906
  44.2831345  17.4353733  17.1227970  45.0505867  18.7297916  16.9600811
  57.0060577  38.1127396  17.1307869  57.4437828  37.3731613  16.7093010
  57.5100479  38.8782921  16.8548203  12.7080536  55.0707893  79.8413849
  13.0559711  55.1318932  80.7310181  12.1697760  55.8558159  79.7402725
  55.6463890  67.4538574  28.5076218  54.9243622  67.7370148  27.9466095
  56.4287567  67.8171997  28.0927505  25.9184036  49.1533508  36.7025719
  26.0068226  49.3730659  35.7751350  24.9737816  49.1407051  36.8567162
  76.0927353  11.6425562  26.9050198  76.7302780  11.4400902  26.2203426
  76.6103363  12.0435619  27.6032467  16.6036949  70.5953979   8.3028421
  15.8232584  71.0896225   8.5536242  17.2632236  71.2649994   8.1215086
  15.0445480  50.4189568  39.5083237  14.3463316  50.5466042  40.1505356
  15.8427782  50.6807709  39.9671440  66.0389252   8.7576599  48.5651855
  66.6541367   8.2729816  48.0148811  66.4139786   8.7083988  49.4444695
  72.1166992  11.8829908  84.0853195  72.7723999  11.1880913  84.0269852
  71.2822571  11.4195232  84.1569977  63.4917564  12.0076647  58.8013535
  63.6699638  12.6241264  59.5116005  64.3288574  11.5691023  58.6491814
  54.0127792  52.8317375  74.5931778  53.5515175  53.6200562  74.3067856
  53.9364319  52.2278633  73.8544388  24.4335709   3.5343149  14.1719513
  25.2976475   3.9458110  14.1885071  24.5148792   2.7828126  14.7592030
   3.1319697  61.8225822  64.9743652   3.3955991  62.7209053  65.1737518
   2.4790864  61.9130325  64.2802582   1.9396396  56.4740334  45.9149246
   1.7746438  57.1634636  45.2717361   1.9146110  56.9235611  46.7596321
  86.1117401   6.3085852  84.9096451  86.7090073   5.8035331  84.3578949
  85.2656326   6.2460985  84.4664536  54.3866768  60.2919006  73.3967819
  55.1357651  60.8864098  73.4375839  53.8368187  60.6470451  72.6983795
  28.2351685  61.5539207  70.0791550  28.7573509  62.2060051  70.5464249
  27.3494492  61.6637154  70.4251022  13.3312407  56.8549423  11.3089924
  12.4299021  56.7069969  11.5952301  13.3171120  57.7268181  10.9141960
  15.2671347  68.6791382  16.9008789  15.1103382  68.6354599  17.8441391
  16.0965824  69.1495514  16.8174858  33.2199974  61.9527588  60.4345474
  33.5711060  61.6739922  61.2802658  33.9653587  61.8992386  59.8363762
  27.7605705  18.6515789  19.0376911  28.3430729  19.2058372  18.5183449
  27.7396736  17.8185520  18.5666695  52.4681778  64.6016006  48.0226250
  52.2051430  64.8167648  48.9174690  52.5928345  65.4507904  47.5988731
   8.3242359  13.1598806  67.5716019   9.2110682  12.8446274  67.7458878
   7.8113732  12.8591032  68.3217621  26.0350761  12.0570259  57.7948914
  26.4974289  12.8949471  57.8135796  26.0629387  11.7478504  58.7003555
  82.1616364   8.4078655  68.2173691  82.6760178   8.4141550  67.4101486
  82.2417603   9.2982807  68.5593796   0.3451315  17.1483364  87.8788452
   0.1865020  16.7455597  88.7325668   0.7964252  16.4712658  87.3747253
  75.8168716  51.4921074  10.1310120  75.5268326  51.5104523  11.0430279
  76.5867462  52.0606194  10.1130323  56.2106171  35.6280556   0.1455550
  56.5677109  35.5245705  -0.7364928  56.9043465  35.3104744   0.7235841
  74.9926224  52.6379356  16.5789433  74.7642593  53.5415077  16.7972088
  75.6780701  52.7176819  15.9155941  30.5612030  20.2284393  21.6116886
  29.7547741  19.9265804  22.0297623  30.4473495  21.1750813  21.5271950
  63.8093147   9.9387827  46.8049049  64.5616226  10.2530689  46.3034172
  64.1041183   9.1116638  47.1859512  23.9562092  46.3327751  24.4955978
  23.5841789  47.0551491  23.9896317  23.8335171  45.5630493  23.9399853
  73.2366180  69.9827805  21.9302673  73.3557281  70.1551361  22.8642578
  73.2843399  69.0297699  21.8545895  44.7312889  11.3101053  85.7835617
  44.9896431  11.5515261  86.6730576  44.9284706  10.3754463  85.7222214
  85.0503693  35.2641068  31.7087212  85.3962936  34.4356079  31.3768139
  85.7328796  35.5909729  32.2948685  54.4397583  49.4896431  29.2605610
  54.8914299  49.6787567  28.4380894  53.6640320  48.9934769  28.9992180
  45.6533699  38.0294113  28.4062767  46.5838585  38.2487335  28.3580570
  45.3074455  38.2622833  27.5446854  49.8266754  37.1739655  84.1558685
  50.1873055  37.7723579  84.8101654  50.5711060  36.6352348  83.8878632
  65.4451904  68.1260071  38.2129364  66.3956528  68.2333832  38.1765709
  65.3113327  67.3687439  38.7829056  56.3247604  70.2262955  85.5940399
  55.3913231  70.4217682  85.6759949  56.5064163  70.3132706  84.6582642
  25.5824509  25.4029617   4.7814088  25.6034641  26.2821102   5.1594152
  26.3789215  24.9833183   5.1066208  59.8641891   3.5349874  71.3337173
  60.3917770   3.5849600  70.5366058  59.4245605   4.3837938  71.3835678
  38.1280937  52.8717575  78.2316055  38.8257980  52.9491234  77.5808716
  38.5849571  52.6832428  79.0513458  70.0878525   7.1754403  86.9058151
  70.3254929   7.5570459  86.0607529  70.8507385   7.3320003  87.4623413
  29.2883205   6.5810456  17.5648918  29.5276814   6.2812862  18.4418659
  29.9901657   6.2561970  17.0008717  22.9523430  55.6367607  52.8224182
  22.9847050  54.7835274  53.2550583  23.6955700  56.1180267  53.1860466
  28.8426704  31.5580502  15.4640322  29.1305695  32.0793114  16.2134533
  29.6296272  31.4520435  14.9295301  14.6063566  22.8609219  59.1463127
  14.3978176  21.9396305  59.3011208  13.9840469  23.1376095  58.4737015
  31.7306767  13.8938847  23.4206486  32.2476044  14.6929417  23.3180618
  32.2566795  13.3408527  23.9983234  35.1828117  10.9094696  25.1958218
  35.2507172  10.1091690  25.7165318  35.7153664  10.7360687  24.4195805
  70.6941299  34.1446800  85.0329361  69.8762436  34.3000450  84.5605469
  70.4566422  33.5301323  85.7273178  16.1635838  54.6579819  53.8624687
  15.7625647  53.8700371  54.2292862  16.6394596  55.0480843  54.5956764
  17.3806019  53.7270508  38.5164108  16.7956390  54.4846954  38.5214767
  17.0130920  53.1451530  37.8511581  47.0364876  69.3954239  64.1141434
  47.5498390  68.7584457  64.6110992  46.5754318  68.8722229  63.4584618
  31.3223972  14.0386686   9.3350134  31.1734219  14.9093266   9.7037868
  31.6621609  13.5235510  10.0667553  20.3021374  53.2306480  66.3137360
  21.1577282  52.8250313  66.4539948  20.1051292  53.6669350  67.1426392
  59.4740486  49.9425850  20.1634769  59.7746048  50.1908951  19.2892685
  58.5245056  50.0593567  20.1324368  82.3495560  66.0588760  69.6286240
  82.9195175  66.4796600  68.9849548  82.2729263  66.6994705  70.3357239
   6.4315333   0.9965847  16.1983337   7.0849400   0.5772633  16.7582092
   5.8881078   0.2747063  15.8824024   2.5206788  51.4963837  57.2643890
   1.9132915  51.1929092  56.5896950   2.0180576  52.1358681  57.7690315
  64.9238815  50.3671951  88.1842804  64.2131653  51.0072060  88.2229309
  65.7222519  50.8920631  88.2421494  13.3643103  15.7175961  70.8834381
  13.1975698  15.0341673  70.2343216  13.0274925  16.5178890  70.4805527
  58.0140419  10.4621048  44.7736893  58.4273338  11.1840496  45.2472038
  57.7926254  10.8318729  43.9190102  10.3188114  21.5285130  30.9911098
  11.0093727  21.4381313  31.6477585  10.6985378  22.0966434  30.3208351
  79.0917816  39.2628021   0.7236390  79.7822647  38.8627930   0.1949982
  78.3067703  39.1999283   0.1795510  33.5017586   0.3453844  35.1232185
  33.2235374   1.0604019  34.5508766  33.7899208  -0.3429723  34.5237541
  26.9328957  52.5333862  72.3472214  26.8080845  52.3649292  73.2811813
  26.5947971  53.4192734  72.2163544  15.8092318  31.9205265  28.1652126
  15.8104086  31.0921783  27.6855583  15.6794138  31.6678219  29.0792789
   5.4914050  29.1219120  29.2581615   5.5742593  29.2939434  28.3202000
   6.0918570  28.3947525  29.4222584  51.2041130  68.0986786  78.7214890
  50.9548798  68.4896088  79.5589218  51.9113884  68.6565475  78.3977966
  66.9086456  41.3065529  51.1628685  67.3011322  40.6793518  51.7701645
  67.4483185  41.2465401  50.3745918  69.6057968  53.3460732  54.4299622
  68.9801865  52.8790359  54.9837799  69.8115005  54.1422920  54.9198151
  67.6468735  17.4959183  58.8570442  66.7585068  17.7835674  58.6465759
  68.2001343  18.2446003  58.6343117  71.5574570  28.9303665  25.6662197
  72.3029938  28.5117950  25.2358685  71.9233246  29.3068275  26.4666252
  26.2805157  50.3724060  40.4582748  27.1828365  50.4397392  40.7705460
  26.2893753  50.8060760  39.6049957  71.2060623  14.8706026  73.4092941
  71.7008362  15.3554182  72.7486954  71.1541061  15.4676886  74.1556320
   9.6076488   9.7834044  57.2567406  10.1645317   9.3814802  56.5899811
   9.6578598  10.7221661  57.0766335  16.4019375  33.6131134  20.5968056
  17.3421669  33.4341698  20.5834064  16.3123016  34.4565468  20.1531639
  80.9390717  59.4784546  66.7882233  80.1342239  59.2978020  67.2738342
  81.2489243  58.6168633  66.5091476  81.1935501  37.5990067  61.5551682
  80.2380371  37.5905190  61.4989700  81.3980713  36.9749107  62.2515221
  11.7957563  40.6568413  51.6064110  11.4956789  41.2873840  52.2610893
  11.2191048  39.9012718  51.7196274  48.3267517  35.8110771  12.4142380
  48.5456810  34.9841728  11.9846649  47.3734818  35.8692818  12.3500614
  20.6988144   8.0890770  33.3258705  19.8005028   8.2887373  33.0624199
  21.1468391   8.9347916  33.3093567  73.6592026  12.4560690  70.0371552
  72.9125443  13.0146065  70.2534180  73.9381790  12.7538042  69.1712646
  10.3351936  42.6877708  53.0062904  10.9877052  43.2242393  52.5561104
   9.7501335  43.3210106  53.4221573  82.9705582  67.0687256  50.9188080
  82.1885986  67.5797806  50.7100182  82.7098312  66.5248566  51.6620903
   5.3048735  42.0183067  83.4937439   4.9657393  41.7745399  82.6324692
   5.7236571  42.8677177  83.3546219   3.8961217  28.0478401  19.0705414
   3.8413508  27.5073261  18.2824574   3.0094230  28.3881397  19.1896782
  30.4991989  51.9188766  68.7742004  31.2577763  52.2924347  68.3255920
  29.9305172  52.6689186  68.9481888  19.2601719  30.4166946  19.3304310
  18.9563885  29.6411934  18.8586845  19.8976822  30.0796795  19.9599018
  17.3694611  47.6222916  61.8348351  17.1205959  46.7320786  62.0834579
  17.3316212  47.6232834  60.8783836  21.4568920  30.9412975  81.9334564
  22.3998013  30.7891426  81.9967194  21.0913391  30.0870781  81.7034378
  32.3682289  14.0615711   2.2182879  31.5209904  14.4857664   2.0823553
  32.2200165  13.4585114   2.9467003  85.7244644  29.2763309  66.8593216
  85.5149307  28.3567333  67.0226288  86.3603210  29.2537537  66.1441956
   9.4400845  30.9925861  21.4179802  10.0826349  31.4337902  21.9735870
   9.0926113  30.2888966  21.9659901  33.8028450  11.6173477  13.9675817
  33.6588936  12.4947901  14.3219891  33.2104568  11.0565815  14.4684305
  84.6984406  17.9279633  49.4641609  84.9117508  17.3235493  48.7532349
  83.9914017  17.4950142  49.9425812  26.3196697  35.0352364  84.5734100
  26.8973484  34.5689507  85.1776352  25.4361801  34.8068428  84.8623962
  68.1184311  21.1489372  45.1562996  67.5984497  21.6133041  44.5003891
  68.5157471  20.4222641  44.6763878  19.8725891  41.3404922   9.9331989
  19.6636467  41.0851631   9.0346546  20.4573784  40.6512756  10.2482090
  53.8745308  49.5410881  41.0774956  52.9876709  49.3836403  40.7535782
  54.3876801  48.8086090  40.7363434  11.3407221   6.8784790  65.5323486
  10.4664240   6.8286839  65.9188080  11.8181591   6.1476870  65.9250641
  53.1997375  20.6848564  24.7332859  52.9234047  21.0495224  25.5740547
  53.9392929  20.1170921  24.9499321  25.0213108  57.0944710  43.4042892
  25.1662178  56.1503296  43.4661789  24.4981079  57.2049561  42.6103859
  72.3034363  42.4685669  59.2967453  72.4827271  43.1631622  58.6630096
  72.1143951  41.6983261  58.7608147  16.1926746   3.6136978  65.8603592
  16.5023041   2.9112403  65.2885971  16.7480583   3.5522835  66.6375427
  65.4946365  49.0631981  73.8317337  66.0242081  49.7658501  73.4548111
  65.6695862  48.3055954  73.2734604  26.6566982   6.6159601  51.6391983
  26.7618580   7.1361780  50.8426132  27.2348232   7.0347838  52.2768402
   8.6007023  66.7022705  32.0159264   9.1723471  67.0253677  31.3194637
   9.1620893  66.6691360  32.7905083  29.9384518  38.9019356   4.6515751
  30.5671978  38.5775223   4.0068555  29.1165867  38.4669266   4.4245601
  10.1064434  41.6272354  28.1075230  10.8840094  41.2699318  27.6786194
  10.3181915  41.6093445  29.0408363  73.0724792  59.9040413   8.8222399
  73.0131378  60.5666847   9.5104370  72.7171783  60.3340912   8.0443907
  50.9313698  45.7792091  80.0017319  50.6691780  46.4116364  79.3327637
  51.1910439  45.0016441  79.5075760  72.2542725  41.8568115  50.1057816
  72.1150970  41.5221863  50.9917221  73.2049637  41.9341354  50.0255623
  15.5628786  38.7044449   3.1979678  14.9014807  38.5439453   3.8710382
  15.7255955  39.6466904   3.2419317  18.8746128  27.0521774  77.7952805
  19.4695396  27.1282730  77.0492859  19.2852535  26.4005661  78.3636169
  75.1676483   5.3851418  42.4282494  75.5424347   5.3345718  43.3075714
  75.7737808   4.8863459  41.8804893  31.6797981  24.1298046  32.1290474
  32.5460167  24.3985138  31.8229561  31.7940617  23.2195950  32.4023514
  55.4412842  52.5626030  20.8904762  55.8702698  52.9320755  21.6622868
  54.5117416  52.5455170  21.1182709  29.8203259  53.1138153  18.1131325
  29.3555241  53.0280457  17.2807636  30.3886375  52.3444939  18.1504860
   9.6012402   9.8502874  75.6139374   8.6474180   9.8877926  75.6849976
   9.9160814  10.0967474  76.4836349  63.4766197  63.1221504  64.3059692
  64.1301193  62.5707283  64.7362061  62.6613121  62.9345665  64.7710648
  21.3621502   3.6112325  22.1496449  20.5335140   3.1389940  22.0684910
  21.1933422   4.2786183  22.8147259  42.2300644  39.0504837   4.1381893
  42.7399101  38.3073997   4.4608665  42.1962967  38.9240837   3.1899729
  42.9308624   7.1492872  31.9557915  43.3807716   6.6794372  32.6579742
  42.3507881   6.4963684  31.5640774  19.3961830   6.1316600  41.2652931
  18.9928551   6.8221879  41.7913475  19.6323929   6.5631604  40.4441719
  56.1230621  41.7809105  63.0753403  55.6799927  41.1482658  62.5099411
  56.4467735  42.4528084  62.4753456  30.1769085  57.4178772  56.1872406
  29.9977703  57.8699722  57.0117073  30.2899685  58.1213150  55.5480042
  25.8067627   6.7024498  42.2232475  26.1983662   7.0092845  43.0410080
  26.4978523   6.1893721  41.8044624  53.4914703  48.0892296  37.0541687
  54.0172958  47.6570892  37.7272186  52.7539444  48.4677086  37.5327454
  66.3488083  52.3539047  58.9974174  67.2127762  52.0416145  59.2662430
  66.5276108  52.9747047  58.2911110  43.6134911  13.0379066  73.6153870
  42.7694588  12.9249182  74.0525131  43.7376938  12.2275610  73.1212769
  12.4990730  47.6357079  11.3139668  13.3373938  47.3651009  10.9395027
  12.0426264  46.8146477  11.4976797  33.3386993  67.5931778  81.3015366
  33.8516426  66.7869644  81.3575897  32.6205940  67.3792496  80.7058945
  85.7040863   9.3205462  52.3234253  86.6248550   9.5720167  52.2514496
  85.3284836   9.5401077  51.4708138   8.5749331  51.0885925  89.2318649
   9.2950230  51.5772934  88.8332748   8.6883354  50.1929398  88.9137802
  27.0830669  20.4655895  89.1836090  26.3666153  21.0808945  89.3395767
  26.8610115  20.0449982  88.3529358  82.7251053  70.3926315  39.5244789
  82.8322754  71.0685959  38.8552856  82.4710922  70.8735352  40.3121605
   2.5708885  33.8399391  88.8225479   3.4337106  34.2493401  88.7580490
   2.6517055  33.0302124  88.3185272  77.4947052  14.3921194  71.4771500
  76.6347733  14.7616787  71.2767334  77.3485031  13.8531694  72.2545776
  71.8977432  35.9549370  69.7791672  72.1747284  35.0545731  69.9490509
  70.9618454  35.9595261  69.9799271  62.0839806  22.2478199  54.6953468
  62.1852379  22.3609486  53.7502670  61.6838417  21.3836117  54.7916107
  73.4626999  37.3897858  37.9106941  73.5321655  36.6004562  37.3737030
  72.6953812  37.8468971  37.5664520  83.8096924  23.0355988  48.1677628
  83.4346161  22.1940613  48.4273148  84.3639755  22.8288898  47.4152527
  12.8064575   7.1936736  15.6103373  12.1304522   7.8631668  15.7153492
  12.9042025   7.0985379  14.6629057   1.8549774  36.1166039  78.9242325
   1.1530794  35.5722275  79.2809143   1.4444577  36.9679794  78.7730179
  31.1038914  52.4146461  10.4126329  31.5066948  52.4420547   9.5447435
  31.8342400  52.2563133  11.0107584  20.8446693  63.6261787  35.5736961
  21.7547302  63.6987801  35.2860336  20.9041328  63.3736076  36.4950562
   9.3556290  68.0112457  21.9799213   9.9636087  67.6939163  22.6476727
   8.5648184  68.2431564  22.4668198  35.7338104   6.6247244  32.2306786
  34.8879395   6.5996490  32.6780090  35.6720276   5.9415846  31.5630474
  33.0262032  67.1865387  45.7257729  32.6205215  67.9225311  46.1840019
  33.7457352  66.9164200  46.2963333  13.7264299  53.5113182  84.0408859
  14.0514393  52.6444435  83.7977219  12.7899237  53.3825073  84.1912003
   6.6859241  25.6129246  70.1587753   6.2105551  24.9328022  69.6816101
   7.6092482  25.4036236  70.0177155  70.8796463  53.5774231  74.6057358
  71.2405243  54.3905640  74.9590073  70.4656677  53.8368263  73.7825928
  74.7004089  12.1081314   9.5841036  74.4700317  12.4311056  10.4552221
  74.9490051  12.8929205   9.0957012  69.7861557   3.3757246  15.5083418
  69.2606812   4.1533651  15.6964321  69.4192734   2.6961951  16.0739079
  11.6830034  60.2863045  38.7341499  12.5554018  60.4957848  38.4005737
  11.4732351  59.4392166  38.3408661  -0.1148514   0.6948449  58.9082985
   0.6866793   0.8931041  58.4240723  -0.3137365  -0.2133782  58.6806870
  14.2941399  30.1317215  65.8867874  14.8313465  30.5476894  65.2125397
  13.3927164  30.2934151  65.6083603  22.9987621  62.9260292  10.2466612
  23.8162098  62.5213280   9.9564419  22.4544296  62.1908722  10.5285826
  56.6541634  52.5198555  41.9225388  56.9660454  51.7322655  42.3682518
  57.1985359  53.2248688  42.2730331  79.0392380  45.7713356  58.2174110
  78.2884903  46.0068970  57.6723213  79.6157532  45.2804527  57.6318359
  81.2474670  70.4534225  52.1953201  81.8986740  70.0821304  52.7905540
  81.7328720  71.0992203  51.6819382  26.8928833  13.4590397   4.6146860
  26.0385189  13.2778397   4.2229481  26.9997253  14.4063654   4.5287199
  26.8027592   0.9731508  52.6234779  27.2628307   1.7629670  52.3393021
  25.9893684   1.2961673  53.0111465  25.6985283  57.3047829  87.9597092
  25.5282383  56.5373192  87.4136047  25.5672035  58.0498810  87.3733521
  23.6700993  29.8887444   5.2708440  24.5632153  29.6288261   5.4967136
  23.7704258  30.4429455   4.4968743  11.4095106  11.6029997   0.5441182
  10.6677895  11.5727987   1.1484118  11.4043436  12.4973726   0.2030874
  27.2594509  32.3191910  81.0176392  26.9736080  32.3775673  81.9292984
  27.0560226  31.4200554  80.7599564  57.5129852  28.9084034   5.3892007
  57.3245926  29.8279552   5.5767241  57.8629036  28.5632706   6.2105851
  81.8568420   0.5391897   5.4986162  82.2647018  -0.0592771   6.1244893
  80.9354324   0.5642502   5.7567258  66.2956543  20.2808990  12.9735241
  65.7657776  19.5496216  12.6562080  67.0848999  19.8696175  13.3259134
  36.5593910  56.0322876  41.5391045  35.6467857  56.0590782  41.8266182
  36.9622917  56.7975731  41.9492722  53.1727829   4.4798989  36.6441383
  52.7946320   3.9656477  35.9308510  53.8885002   4.9665322  36.2352715
  60.7466011  51.7366676  21.5109997  60.8546524  52.4707680  20.9063072
  60.2276382  51.0980186  21.0220814   5.0859361  44.2211494  36.6327591
   5.0760469  44.9682999  36.0345116   6.0150104  44.0502243  36.7871513
  74.7453308  16.1661510  78.2514191  75.0043411  17.0269699  78.5802689
  74.6261139  16.2951488  77.3104782  16.8226852   9.2436686  25.6541862
  16.7654305   8.8334417  24.7912445  17.7619953   9.3352051  25.8140240
  70.6820145  15.3282232  35.2234917  71.4104385  14.7242117  35.0792770
  70.1628647  14.9167318  35.9144211   6.5523100  57.5758095  26.7456760
   5.7375202  57.8566017  27.1622162   6.5103641  56.6196060  26.7578125
  17.2368717  57.5098457   5.7089591  18.0165806  57.0822182   5.3548121
  17.3753681  57.5141258   6.6560769  12.6724024  15.2265615  79.0356750
  12.2353601  15.5919209  79.8049240  13.4261580  15.7992544  78.8938828
  73.1697845  31.9336185  50.5355911  72.9340134  32.3137245  51.3818550
  72.3557892  31.9464512  50.0321312   4.3265662  49.6346741  55.7869530
   3.3903487  49.8090897  55.6904716   4.6906338  50.4564972  56.1160393
  29.3757076  64.8958054  55.4996223  29.4848099  64.0468521  55.9281235
  29.1530628  64.6801376  54.5940018  81.1620178  56.5131531  77.3492813
  82.0208893  56.8614235  77.5885925  80.8664703  56.0465279  78.1310349
   3.2371421  41.7733421   1.6079473   3.8678761  41.1172981   1.9046118
   3.7005000  42.6066170   1.6927226  63.7530289   3.9623144  16.1471634
  63.8295135   4.8962550  15.9518766  62.8454742   3.8503194  16.4300709
  52.0035400   0.0421004  39.4357414  52.1511917   0.8176047  38.8944244
  51.3864670   0.3327225  40.1073036  28.7618637  63.5385933  64.4017792
  28.0088825  63.2555161  64.9205475  28.5770760  64.4538422  64.1910553
   9.3504753  19.8784237  32.8342056   9.6175919  20.6859589  32.3951492
   8.5667181  19.5971241  32.3621597  17.0451221  13.3672142  35.2570000
  17.2734852  13.6084967  36.1547012  17.1701679  14.1716795  34.7535820
  54.3682098   0.2367354  21.5535984  55.1229973   0.6141881  22.0053272
  54.6598244   0.1297859  20.6481953  31.2652760  52.7259445   5.1760764
  31.8981762  52.1394501   4.7617202  30.6678734  52.9713097   4.4695787
  44.9082947  53.0475044   3.9756703  45.3310280  52.3523865   4.4799886
  45.3110962  52.9935265   3.1090295  65.3412399  67.3727036  63.4256477
  64.5298691  67.8030472  63.1559868  66.0358047  67.9183807  63.0567970
   8.5728617  18.1601315  24.4762287   8.8028049  17.2923508  24.1440945
   9.3310986  18.7054577  24.2666378  19.0552254  66.9821548  24.4743366
  18.9826241  66.9688644  23.5199852  19.6400890  67.7168350  24.6598396
  29.4539032  56.6119728  34.4481354  29.0442982  57.2921982  34.9826889
  29.4460526  55.8330536  35.0044212  14.5938902  56.2373772  24.2031288
  15.3129177  56.8662453  24.2643986  14.0168371  56.4614677  24.9332142
  64.1545258  37.7041435  40.1523399  63.9349632  37.0607147  39.4785271
  64.3152542  38.5135498  39.6673050   4.6297503  41.9129753  69.7305450
   4.8116961  41.3924065  68.9481506   4.2245569  42.7133865  69.3967819
  63.5129623  32.3159180  57.2476768  63.9473991  33.0343971  56.7880173
  63.2341690  31.7203846  56.5520859  64.5009155  14.1784782  60.6764755
  63.6968880  14.6022635  60.3761864  65.1808090  14.5129700  60.0915833
  13.9359274  59.3839607  29.6524372  14.6044750  58.7750397  29.3386097
  13.8830862  59.2174110  30.5935555  29.4187145  12.7163448  84.7752304
  28.8875675  12.7559919  83.9799042  28.9375324  12.1263733  85.3554306
  74.0809021  42.1090202  34.4762573  74.7434769  41.8963013  33.8190117
  74.5744858  42.5047531  35.1945877  75.9867554  48.5757141  74.1856995
  76.7803802  48.3136749  73.7190857  75.2923508  48.5158157  73.5296173
  26.4131069  25.4932842   9.0940800  26.3616085  24.5947990   8.7680340
  25.8457317  25.5012283   9.8649578  46.2236137  39.1687622  73.8479843
  46.0374603  38.5382614  73.1522522  47.1397896  39.4108772  73.7129669
  36.3967209   9.8492537  67.0274200  36.5309563  10.3292913  67.8445969
  36.9117508  10.3303003  66.3796768   8.1484938  62.1967201  76.2793808
   7.6128454  62.4499893  75.5276031   8.9539576  61.8516388  75.8941803
   5.7911592   9.8608284   7.2208552   5.6086407   8.9485550   6.9957404
   5.3076153  10.0083055   8.0336695  75.7583847   1.4776394  74.0002823
  75.5025024   0.9412144  74.7506180  76.3699265   2.1191139  74.3618851
  76.7216949  24.7476177  88.3460999  77.1268005  24.3747387  89.1290970
  76.7531128  25.6937771  88.4876251  83.8712921   7.0515656  69.9610443
  83.4249496   7.6710234  69.3837357  83.8162231   6.2136297  69.5016327
  44.2042465  46.9584084  77.4402084  43.8459511  46.4553070  78.1714706
  43.4629402  47.4691238  77.1148453  26.2436943  43.9155006  25.7597637
  25.5872936  43.2205162  25.7110729  26.6039696  43.8431816  26.6436195
  50.0284920  13.9142542  21.3417568  50.8308830  14.1396942  21.8124752
  50.0368767  14.4798203  20.5695553  37.0157814  62.0447044  53.3012276
  37.4195366  61.5807343  52.5677757  37.5843277  61.8541412  54.0473328
  54.4834862   7.9201264  21.0334015  55.1280441   7.3293605  21.4229813
  53.6847954   7.7703776  21.5392685  81.2148514  46.5996552  88.6260071
  80.6451950  45.9499931  89.0379181  80.6892319  46.9608765  87.9122314
  18.9447975  17.5599918  20.0168018  19.4242363  18.1469212  20.6015091
  18.5183620  16.9343319  20.6024055   9.4402781  13.6061735  49.4518204
   9.9995642  13.0630789  50.0072289   9.2688551  13.0641870  48.6816902
  47.8750114  46.5299721   9.2013578  47.9974480  47.4687347   9.3426600
  47.7552147  46.1691551  10.0798178  12.4871349  68.5706558  15.4381695
  12.7890205  69.0556030  14.6701012  12.3250103  67.6848602  15.1136608
  82.2024612  56.9730186  42.7007294  81.7139740  56.4115295  42.0987854
  81.5702591  57.6373596  42.9749603  33.4005699  34.8807411  82.7288666
  33.2918320  35.5207405  82.0254364  34.2962456  35.0151291  83.0385971
  21.3583450  10.5369101  45.7345390  21.6653633  10.1751242  46.5658531
  21.6221485   9.8902884  45.0799217   7.6794620  55.9095917   4.4151130
   6.8182068  56.3156738   4.3172946   7.7474146  55.7142715   5.3497062
  56.4715614  16.4931011  76.4833908  56.3327141  15.9927225  75.6792908
  56.6825104  17.3768349  76.1821442  43.9337845  68.3764877  68.9996643
  43.0797386  68.0553131  69.2889557  44.0790901  69.1691589  69.5161819
   0.8847166  35.7128067  30.3339844   0.1465705  35.6095161  29.7333984
   1.1615220  34.8176003  30.5294685  11.9918814  50.4576263  17.0948658
  12.7297268  49.8864784  16.8813076  11.6333055  50.0932159  17.9041004
  19.5434265  24.5964622  88.4846573  18.6034489  24.6305676  88.6621780
  19.6309948  24.9318790  87.5924377  22.0175495  39.7697678  59.1079330
  22.7592525  40.3277626  58.8739510  22.3628559  38.8784828  59.0568275
  44.9500732  18.7773457  75.8440399  45.8972282  18.8854771  75.9303131
  44.5940285  19.1226501  76.6627121  83.2132187  27.5418015   2.1277499
  83.3777542  26.8427143   2.7605512  82.6031570  28.1295567   2.5733979
  75.5103455  47.9583511   3.3377151  75.2338943  48.8207169   3.6477616
  76.3950729  48.0975647   2.9999266  32.3306274   8.2638159  31.1208878
  31.8342648   7.6001930  31.5999107  32.0136108   8.1962833  30.2202377
  58.7064857  42.8981590  74.8237305  57.9432144  43.1141968  75.3594360
  58.3552437  42.3656731  74.1100693  82.4032440  46.0532913   4.5612898
  82.7121124  46.8162994   4.0727711  81.6716461  45.7174149   4.0434246
  33.6304550  15.2609978  86.4456100  32.7844620  14.8189936  86.3737946
  34.2647133  14.6168365  86.1309586   7.2312984  45.7210426  48.8825417
   6.9415998  45.1683693  49.6083908   7.2334576  46.6078644  49.2427902
  69.0578384  14.9960537  86.8772278  69.9900131  15.0278406  86.6621094
  68.6880341  15.7714653  86.4550705  80.4141388   6.2608409  67.3319778
  80.9151154   5.5020785  67.6311951  81.0313187   6.9906974  67.3832169
  76.7633896  48.7989922  20.9888821  76.9784470  49.6870880  21.2739601
  77.5406342  48.5051537  20.5137253  35.4934578  27.5191460  29.6678429
  35.8792534  26.7182426  30.0227318  35.7348022  28.1999607  30.2959156
  81.1778336  43.9964409  79.0710907  81.8230972  43.5415993  79.6123657
  81.6251831  44.1433830  78.2377167  24.7059040   5.5556879  87.4166183
  24.9445610   5.8029056  86.5232239  23.8406525   5.9429593  87.5492630
  79.3315277  11.5202904  84.9940186  79.9449615  11.2597170  85.6810684
  79.5271378  12.4438639  84.8359604  60.1293259  52.9488449  76.4850235
  59.8816223  53.8434410  76.2514114  60.4534073  52.5690460  75.6683502
  66.8070679  30.5628071  32.9245567  67.6315079  30.3464165  33.3600998
  66.2025833  29.8736305  33.2000084  20.5635376  59.8688774   7.4979897
  21.0557766  60.6352768   7.2037668  19.7158222  59.9461441   7.0602245
  15.3881598  51.5461006  14.8386784  16.0688362  51.6004677  15.5094652
  14.9033680  52.3672104  14.9222918  80.0837936  52.3404922  71.7262039
  79.8344498  52.8415604  70.9496841  80.1574707  51.4381218  71.4155121
  11.9985113  12.2677841  21.6007595  12.9412212  12.2800350  21.4352913
  11.8315048  13.0707731  22.0942669  63.1688614  11.2910967  54.3617744
  63.7654839  11.9483814  54.0036507  62.4965973  11.1857233  53.6885834
  56.6031609  18.9604244  75.6663361  56.8080215  19.3620892  76.5106888
  55.8270607  19.4295025  75.3599701  59.9198875  49.0837135  30.8693619
  59.5005989  49.9325180  30.7280979  59.9672089  48.9954224  31.8213062
   1.2286820  25.2398071  42.5180016   1.5298209  25.4723873  41.6396790
   0.3132323  25.5186329  42.5389862  47.4146843  56.9054070  70.3636398
  47.7335663  56.5345993  71.1864700  47.5099678  56.1958199  69.7283173
  23.6951180  64.3845673  65.3448944  22.8741417  64.5932770  65.7906189
  24.2309074  65.1708755  65.4492188  69.1464539  50.6884804  10.5711308
  68.2876053  50.9156494  10.9274969  68.9659576  50.4007339   9.6762257
  13.2150421   9.1833401   9.6078606  13.6110811  10.0424137   9.4616518
  13.9521580   8.5730572   9.5867195  29.1256199   7.3193550  60.7517281
  29.4037247   8.2352543  60.7473640  28.8337708   7.1533909  59.8553391
   1.5099941  52.9414902  51.8566322   0.5587617  52.8809128  51.7687759
   1.7612584  52.1329727  52.3031693  58.3425484  64.7274857  15.8387384
  59.2504234  64.5539932  15.5899563  58.1295891  65.5545044  15.4063835
  65.9555054  40.8685379  32.3248444  66.2135849  40.1048584  32.8410034
  65.5011520  41.4360542  32.9475212  52.7299728  65.8339081  32.7432747
  51.8889008  65.4964752  32.4351158  53.3097534  65.0722885  32.7388077
  66.0914459  53.9115334  31.8313274  66.8340149  53.5662155  32.3268776
  65.5809326  54.4020767  32.4755135  71.8095856   2.1464934   8.7137280
  72.4900436   1.4851469   8.8395338  72.2478180   2.9782622   8.8935661
  65.4572830  15.6687689  -0.1961889  66.2228622  15.1950712   0.1289725
  65.1118393  16.1222649   0.5727333  11.6925573  30.9915581  65.5457001
  11.8161535  31.8164520  66.0152817  10.9530058  31.1572685  64.9610367
  72.3758469  33.0665169  39.6026306  71.9469452  32.2648087  39.9018593
  71.7399597  33.7593269  39.7812271  52.7742844  65.6385574  69.5989609
  52.6782036  64.7692184  69.9878769  53.4873543  65.5411453  68.9678802
  74.4760208  42.0084534  17.6760406  73.6307602  41.6109085  17.8851547
  74.9169693  42.0923080  18.5214767  23.6176376  66.9804535  49.9652557
  22.9400826  66.6470261  49.3770523  23.1385460  67.4932480  50.6162148
   2.5020721   1.8350391   9.5638552   2.7337897   2.6072264  10.0798645
   3.3365812   1.3939586   9.4048777  11.7057629  14.1373053  82.9745331
  12.3072367  14.8743687  82.8687134  11.0285158  14.4639626  83.5668716
  30.3972454  69.5483551  31.0652657  29.5728550  69.9249725  30.7574139
  30.9925308  69.6339493  30.3205891  43.1932259  57.7375298  70.3337860
  43.8045731  57.7281075  69.5973129  42.4364052  57.2405396  70.0232086
  44.0561943  66.9988022   3.3129439  44.4544449  67.8692017   3.3191104
  43.5646706  66.9544907   4.1331091  53.4468117  55.1125755  22.5580292
  52.5878258  55.2290840  22.9639835  53.6862030  54.2079468  22.7594566
  70.9249115  51.1473274  47.3681335  69.9736404  51.0546913  47.3158836
  71.1348190  51.8275757  46.7282600  29.6655502  55.6255341   2.3733542
  30.3633137  56.2789040   2.4230042  30.1016560  54.7945786   2.5619144
  59.4935646  51.9124947  88.6374512  59.1476402  51.6116219  87.7971878
  59.5522614  51.1193733  89.1701279  87.1243744  64.5515137   6.1865706
  86.1979523  64.5290680   5.9468365  87.1319122  64.3857880   7.1292858
  57.0411148   4.8607597   5.2285976  56.5075378   4.9928498   6.0122318
  56.9978600   3.9185662   5.0654035  83.2899933   3.1445351  15.6930828
  82.9816971   2.8341095  14.8417187  82.6467133   3.8031175  15.9551802
  37.1939583  27.7926826   4.7330155  37.8112411  27.4392567   5.3735490
  36.5708466  27.0816689   4.5832729  32.1684151  59.0231628  88.2002411
  31.7024364  58.2397118  87.9081879  33.0294495  58.7032814  88.4695511
  45.4643250  -0.2553546  75.9899979  45.2827492   0.6753585  76.1205215
  46.1200943  -0.2760060  75.2930222   7.1540961  18.5945759  82.9617920
   7.7373405  17.8366241  83.0013580   6.7760272  18.6519318  83.8392944
  55.8483658   6.8854113  72.1380081  55.0536613   6.3783731  71.9719086
  55.6942406   7.7225547  71.7002106  35.0926971  67.1637650   9.0653276
  34.8121567  67.2651367   8.1557932  34.5914917  66.4150543   9.3885345
  21.2336845  18.4235191  35.8294487  21.9928055  18.2871933  35.2625465
  21.5984211  18.7939205  36.6331940   8.1123953  18.2161026  20.1195698
   7.4634199  17.7454071  20.6425514   8.8836050  17.6491833  20.1279621
  11.5260983   5.2173743  41.7843246  11.2034187   5.9501576  41.2597885
  11.9006624   4.6116481  41.1447678  33.8996277  32.4027176   1.2502784
  33.7189674  33.0233917   1.9562203  34.1578217  32.9511070   0.5094433
   7.7229657  29.0585251  46.2697258   8.3459911  28.8029976  46.9500046
   8.2607250  29.4767132  45.5972939  65.5276337  35.1263237   8.4853039
  65.6725082  34.5660248   7.7228680  64.6025543  35.3667107   8.4335575
  58.2774849  23.4396343  63.8398743  57.6319313  23.9941444  63.4016876
  59.1209755  23.8367462  63.6229439  39.6460953  41.5349274  14.4335613
  39.8605499  41.4097672  13.5091286  40.3112183  42.1445160  14.7533264
  69.1878433  37.5141525  27.2189865  69.7939529  36.7777328  27.2999725
  69.4051895  38.0853653  27.9556732  60.4309540  55.7157745  48.2216682
  59.9823303  56.4007835  47.7259560  60.9156647  55.2206383  47.5612717
  84.5324783   9.3916721  83.7133102  85.1750031   9.6790094  84.3620300
  85.0284424   8.8304300  83.1172714  58.2419777  11.7061234  12.5786524
  58.2076874  11.0699749  13.2930555  58.6988449  11.2489748  11.8725939
  84.9180908  15.8564005   0.2758332  85.7829971  15.5317888   0.5264215
  84.4699860  15.0909290  -0.0840112  36.7330132  20.8942947  83.2361832
  36.1917915  20.8567429  82.4475784  36.3824120  21.6340122  83.7322922
  72.4846725  16.5927544  71.4963150  73.2665558  16.1790695  71.8620377
  72.7046432  16.7511120  70.5782928   6.0681119  30.1824322  79.8258514
   6.8286896  29.9200916  80.3444366   5.3219557  29.7912102  80.2801895
  43.4702606  25.8365021  18.7824841  42.9136772  25.2400761  18.2817593
  43.0972710  26.7033787  18.6223812  35.4461212  13.5204058   3.3574591
  35.4169121  12.6009035   3.0930846  35.0619354  13.9940605   2.6197026
  55.2104874  40.5062790  81.9363022  55.8534622  39.9428215  82.3668060
  55.2159424  41.3129959  82.4514771  66.3917084  59.9129677  62.3294067
  66.2482300  60.2130928  63.2269402  65.8105850  59.1584435  62.2333755
  45.8206940  18.1577702  25.8146763  46.0360909  17.2286110  25.7340641
  45.8200111  18.3225441  26.7575874  83.4720001  65.8878326  59.9463348
  83.7628326  65.9622650  59.0374298  82.6638336  65.3771744  59.8981628
  41.3475037  56.2694511   6.3988791  41.2144966  56.2331352   5.4516611
  42.2932625  56.3728409   6.5041490  17.4095402  45.5853767   6.4919300
  18.3281860  45.3249512   6.5590315  17.4367771  46.5375595   6.3978992
  13.3720083  64.2884598  15.5338554  13.2622681  63.3427277  15.6327820
  13.2837534  64.6340332  16.4221249  23.3225880  35.9523087  83.4659500
  23.3752556  36.0622482  84.4153595  22.3954144  35.7868385  83.2950668
  30.6345806  63.0607338  16.8975716  30.0020962  63.6525459  16.4902000
  30.6168499  63.2934036  17.8258934  14.7718697  38.2231026  70.0417023
  15.7139587  38.3904724  70.0679092  14.5906420  38.0170021  69.1246872
  56.3695526  20.6255913  40.2146797  56.9353600  20.4024811  40.9538116
  55.5369034  20.1968689  40.4124870  85.3274155  54.0835648  34.0966187
  84.7203369  54.4863396  34.7174683  84.9407806  54.2551689  33.2379608
  13.4425640  13.2705975  10.8644924  14.2976074  13.3766937  11.2814770
  13.6201534  12.7454853  10.0841398  57.5891724  18.7820282  83.1496964
  56.7574959  18.8964634  83.6095276  58.2550201  18.8868084  83.8293304
  18.9394989  52.4050217  71.7706299  18.0879478  52.2761841  71.3529129
  19.1101856  53.3427277  71.6823044  18.5147991  68.8332443  79.8572006
  17.6953182  68.3387680  79.8704605  18.2417889  69.7472000  79.7772751
  56.9247894  52.3543167  17.1269531  57.4343452  51.7959671  16.5397301
  57.4160233  53.1750488  17.1632557  32.3357544  33.0821419  86.4864578
  32.7771606  32.2364540  86.4077148  32.2375565  33.3860054  85.5840988
  85.0221329  66.4010696   8.6665716  84.3934174  66.6201859   7.9788690
  85.5579147  67.1886215   8.7610569  28.9875870   2.5127082  69.2384644
  28.0843639   2.7912142  69.0872879  29.4446468   2.7309444  68.4262390
  13.1695204  42.1560936  22.4231701  12.7424545  41.6941071  21.7017708
  13.6167965  41.4685020  22.9165192  75.3025589  48.8014107  24.0552349
  75.4169388  49.2483749  23.2165623  74.8821335  49.4517441  24.6178513
  45.1462669  45.8177948   9.0748758  45.0671387  44.8669777   9.1518135
  46.0669594  45.9976883   9.2651215  -0.1481594  65.7285767  65.1808701
   0.4041620  65.1245728  65.6772079  -0.1432075  66.5356064  65.6955566
  60.6501656  64.5471573  74.8934097  59.9841461  64.2028427  74.2983551
  60.1514931  64.9320526  75.6141129  23.4150829   7.0113239  41.1879311
  23.1552620   6.0932279  41.1116104  24.3293419   6.9788909  41.4695587
   3.5218537  28.2010536  59.7524452   4.4148903  27.9160442  59.5588303
   3.4978552  28.2825661  60.7058678  15.7161217  70.1691437  52.3697968
  15.3875837  71.0149460  52.6746101  16.3278446  69.8901596  53.0511169
  30.4129467   5.7524433  35.7475319  30.3245220   4.8203597  35.5484505
  29.8873081   6.1911497  35.0785980  13.5169239  61.2093124  76.5384674
  13.1480179  62.0125961  76.1712189  14.1007452  61.5103416  77.2347183
  74.8906021   5.0463805   6.8400588  74.5912857   4.4439678   6.1590753
  75.8132095   4.8251524   6.9669008  69.4737778   6.6596956  47.7823944
  69.8460312   7.3154635  47.1927948  69.5842819   5.8299460  47.3181343
  65.6246262  50.9258461  32.8098831  64.8550720  50.6323547  33.2976151
  65.3180313  51.0106354  31.9070892  16.9070969  61.2162971  75.5478287
  16.2078762  61.0252342  76.1729813  17.6386890  60.6682854  75.8318939
  48.0582008  42.8398857  18.1699181  48.7633362  43.1869011  18.7163544
  48.0902367  43.3690796  17.3729515  73.7993698  28.9155540  11.3482857
  73.5367966  28.5858173  12.2076797  72.9836655  29.2159977  10.9475594
  55.5978127   3.7596962   2.5933692  56.2922935   3.1105433   2.4814391
  54.8521881   3.3977334   2.1145613   7.5928917  24.7413692  14.3740578
   7.5131836  24.9460316  13.4423971   7.9144745  23.8400421  14.3946238
  80.7475662  49.7711601  70.6909714  81.5238724  49.4865456  70.2087173
  80.7613907  49.2519875  71.4950256   9.9450464  31.3492165  13.5335608
   9.3393936  31.2288570  14.2649498   9.4398451  31.8351173  12.8817129
  25.6903172   7.1822181  29.7668648  26.0189285   6.9252095  30.6283722
  26.3975315   6.9549441  29.1631889  82.3408127  19.4406757  71.6869431
  81.8299561  19.3145485  72.4865341  83.1136169  19.9288692  71.9709778
  41.7618942  68.9823837   1.6811346  40.9182587  69.2797546   1.3404330
  41.5768051  68.1247406   2.0637927  85.4440079  55.0992966  62.1673851
  85.5937805  55.9855652  61.8382492  84.4920578  55.0273399  62.2370033
  60.2078857  26.0212688  82.2851410  60.1523018  26.8849545  82.6940308
  59.5625153  26.0487061  81.5787582  59.6413765   0.7715843  53.8404121
  60.1940155   0.2591046  54.4304848  58.9393425   0.1717014  53.5883827
  46.4509773  56.5934258  30.6928902  47.3115158  56.7967415  30.3263264
  46.5065460  56.8762817  31.6056538   9.4608088  70.3946304  13.7340393
  10.3286104  70.5935135  13.3824749   9.5573683  69.5313721  14.1361446
  42.7027779  12.5675926  61.4270020  43.3444672  13.2201815  61.1466446
  42.5461235  12.0352564  60.6470604  48.2676048   1.8865395  27.9477901
  48.6167297   1.2530323  28.5746975  48.7867622   2.6776168  28.0923767
  59.0648270  26.7515869  73.8569336  59.1691322  27.3860378  74.5660324
  59.2397041  27.2521648  73.0600204  65.1701050  49.5497932  26.3431339
  65.5047989  49.5444984  25.4463711  64.9114456  48.6429977  26.5076027
  39.4801292  57.6086159  57.2359962  39.3820953  58.3616333  57.8187370
  39.1806412  56.8628120  57.7559204   7.1605682   3.5775800  87.5811768
   6.5912981   3.0758319  88.1646194   7.1071367   4.4755487  87.9083252
  19.0115719  23.8163834  36.5506897  19.8608150  23.4556789  36.8054657
  18.4940872  23.8022957  37.3558273  63.8469200  25.4491272  71.3873901
  64.7964478  25.5657692  71.3553696  63.7194748  24.6694469  71.9278412
  77.7368774  11.6395664  58.2169838  77.2105484  12.2850819  57.7452621
  77.0945587  11.0597763  58.6262627  35.0205803  66.7247772  43.3386765
  34.8480339  65.9661255  42.7810898  34.5374832  66.5441895  44.1450500
  74.1099548   1.0402672  29.9873028  74.6114273   0.2641847  29.7373962
  74.5770187   1.3936870  30.7443848  30.9939079  62.7760925  55.4255371
  31.1653957  63.4915199  54.8131714  31.8508301  62.5697289  55.7988052
  68.1706696  15.7366524  20.8249016  67.6055603  15.5255251  21.5680771
  68.4062500  16.6550369  20.9564495  28.2702255   0.4472439  41.3963928
  28.1458035   0.2948737  42.3331642  27.5707722  -0.0540435  40.9772186
  80.4677658  50.5018616  61.1701126  79.9184341  49.9743423  60.5902901
  80.3627930  50.0985985  62.0318489  81.5697174  28.8617210  37.9146271
  81.6296082  29.7073860  37.4702187  80.6383591  28.6424580  37.8877525
  65.0792999  57.4962807  16.3340187  65.6755371  58.1164970  15.9144239
  64.2813873  58.0007782  16.4922943   0.4518169  27.3326015  46.6084366
   0.5808200  28.0594521  47.2177620  -0.1058231  27.6938019  45.9193764
  58.2591743  50.1767578  10.7598419  57.3244247  49.9787331  10.7027216
  58.2952805  51.1222038  10.9049644  82.0462189  36.0074615   9.8928261
  82.3904266  36.5983086   9.2230120  81.7049484  35.2606010   9.4009209
   0.6190376  50.1985474  55.5194931  -0.1277645  50.7970848  55.5359154
   0.2874165  49.3909760  55.9120369  50.2716179  21.1463757  22.8042202
  50.5102997  20.7762337  21.9543648  50.9856873  20.8881226  23.3870106
   8.2722578  53.4528008   9.5938234   7.3839641  53.0967598   9.5738192
   8.4770565  53.6372643   8.6771641  84.6866074  32.6900291  69.8522720
  84.8467102  31.9353771  70.4189301  85.1854095  32.5025749  69.0571060
  25.9617195   6.9753447  48.1248627  26.0640373   6.8725600  47.1787148
  26.6488419   7.5932865  48.3743477  83.8154755  48.4210968  74.2006454
  84.6705322  48.8462601  74.2665329  83.5132751  48.3493347  75.1060562
  39.7406921  65.8141403  42.1781235  39.0092316  66.4262466  42.0973663
  39.6578407  65.2401199  41.4166298  19.7884769  68.8183365  58.2423248
  20.4849091  68.1764603  58.1037445  19.6245899  69.1852570  57.3735657
  68.7020111  34.4818153   0.2977289  68.9618530  34.2947845   1.1997999
  69.4530716  34.9415970  -0.0774333  74.4108582  58.6207733  77.8845062
  74.6493530  58.2350197  77.0415649  73.8393707  57.9702492  78.2924881
  76.8166885  25.3459606  27.1956310  77.3133469  25.1377831  27.9869747
  76.3421402  24.5400658  26.9917488  31.2563629  68.8241806  61.1671257
  30.4649029  68.9423370  61.6923523  31.9732990  68.8766174  61.7991753
  54.9067497   5.6501899  61.8076134  54.1718826   6.2622137  61.7672958
  54.8832703   5.3062258  62.7005692   3.3441024  27.2061977  51.3597450
   2.5412169  27.6974068  51.5338745   3.5427954  27.3897228  50.4415588
  10.6704264  12.2534590  51.3126297  10.4176083  11.9635305  52.1891327
  11.5980558  12.0275946  51.2439194  86.2434769  36.6569557  58.1986008
  86.9602966  37.0538864  57.7037773  86.0086823  37.3167839  58.8510818
  35.7483368  58.6198463  26.0075340  35.9534836  57.9357147  26.6448040
  34.9322777  59.0062485  26.3252926  58.1394768  29.0596008  39.4488869
  57.3331718  28.9322872  39.9487839  58.5677071  28.2036495  39.4629898
  46.2772636  51.1233253  17.2779255  45.9190712  51.3308640  18.1409760
  46.4952888  50.1925545  17.3265953  15.3430061  71.7963638  46.7705727
  14.6852446  71.2524185  46.3373260  15.1777353  71.6731873  47.7053146
  40.9419518  14.8323011  78.3946381  41.1043282  15.5936337  78.9516296
  41.7670631  14.6958427  77.9290161  81.5042267  53.1954231  56.6874542
  80.8923340  52.6096764  56.2416725  81.6967392  52.7555313  57.5155029
  34.0337639  39.4677353  81.2482605  34.8376312  39.9298744  81.0106430
  33.3616829  40.1491089  81.2646179  57.9079933  35.7519112  15.9984503
  58.3340645  35.1700935  16.6278782  57.1786156  35.2375603  15.6524982
  78.2480621  64.6203232  23.4006672  77.8978195  64.0521317  24.0867577
  78.8235474  64.0515442  22.8892555  60.9559784   7.5944557  56.4732132
  61.0857887   8.2529898  57.1556473  60.5583763   8.0762701  55.7479553
  17.8020496  47.4463158  79.3174515  17.2529774  46.8930550  78.7618866
  17.5853043  48.3405876  79.0537567   8.9777479  70.2792664  57.7340927
   9.8985386  70.0215607  57.6897736   8.8862209  70.9570312  57.0643959
  36.5838928  55.2975388   5.1222830  35.8257828  54.9702263   4.6381660
  36.2810974  55.3593407   6.0282235  57.3968620  58.8564072   1.6994348
  58.0146713  58.6393700   2.3976018  57.9460487  58.9922981   0.9273234
  65.8775101  51.8208351  74.8894272  65.3689880  52.0927010  74.1254120
  66.5777130  52.4702301  74.9545288   3.4044650  59.6211281  51.0698929
   4.0970378  60.1411209  50.6622391   3.8171003  58.7781868  51.2580872
   1.0812316  29.7259808  47.8222504   1.7300055  30.0402584  48.4519768
   0.5309327  30.4887352  47.6444664  35.6997070  57.2461052  38.7131462
  35.3788528  56.4657059  38.2611923  36.1637268  56.9060440  39.4781799
  41.0955467  25.0350609  84.6068268  40.9197311  24.9721775  85.5456390
  40.2949638  24.7147751  84.1912384  22.8286209  43.6557693  72.7031479
  23.4251060  43.3820496  72.0063553  22.8969212  42.9648247  73.3620605
  67.1772156  40.3814659  58.6024323  66.3479919  39.9097595  58.6806831
  67.6587448  39.9084091  57.9237785  31.8994904  50.2367325  81.3957520
  32.0426102  49.5177155  80.7803192  32.7798157  50.5094833  81.6543350
  48.6871223  47.4011383  14.8190756  47.7534943  47.2044373  14.8957577
  49.0615768  47.1140213  15.6518908  72.0599976  10.5506220  34.6022415
  72.6650848  11.1049805  34.1095085  72.4365311  10.5073252  35.4812050
  65.7930069  23.7805538  41.3675270  65.8251495  24.7241535  41.2099915
  65.3051071  23.4298153  40.6224289  26.4613991  21.1873760  58.6743736
  26.2635632  21.9370384  58.1130409  27.2856293  21.4194202  59.1021996
  34.9073334  54.5852051  88.8604126  35.6175690  54.5587273  88.2192459
  34.2181129  54.0428696  88.4769135  42.2883987  62.2238159   5.1083517
  41.6207199  61.5644379   5.2971916  42.2809753  62.3059082   4.1547074
  76.0255280  18.9705467  70.1840744  76.4851913  19.2168598  70.9867401
  75.8895874  19.7979527  69.7223969  73.2586212  58.8941231  48.1352615
  73.7756958  58.6662254  48.9078712  72.3493652  58.8025627  48.4200439
  43.5760918   9.3191547  43.0910683  42.9333763   9.3451366  42.3822136
  43.7693253   8.3886328  43.2051811  75.7506638  45.2905426  11.6546249
  76.5733719  45.3156319  11.1660051  75.2159805  45.9788361  11.2588978
  48.1934280  47.6608696  79.8778229  47.5173607  47.5639381  79.2071838
  49.0053940  47.4099083  79.4374161   8.0843153  24.6115055   6.0196047
   7.5176864  25.3074207   5.6866436   8.5597858  25.0163040   6.7450681
  79.8649597  49.2902527  51.5305481  79.0946503  49.2876968  50.9623489
  79.6704559  49.9514961  52.1947479  58.5662270   2.3500404   1.8216250
  58.3949928   2.9130747   1.0667053  58.5899353   1.4643526   1.4593726
  18.5678959  54.2983017  76.4053116  18.4951706  53.4263229  76.0172577
  19.2572556  54.2107658  77.0636063   0.8903754  37.9985733  20.9211159
   0.7497342  37.8668480  19.9835129   1.7218300  37.5603714  21.1024780
  82.0920715  39.3978577  46.3358040  82.9318466  38.9442368  46.4081688
  81.4715500  38.8267174  46.7885513  73.0335922  55.0258484  47.6526566
  73.2381973  54.2789192  48.2152100  72.3728104  55.5184174  48.1394615
  45.4834061  67.5241013  42.8207703  44.5789566  67.4308777  42.5215797
  45.9156227  66.7207870  42.5307617  19.8479118  12.9078236   0.0099192
  20.2922421  12.1194029   0.3216795  18.9961224  12.5971994  -0.2970006
  10.5573950  30.7364712   7.2003841   9.7127867  30.5150795   7.5926266
  10.8855276  31.4617996   7.7318540  34.6897964  58.0217285   0.5993922
  34.3997192  58.5421028   1.3485904  35.1031761  57.2511406   0.9886713
   4.7166958  34.6899071  42.1162262   4.0377569  35.2277184  41.7087517
   5.4599395  35.2834129  42.2238045  58.5834122  25.0143585  38.7129860
  57.7215271  25.3766346  38.5077095  58.7080116  25.2047882  39.6427422
   8.3596992  64.3040390  78.6399460   8.3396664  63.5313263  78.0753708
   7.4648390  64.6428375  78.6140671  76.5942230  49.2803001  87.9012527
  76.9256210  48.6701889  87.2423401  75.6543427  49.3328972  87.7277756
  53.1384354  15.0372953  32.6206665  53.8373718  15.0146847  33.2742805
  52.6900673  14.1974926  32.7203140  17.0978260  14.8939781  62.3820076
  16.2159367  15.1864023  62.6122017  17.5834961  15.7026348  62.2194328
  57.6754799  46.5199738  81.7533112  58.5009537  46.2570152  82.1603546
  57.2301140  47.0350647  82.4260406  11.5407076  40.7730446  73.0575562
  12.2098503  41.4516258  72.9680634  11.3094082  40.5445404  72.1572647
  39.6163139  37.4374542   5.0849433  40.4020233  37.4116211   4.5388470
  39.2709618  38.3222275   4.9660225  53.6929588  49.1480103  14.7268953
  52.9269409  48.6714630  14.4069738  53.3544502  49.6999435  15.4318886
   3.2467418  41.9705963  24.7022705   3.6058500  41.6402702  25.5257721
   3.9202917  41.7738457  24.0512314  60.3681564  39.9483757  31.1915722
  59.5090370  40.3132133  30.9793434  60.2584839  39.5689240  32.0634804
  33.4345512  54.7729721   9.1389618  34.3883057  54.8284798   9.0797405
  33.1950150  54.0901031   8.5124283  86.3092117  40.1460648  75.4084854
  86.4213104  39.6206818  76.2007217  85.5751343  40.7269859  75.6082153
  54.1944771  54.3938484  52.1584244  54.6148262  53.7557487  51.5819130
  53.5962143  54.8752937  51.5870056  19.1835022  68.8615799  15.8451338
  18.8788624  67.9617844  15.7276993  18.5584641  69.2479324  16.4585629
   7.5695314  67.1565704  62.1164207   7.9230747  67.5762329  61.3321228
   8.2583942  66.5540237  62.3968468  25.5345955   9.1640911  27.8910141
  25.5841560   8.5106430  28.5887127  26.4217529   9.5185232  27.8313522
  70.7858047  62.0880127  88.0054550  71.7220764  62.0255165  87.8164520
  70.7335358  62.0829048  88.9612122  32.7594223  12.7812452  11.3813925
  31.9371910  12.5338802  11.8044491  33.4031029  12.7801104  12.0898447
  75.3761749  56.7997742  43.0851326  74.5785217  56.7670174  43.6132545
  75.0703735  57.0066299  42.2019958  23.9693832  68.0485840  59.8299522
  24.5514851  67.2976990  59.9463882  24.5586090  68.7861328  59.6716003
  82.9127579   8.2695990  63.4075050  82.7519836   8.4347277  62.4784622
  82.6594009   9.0835800  63.8427963  70.2313995  41.0453987  66.2974472
  70.7233276  41.4270706  65.5704193  70.7904892  41.1812706  67.0624161
   2.9435818   5.5997663  12.5746946   2.2993023   5.6494946  13.2808552
   3.2211008   6.5058122  12.4394321  54.5364418  17.7494774  10.3429756
  53.6473389  17.5653572  10.0399523  55.0923500  17.5498524   9.5897503
   8.4147978  47.7486000  45.0009003   7.8709955  47.5284042  44.2445755
   8.5820780  46.9086113  45.4282990  57.5709229   1.2938436  35.2805061
  57.8633118   0.4345918  35.5845222  56.7440224   1.4416525  35.7394409
  79.6707840  18.3067780  17.5270367  78.9542694  18.4188385  18.1517658
  79.8266144  17.3625374  17.5081577  80.5291519   6.5585685  63.5065880
  81.3473511   6.9368362  63.1845741  79.9235077   6.6348524  62.7692909
  79.3533859  53.0646019  84.3824921  79.2408295  52.3437233  83.7628937
  79.0526199  52.7103424  85.2193069  83.9311371   4.7683196  68.4606476
  83.8800659   4.6938691  67.5077133  83.3288269   4.0991869  68.7857895
   1.7206210   3.6769705   7.9090185   2.0752385   2.9796832   8.4606237
   2.0993755   3.5148895   7.0450125  81.4681168  12.7575350  67.0372086
  80.5941086  12.4219551  67.2365494  81.3700333  13.7094345  67.0595551
  64.8658981  54.6356163  63.3950539  65.5445023  54.8109474  62.7431450
  65.3496780  54.4157562  64.1912003  43.4945908  21.9777107  79.1703568
  43.2009926  21.4511108  79.9138107  44.1392288  22.5793819  79.5427322
  20.6849461   0.7603946   6.6017833  21.0183506   0.0043712   7.0850039
  21.4229622   1.0443527   6.0624027  83.1835098  21.4022350  76.4031296
  82.9016037  21.5473976  77.3062820  84.0411835  21.8238087  76.3492279
  17.4518719  65.1994095  65.9447327  17.0146751  64.3597336  66.0862503
  17.8470001  65.4093323  66.7909241  46.3344460  48.0862007  16.8998966
  45.4781456  48.0047112  17.3198280  46.1901169  47.7881660  16.0018005
  14.4427395  30.7110672  87.5218735  13.5710602  31.0294533  87.2872696
  14.2933083  30.1333733  88.2703171  64.7960052  39.7551041  18.0053921
  64.7917023  38.9958229  17.4225521  65.1567612  39.4237366  18.8277569
  86.3644409   5.4939551  54.4437370  86.8467331   6.1628766  54.9297104
  86.9896011   4.7767458  54.3387642  14.4755239  41.8701553  69.8087006
  14.7755146  41.5054550  70.6413040  15.1812592  41.6731606  69.1927795
  49.1074181  68.4990540  74.2774811  48.7263527  69.2860184  74.6669693
  48.5787849  67.7802429  74.6240234  45.1559181  54.8325119   0.6638207
  45.5873032  55.6186218   0.9987360  45.2430992  54.8981781  -0.2871363
  53.1931343  14.0758924  81.0931854  53.1387787  13.4714909  80.3529282
  52.5716782  14.7720470  80.8801270  54.8795204  64.1026001  63.1471405
  53.9957924  64.1393814  62.7812157  55.3815536  63.5942612  62.5101280
  25.4281254   1.1581838  28.3441601  24.9862728   0.7783710  27.5847263
  25.0543118   2.0356877  28.4246731   0.9708707   6.1098771  10.8300476
   1.7527746   5.6647663  11.1567497   0.2529590   5.7420387  11.3453426
  61.9734230  62.5499229  22.2772427  62.6972351  61.9531174  22.4673824
  62.3976288  63.3828278  22.0709591  18.1335659  58.5475121  29.6363964
  18.2374153  59.2488060  30.2795391  17.9390202  57.7697830  30.1593895
  76.8319321  17.2976933  51.8081131  77.5489883  17.6929150  52.3039513
  76.2449646  16.9440765  52.4764404  64.1398010  19.5216179  88.3635864
  63.6215134  18.7192516  88.3017883  64.6939697  19.5094948  87.5832138
  21.0362377  23.5972404  66.1157608  21.1933384  23.0528221  65.3442993
  21.8205605  23.4839134  66.6526337  70.9971542  16.7018223  75.7540741
  70.8957214  17.4686337  75.1902084  70.5564117  16.9435406  76.5686569
  43.8545227   2.5079820  15.7785759  44.6348915   1.9543903  15.8067770
  43.3280945   2.1437852  15.0669117  41.6837769  40.2645645   8.3717394
  42.2484970  40.4025497   9.1321869  42.2680130  40.3584595   7.6193552
  48.4518089  63.6869125  41.3281937  49.3982086  63.8274536  41.2997398
  48.1677742  63.7843208  40.4193115  76.2384033  43.3883247  27.0892677
  76.5705185  43.2659302  27.9786205  75.3911514  42.9429054  27.0865822
  75.2198868   9.5166674   8.9004593  74.9469604  10.3523207   9.2791710
  75.8491211   9.1629410   9.5290880   7.5108933  60.2900276  14.6235991
   8.0274687  61.0102081  14.2620487   8.0742941  59.9043732  15.2944803
  53.4003716  11.6293697  48.3505974  54.2330894  11.8568583  48.7641907
  53.2642212  10.7092276  48.5765076   1.0301657   9.6316795  68.3843765
   1.3112160  10.5103559  68.1290894   0.7944567   9.2065840  67.5597763
  62.5903053  45.5331650  75.9532776  62.7868309  46.2759209  75.3823776
  63.2070961  44.8531303  75.6824341  63.6379623  30.5169544   4.2692652
  63.1838913  30.8453636   3.4932506  63.1411552  30.8728180   5.0059981
  11.5824604  53.0524101  24.1906395  12.4020500  52.6068039  23.9763050
  11.5535345  53.0534973  25.1474018  68.7620239  61.4173470  52.2189636
  68.1478424  61.1255913  51.5452461  69.6177826  61.3898621  51.7910118
  38.2943115  20.4480877  18.2291622  39.0992165  20.6539555  18.7045364
  38.3362122  20.9900093  17.4412556  49.6484375  64.7605133  49.5682030
  49.6201897  65.5115204  48.9753952  50.4445114  64.8917465  50.0832558
  76.1290054  69.8471069  36.0307503  76.4950562  69.3607941  36.7694893
  76.3013687  69.2924728  35.2698898  11.4290304  27.2104454  62.2984924
  12.1652775  26.7328300  61.9163208  10.9017611  26.5355778  62.7260132
  39.9892464   7.5379481  48.0850945  39.5149002   8.3682280  48.1282654
  39.5238304   6.9642801  48.6938057  46.2964783  24.7824974  82.9496994
  45.3888931  25.0414448  82.7901154  46.4753075  25.0747337  83.8434830
  62.8195305  13.7356091  26.1930180  63.2050896  14.3329515  25.5521145
  63.4992447  13.6266842  26.8581181  73.3918457  25.9356728  65.8757401
  73.3190536  25.0363903  66.1954651  72.6598282  26.0333500  65.2667694
  44.5666847  16.8547192  73.9306564  44.1973953  17.2856293  73.1598282
  44.6974297  17.5628395  74.5612946  28.0339813  53.7519913  13.0893211
  27.4884453  54.4329910  13.4828434  27.6008949  53.5472794  12.2606096
  22.3015594  36.8833542  58.5026665  23.1118736  37.2577705  58.1570702
  22.5906258  36.2638817  59.1726837   4.0276289  59.9621849  20.9396553
   4.5896430  59.4375839  20.3694210   4.1542621  59.5874138  21.8112869
  81.8383865  67.9406738  31.6555138  82.7296371  67.6060028  31.7549648
  81.9205856  68.8847351  31.7905083  23.1714268  29.9720974  33.5184555
  22.8986778  30.3969727  34.3316689  23.8402081  30.5537224  33.1569633
  30.4267044  12.4114914  58.1971817  29.5707626  12.6538410  57.8438225
  30.7136784  11.6806917  57.6496353   5.5418696  70.1875076  73.5473328
   6.0760965  70.7232971  72.9610214   5.6373401  70.6025162  74.4045868
  19.6510029  64.6985016  14.1586332  20.5388031  64.6769714  13.8014498
  19.1765079  64.0323944  13.6612520  83.2851334  20.3862705  79.8341446
  84.1199036  19.9957638  79.5755005  83.3951340  21.3216553  79.6632996
  80.9759827   3.4241283  42.7881927  80.4090118   4.1329308  43.0921249
  80.4100113   2.6522422  42.7782059  33.6923904  25.8607731  24.6720200
  33.1575661  26.6210232  24.4435158  34.5625572  26.2220936  24.8408165
  66.0317535  67.6263733  85.7545395  65.8712463  66.7808304  85.3355713
  66.9717560  67.6295776  85.9351501  41.3270149  19.5114384  86.7930832
  42.1995201  19.1237907  86.7245560  41.0963211  19.4201775  87.7175751
  50.7673340  59.7598572  65.5959320  51.0086823  60.0430298  66.4778595
  50.6218338  58.8173828  65.6784058  19.2114887   9.0737724  55.2556076
  19.9612045   9.0632639  55.8506279  19.5956860   8.9749861  54.3844795
  44.4069939  24.9515972   2.9678280  43.7915573  24.6289597   3.6261411
  44.2104836  25.8854599   2.8935452  32.6195488  14.7094469  74.2206650
  32.1607857  14.6637268  75.0595245  31.9218082  14.7872047  73.5700150
  12.7632875   1.4537140  14.2290754  12.2988796   0.7761662  13.7376633
  13.5607061   1.0225793  14.5364504   0.9981000  50.1724892  12.4778557
   1.3021456  49.2680283  12.5536137   0.7495536  50.2653809  11.5581665
   1.9913018  28.7200680  74.1099014   1.6826309  29.0319614  73.2592163
   1.2227285  28.3120060  74.5086670  62.8366966  62.4839058  38.4030380
  63.6930733  62.1100578  38.1954613  62.2552490  62.1424370  37.7236633
  62.3896217  70.8599243  31.0000019  62.0213737  71.4525299  30.3446789
  61.9943047  71.1402283  31.8254623  75.6364136  66.4453506  73.3785553
  74.9375763  66.4856110  72.7256927  75.2296066  66.7628174  74.1847534
  25.6677628  51.9403610   4.7999997  26.4084530  52.3374977   5.2581377
  25.2266884  51.4153023   5.4678326  46.2300110  71.3054276  12.5693731
  46.1424675  70.4269333  12.1994934  47.1716995  71.4767609  12.5593882
  68.9519806  63.5796776  46.6575508  68.6285706  64.4759827  46.7485428
  68.1853485  63.0748253  46.3861961  43.3332253  27.7935162  36.2830009
  44.1203194  27.4891205  35.8312759  42.6633339  27.8278732  35.6001434
   3.0214775   3.9140403  26.4910622   3.0306766   4.8681898  26.4152603
   2.1980567   3.6491351  26.0811424  19.0959930  14.4972858  71.3523483
  18.6522655  14.1056623  72.1046524  19.6113567  15.2130804  71.7241898
  56.8772850  71.2733994  71.2859421  56.6581459  72.1095200  70.8747101
  57.1786995  71.5096588  72.1631927  61.4674225   1.0961629  29.2211227
  60.6349220   1.2320564  28.7686749  62.1056519   0.9771573  28.5177536
  42.6598549   9.8757915  83.1673050  43.1630974  10.0059385  82.3635406
  42.2496719  10.7245989  83.3331604  35.6405334   1.4874161  70.5912933
  35.8022079   2.2023282  69.9756699  35.7534714   0.6924694  70.0702057
  22.9131432  42.0229568  33.8849335  23.1902542  41.9120979  32.9754524
  22.9917698  41.1490555  34.2674904  86.6538773  67.7302017  39.0649605
  87.0391464  67.6975479  39.9405899  86.6005936  66.8141708  38.7924232
  40.7983627  59.9705048   9.8409204  40.3523254  60.4592819   9.1492691
  40.2672653  59.1828499   9.9582663  66.5316772  26.9747715  11.1570683
  66.4675903  27.1035957  10.2107439  66.6238174  26.0280609  11.2642174
  51.4873810  22.0522385   2.6892607  52.3997307  22.2819843   2.8655112
  50.9831810  22.7845383   3.0438793  52.3155746  26.5020332  29.1810246
  52.6168861  25.5935612  29.1920643  51.4054222  26.4560814  29.4738407
  29.4604836   6.7169046   2.2276704  30.2863884   6.6857433   2.7105207
  29.4839821   5.9444876   1.6628238  80.2548523  26.1512356  24.4100685
  79.3810196  26.0497398  24.0327797  80.4666290  27.0754147  24.2786217
  30.9807625  40.9840393  14.1006966  31.0035763  40.2038269  13.5466404
  31.6316814  41.5705795  13.7153292  47.5273781   5.1222396  12.4412870
  47.4230003   4.4004302  13.0612297  48.4671898   5.3038478  12.4411554
  34.1163635  24.9005337   1.7530490  33.2983017  24.4276466   1.9059496
  34.6121483  24.3359337   1.1600429  76.3020859   3.7717540  26.3845711
  76.5726547   3.9318476  27.2886677  75.3903580   3.4886065  26.4539852
  36.2789574  56.0850220  74.7000046  35.7717171  56.6792526  75.2530212
  35.6341019  55.4640312  74.3612366   2.3131018   6.4370823  35.1870918
   2.9707010   5.8964500  34.7494736   1.7982734   5.8169570  35.7034531
  73.0666504  71.1761703   8.5178108  74.0078430  71.0311737   8.6146097
  72.7598724  70.4259949   8.0085421  35.0234528  44.6876373  42.5552826
  35.0208778  45.6444588  42.5284767  35.6207352  44.4299660  41.8530769
  53.0293312  26.9487076  36.2410240  53.4911690  26.7117100  35.4368019
  53.3176193  27.8420258  36.4283943  76.1285477  53.2768364  70.3422241
  75.2349091  53.3786507  70.6697540  76.5420074  54.1242828  70.5069122
  33.3801346  12.5564117  70.6209793  33.6601715  12.5081272  71.5350266
  34.1301575  12.9324665  70.1602402  78.6639481  11.1398954  73.2054214
  78.9978409  11.2064562  72.3108139  79.4170303  10.8518963  73.7213287
  67.8573914  69.8434830  33.0356064  67.5125351  69.5544434  33.8804474
  68.3848877  70.6147156  33.2434158  39.8171272  30.3232727  87.8817825
  38.9650307  30.2937222  88.3168564  39.6820488  29.8541813  87.0584183
   7.9170632  30.6874142  37.1631813   7.3614140  31.4054832  37.4662704
   8.1524830  30.9284744  36.2672462  39.7767143  49.4862900  35.8268700
  40.6975327  49.5774269  35.5818825  39.6140671  48.5433769  35.8005676
  47.8188896   3.2646201  75.6332092  47.4769173   2.7110631  74.9311676
  47.0611420   3.4388552  76.1914978  50.7087440  27.7316074  86.8002853
  51.1578560  28.5552864  86.9902344  50.9326057  27.1615601  87.5359268
  32.5371361   9.4368458  59.2262955  33.3589096   8.9789209  59.0495834
  32.7978935  10.2158413  59.7176208  80.3389511  22.3950138  87.9538116
  79.4633713  22.5988903  87.6251297  80.2565002  21.5172100  88.3264923
  21.3734913  34.5569763  68.8894196  22.2534466  34.4955826  68.5177536
  21.4819584  35.0939369  69.6743622  22.8478107   8.2698765  73.3555145
  23.1873150   9.0521698  72.9207916  22.1440544   7.9642057  72.7832184
  80.2840729  41.4691696  29.7377167  80.3772278  40.7694550  29.0912247
  79.8692780  41.0466843  30.4898376  66.8610611  49.5242157  78.5774307
  66.1989746  49.6240005  77.8933868  67.6956482  49.5610542  78.1101608
  81.5665665  42.5546455  57.5764618  81.1088409  42.3943863  56.7512131
  82.2442703  41.8794708  57.6094971  85.3704910   7.6383624   8.8820534
  86.2245483   7.3590045   8.5522509  85.0278244   6.8708196   9.3399725
  12.5355806  70.2549438   7.6343017  13.1380453  70.6556549   8.2609568
  12.4635439  70.8964233   6.9275165  68.5842667  40.2318802  35.0282059
  69.0336685  41.0483170  35.2466087  67.9686127  40.0972214  35.7486725
  14.8751659  51.6890564  30.9329414  14.4005919  52.1154976  30.2193871
  14.4966698  52.0622406  31.7289963   6.1002302  48.8712540  49.5954895
   6.9153562  49.3729744  49.5867767   5.6258368  49.1715698  48.8202515
   0.2423866   2.2492611  71.2532196   1.0954106   2.4697020  71.6273651
   0.4387151   1.9642670  70.3607712  80.5175934  34.5923653  32.0646400
  80.5043106  33.6925087  31.7385845  81.2122116  35.0187569  31.5627193
  56.6190720  58.7459526  22.3043308  57.4351692  59.0434570  21.9022045
  56.2657471  58.1073837  21.6849613  14.8707676  69.4950409  59.1319313
  15.7827435  69.3348618  59.3745728  14.4095869  69.5665588  59.9676514
  55.0291443  65.5926208   5.2736058  54.7776947  66.0101166   6.0974393
  55.9594040  65.3937912   5.3800139  70.1858063  69.4664459  53.6767502
  70.1422729  68.5118256  53.7318916  69.3893127  69.7158585  53.2081108
  67.2896576  34.9366837  80.9498825  67.3816299  35.8817520  80.8289719
  66.8169861  34.6405754  80.1719818  47.4048309  36.2704773  17.9763851
  48.3504333  36.3868523  17.8840427  47.1586952  35.7140770  17.2374210
  20.4727097   4.2244797  71.6696320  21.3828659   4.0484366  71.9080734
  20.3731804   3.8353612  70.8007736  28.9882107  16.5792446  70.9108505
  29.7356434  16.6879520  70.3228455  28.5280838  17.4176464  70.8708649
  23.6386108  54.4586563  21.7281551  23.3376808  53.6100006  22.0528965
  23.4274158  55.0727730  22.4313545  68.2074127  56.2507629  15.5081158
  68.6371841  56.0157700  14.6857414  67.3459778  55.8368263  15.4549885
   3.6914334  34.6373596   4.1644769   4.5747757  34.2972031   4.0222459
   3.1151140  33.9717979   3.7888277  73.1801834  61.3939171  47.0745125
  73.9716873  61.7925453  47.4362411  73.1294556  60.5363693  47.4967346
  69.5198822  46.0872574  47.5697174  68.6366730  46.3921890  47.7775497
  69.7977982  45.6082458  48.3504524   0.8434242   0.2508401  27.9160709
   0.2179040   0.7958663  27.4386806   1.6780093   0.7113001  27.8284569
  56.6397057  23.9841843  34.5584259  57.0297623  24.8329926  34.7672653
  56.7337761  23.9044018  33.6092072  74.4066544  45.4572639  28.9122219
  74.2166901  45.0789337  28.0537281  73.8190842  46.2100792  28.9775295
  17.4035149  46.4090881  51.3956451  18.0020790  46.5754585  50.6674461
  17.6129475  45.5191994  51.6793137  42.2410393  60.4959831  46.6482315
  41.8456841  60.2612038  45.8087044  42.8741379  59.7984734  46.8182297
  68.5943756  38.3439026  63.9702530  68.9047318  37.4385986  63.9886932
  68.8556061  38.6691513  63.1087379  27.7934685  37.8173065  77.4770203
  27.8430367  38.0855408  78.3945312  27.3342876  36.9776840  77.4974213
   2.7706192  51.5279579  31.1571770   2.4759376  50.7694283  31.6611881
   1.9626346  51.9588242  30.8783455   6.3630662  17.3206444   7.0132179
   7.2455297  17.1097717   7.3182149   6.4254332  18.2252274   6.7065091
  79.8049850   9.8819561  46.4444580  79.8107681   8.9510050  46.6670074
  79.0384445  10.2319937  46.8984604   3.7185569   0.2871256  13.3908205
   4.2923155   0.9654655  13.0346079   4.2829351  -0.2232833  13.9715033
  11.9605083  33.6986122  64.1569977  12.2413054  33.8919373  65.0514297
  12.7565117  33.7841034  63.6323051  31.8718319  20.3554554  31.0220642
  32.7144699  20.8050842  30.9586182  31.9963169  19.5430374  30.5314388
   5.1849942  28.0527649  14.4143333   5.9339485  28.2113991  13.8397598
   4.4359241  27.9956169  13.8211555  53.6862259  10.6207972  14.1982765
  53.3447838  10.8792782  15.0543346  53.1132545   9.9073400  13.9173584
  21.2303295  55.0975151  16.4799805  20.7271080  55.3878479  15.7192526
  21.3065491  54.1498032  16.3692379  27.7953892  57.3329048  19.1129055
  28.1138668  57.7495422  19.9136658  27.0361099  56.8224106  19.3941917
  76.0248184  53.3979187  41.4084473  76.6660309  53.8623657  41.9463768
  75.1767960  53.7140045  41.7201881  65.1349564  65.9019852  39.5984459
  64.2053680  66.1096802  39.5037880  65.2348022  65.6652451  40.5205154
  70.0929565  37.2393570  60.2303391  69.8919830  38.0747490  60.6521988
  70.6413727  36.7768555  60.8640251  15.9230013  47.6853142  83.8285675
  16.7960835  47.8021126  83.4539795  15.6477871  46.8188667  83.5289764
  68.1578751  66.4634857  47.2284126  68.1821365  66.5466080  48.1816864
  67.3561935  66.9174805  46.9687347  66.1032867  55.3107338  60.4071274
  65.2042236  55.0459862  60.2126350  66.3677292  55.8343468  59.6507301
  62.1367531  51.8904076  12.7084265  62.6032982  51.6825104  11.8988914
  61.2370186  51.6070595  12.5458679  16.1159992  52.5562248  72.7805252
  16.9556198  52.2038422  73.0756378  15.5375891  52.4625435  73.5374222
  37.8009567  59.6138535  84.5629272  37.7668991  59.0770378  85.3546982
  38.5582809  60.1846352  84.6929321  43.4441071   3.6059585  51.2539139
  44.1127548   4.1116562  51.7158737  42.6160049   3.9030142  51.6310616
  79.1513519  67.1859360   6.2362022  79.3433609  66.7487946   5.4065785
  79.8972015  66.9733047   6.7972054  66.3016739  17.1247673  14.1271896
  66.4202347  16.3701420  14.7040062  65.4459457  17.4789944  14.3690376
  12.5898685  52.8067322   9.0631323  12.2759094  52.4572334   9.8971081
  11.8082428  52.8505363   8.5123386  83.7931290  49.3659286  28.5946369
  83.3776474  48.5040741  28.6232414  84.7319717  49.1796989  28.6055508
  34.6665688  13.6432514   6.0267534  35.0132637  14.1046543   5.2631164
  33.7393875  13.8800335   6.0490961  84.4807968  56.2981682  74.3172989
  84.0900116  56.9631424  73.7504425  85.4000473  56.2676239  74.0521774
  39.4375229  48.3362923   7.7676291  39.5618401  49.2640610   7.5675740
  38.5608215  48.1359596   7.4397602   0.9435754  43.4870453  40.1621132
   0.1931125  43.8581161  40.6261635   0.8528755  43.8078651  39.2648506
  23.5528870   9.2739677  67.4161453  23.0505333   8.7527761  68.0424347
  23.3916798  10.1810970  67.6756821  77.0611420  40.1219559  72.2941284
  76.2433014  40.4461441  71.9169312  76.7946396  39.6812172  73.1009445
  26.4029503  20.4947071  13.4455137  26.0933399  20.7644253  12.5808611
  26.6893520  21.3077164  13.8617163  47.2405243  62.7845993  15.5190420
  47.7156219  62.6530724  16.3395386  46.6431198  63.5098152  15.7017994
  20.1230087  54.9363937  27.6670017  19.1743469  54.8659401  27.7733402
  20.3483620  54.2345009  27.0564346  55.3936958   4.3000541  78.7150269
  56.1262245   4.5741296  78.1631927  55.7503891   4.2986722  79.6032867
  69.1564331  19.5591316  52.4299469  69.3849487  19.2895927  51.5403633
  68.5551071  20.2942295  52.3104668  68.5043564  30.1263332  89.2361221
  68.7437897  29.5415096  88.5171738  67.7766037  29.6836510  89.6727448
  79.0923309   3.0510263  85.6727905  78.6700058   3.8809326  85.4511490
  79.6491318   3.2585437  86.4232178  48.8680382  21.1634979  15.3073721
  49.4839134  20.5675430  15.7337170  48.7876740  20.8267269  14.4149837
  65.5874176  67.0043106  33.7080650  64.8052521  66.6164246  33.3156509
  65.3908463  67.9396896  33.7595329  70.2397079  17.5831451  61.7639046
  69.6400070  18.0412159  61.1750450  70.1154251  16.6564465  61.5589294
  21.0357971  23.5327530  28.7442837  21.2882175  23.1514416  27.9033813
  20.1352959  23.8291988  28.6121864  71.6853790  36.5452309  84.4213867
  72.0201721  36.4522057  83.5294800  71.5660782  35.6461525  84.7274170
  77.5951996  45.3925285  73.4251022  78.1903229  46.1375275  73.3411942
  78.0515213  44.6714363  72.9914780  38.3227119  69.6162720  55.3591499
  39.0027809  70.1803513  55.7273254  37.5273209  69.8596191  55.8328285
  60.2439461  62.0129623  11.8442822  60.2982903  61.7116165  10.9373808
  59.3076363  62.0066757  12.0430593  65.4179611  10.9756603  20.1481743
  66.1509628  10.3615170  20.1061802  64.6391602  10.4191608  20.1522350
   2.1907187  44.8655281  37.3627548   2.6808605  44.0882683  37.0946808
   2.4178429  45.5285645  36.7108116  53.6627922  32.8072128  37.6095963
  53.2514572  33.0703354  36.7863083  53.2968636  33.4046402  38.2618294
  76.1650085  41.2593727   8.4381084  76.8511429  41.5936775   7.8604484
  75.3830185  41.7535706   8.1921577  42.1845703  43.4417534  84.7736359
  43.0881691  43.2110634  84.5579453  41.9332390  44.0775223  84.1036682
  34.0247955  62.7843819   3.1227524  33.7158928  63.6612358   3.3506413
  33.3665962  62.4492874   2.5138860  39.5519066  22.4500847  24.6314526
  39.4070702  21.8410091  23.9073811  39.8641777  21.8990459  25.3491402
  42.1031113  56.7046318  57.2471848  41.7621536  57.5988693  57.2292290
  41.3809319  56.1798325  57.5925369  54.0051155  11.3634901  84.5320892
  53.2593231  10.8183508  84.2813873  54.7572746  10.7727184  84.4936447
  62.3203506  24.9630756  17.9186611  62.3549538  25.4484329  17.0943661
  61.3863754  24.8923626  18.1159496  55.0721092  52.0295029  86.9247589
  55.4108315  52.4823151  87.6970673  55.2578659  51.1048965  87.0885391
  82.4384155   8.0445862  44.2353554  81.7406540   8.6677608  44.4378662
  82.7873917   7.7898679  45.0895004  66.0106201  38.8804016  10.6433344
  66.0606232  38.9847794   9.6931562  66.7346115  39.4079208  10.9806623
  18.6269817  43.4850616  36.7964973  17.7066669  43.3123894  36.9950790
  18.6128407  43.8917580  35.9301071  17.9475765   6.1407967  44.9844170
  17.8191032   5.6459608  44.1751823  17.5770988   7.0036764  44.7989006
  64.1324921  69.1647186  44.1135445  63.4875526  69.1256027  43.4073143
  64.0790253  70.0639572  44.4371872  50.3573647  44.1296577  34.1379395
  50.6034012  43.2053566  34.1748505  49.4901962  44.1306839  33.7326622
  41.6092415  57.1397934  51.4950333  42.2300949  57.5787468  50.9135780
  41.9108582  57.3587685  52.3766861   3.9371059   1.4479719   1.2178693
   4.7581434   1.4736584   0.7264739   3.3122993   1.9172126   0.6650027
  41.8151894   1.8001099  79.5516434  40.9115562   1.8539332  79.2405472
  41.8423119   2.3827379  80.3106155  11.3685570  54.0238457  36.2863846
  10.8764038  53.7438087  35.5146370  11.5473690  54.9515686  36.1327896
  48.2617950  59.1485634  85.2564240  48.1029816  60.0032806  84.8558426
  48.7337952  59.3470688  86.0651550   7.8866315  64.9454117  12.2691135
   7.1928015  65.4624329  11.8598223   8.6234951  65.0098877  11.6615734
  69.8586197  60.3493385   8.0983725  70.5752182  60.4063911   7.4663415
  69.8202438  61.2191429   8.4961166  69.1775665  32.4721222  42.0587082
  68.6198959  32.9459229  42.6757622  68.7265854  32.5520706  41.2182007
  58.8344994  67.9195709  41.9305382  57.8865166  67.8324356  42.0303993
  58.9929771  67.7601852  41.0001030  76.0343933   5.3907576  10.8558331
  75.1434479   5.2573738  11.1793394  76.5943832   5.1837640  11.6040325
  28.7407742  14.0604954   7.0751495  28.5509052  13.1524677   6.8392119
  29.6028538  14.0250206   7.4896278  80.9419479  21.4928322  40.9937592
  81.6864471  22.0942478  41.0094757  80.1989288  22.0239429  41.2802391
  65.3913803  55.3540840  40.8116188  65.2603836  54.6483994  40.1783104
  66.3421860  55.4372673  40.8842659  59.3736763  15.8451900  38.0290947
  59.3790779  14.8901033  37.9657631  59.1383133  16.1421852  37.1501007
  21.1933136  46.4746094  42.4656677  21.7480564  45.6947670  42.4473534
  21.8066788  47.2025490  42.5662498  13.4741430  33.4808273  66.5590591
  14.3630877  33.1279831  66.5201874  13.2784328  33.5344582  67.4945068
  27.2917461  13.5165567  61.3779030  27.0519619  14.3590155  60.9919014
  28.2461910  13.4859304  61.3120956  85.3503418  28.2284470  52.7633629
  85.5596466  27.5119171  53.3625336  85.0969620  28.9528122  53.3354874
  85.1606445  40.8344917  25.0349445  85.8210602  40.6461906  25.7017479
  85.6275253  41.3439369  24.3725834  34.3743057   9.7862072  10.2466507
  33.4714928  10.0643167  10.0923262  34.2943954   9.0103273  10.8014975
  30.3819408  55.5627785  84.4937439  29.6071510  55.8949280  84.9471817
  30.1770344  55.6635742  83.5641785  33.5659714  69.3860168  19.2697697
  32.6638947  69.2192917  19.5430756  34.0644455  69.4033279  20.0867481
  35.5889359  57.9672813  18.1152344  35.8335571  58.5009346  18.8712788
  34.6377640  58.0569839  18.0564365  43.8215942   0.3585311  11.7728949
  44.6740532   0.0585670  12.0884361  43.8847084   0.2993976  10.8196096
   6.0570579  62.6500587   4.7252340   6.1109233  62.7220612   5.6782012
   5.4889946  61.8946686   4.5738401  81.3506012  34.9974365  24.2806473
  81.8657455  34.3039551  23.8684063  80.9229660  34.5694389  25.0223885
   6.6147060  37.8820343  87.4844971   6.5872049  37.1672363  88.1205292
   7.4942141  37.8353767  87.1096344  69.4891815  57.3709221  57.6716385
  69.7435150  56.8623009  58.4416046  69.9261780  58.2147064  57.7869186
   4.5272493  65.6702881  81.3809128   5.0935111  65.1226959  81.9247131
   3.8245564  65.0839005  81.1005554  61.9417610  21.9711246  19.6146259
  61.2379150  22.6179485  19.5650711  62.6920853  22.4591446  19.9538555
  78.2982712  71.8990555   8.4681377  78.9986038  71.2519073   8.3846960
  77.6363373  71.4673538   9.0082312  63.8935623  15.8221540  75.2317886
  63.1463470  15.2320309  75.1335373  63.5035439  16.6673603  75.4548264
  36.9084549  51.8038940   7.7273951  37.0896225  52.4142838   8.4421225
  37.7695045  51.4749298   7.4693103  75.1724930  64.3959503   1.9769953
  74.3081055  64.2040939   2.3406737  75.0979919  64.1693573   1.0499910
  47.7015038  10.5968990   1.2688748  48.4681244  10.0341291   1.1601741
  47.6330261  10.7283373   2.2145314  63.6266060  37.8449898  62.5277557
  63.7730637  36.8998871  62.4882774  62.8128586  37.9407921  63.0225945
  13.3524284  28.3406143  13.4263210  13.9132156  28.7088089  12.7435455
  13.2474861  27.4215469  13.1802893  51.1270103  60.2920456  36.6880035
  51.1292229  61.2492027  36.6791115  50.4345055  60.0598717  37.3066864
  85.0595627  18.5121651  67.0363159  85.1077118  19.0732002  66.2622681
  85.1654434  17.6240349  66.6953659  63.5768051  62.4762878  61.5126076
  62.9250755  61.7869453  61.3849831  63.4866829  62.7236900  62.4328804
  16.7145596  60.0749054  72.8035507  16.2492962  59.3658791  73.2474518
  16.8727989  60.7237244  73.4892807  12.3404293  13.6501341  31.4621029
  11.7339592  14.2331161  31.9187832  13.1515846  13.7049417  31.9673290
  82.2625198  49.5499992   8.6338005  81.6503296  49.8303604   7.9534678
  82.8386688  50.3034172   8.7628250  29.8885078  49.0235367  36.0392838
  29.3633499  48.2673607  35.7772903  29.9256458  49.5723381  35.2559128
  51.0131454   4.0462589  11.4820309  50.4962883   4.7932057  11.1801043
  51.0011177   3.4337258  10.7465782  82.4720459  36.0550880  30.9131088
  82.4728012  36.6942520  30.2005768  83.3848114  36.0132599  31.1983051
  37.4491882  52.7760048  23.2409191  37.2560730  51.8729286  22.9891453
  38.3129501  52.7308578  23.6509285   7.9577270  37.8858528  41.0720139
   8.6027775  37.9675827  41.7744827   7.1760492  37.5409279  41.5035667
  12.0751362   6.6808825  78.8871307  11.1408081   6.4773016  78.9297714
  12.4090633   6.4563875  79.7556458  85.5884628   4.0794716  27.2172089
  85.3148804   4.4487853  28.0568466  85.5581360   3.1321478  27.3509579
  76.0494690   8.0935144  44.4125977  76.8138123   8.4412670  44.8720398
  76.0871201   7.1493707  44.5655899  60.3637161  48.8348770  82.6150665
  60.6291351  47.9162178  82.6580353  60.3266373  49.1164818  83.5291519
  45.4702835  14.5014057  13.8286295  44.6113319  14.0804729  13.7932272
  45.4462471  15.1539650  13.1287575  18.7602863  34.9169197  38.8534622
  17.8135643  34.8073425  38.7643509  19.1053028  34.0240784  38.8586693
  65.2592926  17.1590366  45.4951134  64.6407623  16.8496647  44.8333435
  66.1211853  17.0005703  45.1100578  67.5000076  32.0634270  38.1269951
  67.0157928  32.5692062  37.4743462  66.9140549  31.3411446  38.3532639
  63.9200287  51.2072906  83.0303345  64.5376892  51.2952690  83.7562714
  64.3676682  51.6078911  82.2851028  75.7097168  19.4254036  13.8996687
  76.4493179  18.8211651  13.8355045  75.4101868  19.3420544  14.8049660
  62.2439003   8.0070972  52.6094933  61.8582001   7.9393086  51.7360687
  61.5005569   8.1818590  53.1866684  55.6242599   0.9593464   9.9448910
  55.2744904   1.2725807   9.1107578  56.0003395   0.1031724   9.7405310
  28.6902065  51.4275284  31.8745804  28.0487576  52.0565224  32.2049446
  28.2358532  50.9718971  31.1659203  38.1539192  58.4117088  41.0440598
  38.0155754  58.9120331  41.8482819  37.6139717  58.8554802  40.3900299
   4.5765114  63.1342621  38.3490067   4.2175074  62.7294579  39.1386147
   4.4661398  64.0744934  38.4905014  22.2231083  28.9109039  79.8416595
  21.5843887  28.4204464  80.3590851  21.7861576  29.0634460  79.0037842
  72.8751526  63.9254150  30.4649220  72.6984253  64.6443100  31.0717049
  72.0970917  63.8845711  29.9088707  12.6847143  13.4893055  69.1373062
  12.9539080  12.7731333  69.7125092  11.9714956  13.1219807  68.6151733
  18.8420162  44.9380913  29.4884739  18.2621479  44.2624168  29.1371288
  18.7497749  45.6722908  28.8812866  78.9428787   6.4357438  40.5898895
  79.1544647   6.7351298  39.7056770  78.7386169   7.2372379  41.0716743
  39.6245956  31.7347527   1.8953544  39.1017380  31.7372017   1.0935788
  39.3054314  30.9780941   2.3871202  79.6809082  15.6577702  18.3504295
  79.7560349  14.8184795  17.8963604  80.4077301  15.6590071  18.9732971
  76.6902924  10.8807554  77.6835632  77.4516830  10.5520754  78.1615677
  76.7647018  10.4866571  76.8144302  29.2434826  48.8912735  33.3336716
  29.7113438  48.3149261  32.7293854  28.9838428  49.6404800  32.7974739
  26.4754925  48.6673164  74.8517914  25.8731289  47.9425812  74.6840134
  26.8035603  48.9113426  73.9863129  14.6373949  66.8881912  74.5106659
  14.1316957  67.0199203  73.7087021  13.9929371  66.5947723  75.1547241
  34.8434219  38.9931412  18.2838421  34.0081787  38.6054077  18.0225735
  35.3114891  39.1310196  17.4603558  33.8797951  69.1689682  69.7485657
  34.6675911  69.5355911  70.1500626  33.2232590  69.8601913  69.8345947
  39.2719650  19.4734650  82.6912842  38.5240288  19.9977818  82.9774933
  40.0054398  19.7969933  83.2143250   9.8781815  43.0507050  21.3065910
  10.4806757  43.2847939  22.0125904   9.0096560  43.1038551  21.7054291
  86.8331985   6.3280649  41.4865608  86.5546951   5.4609919  41.7812653
  86.0208969   6.7684422  41.2366409  55.9424591   9.8339443  75.4754181
  56.7266655  10.3656998  75.6113968  56.0338707   9.1096716  76.0945358
  67.8305511  40.3506432  46.9341354  67.9915771  40.9303284  47.6786270
  68.2977829  40.7603836  46.2061005  61.6634178  45.2749100  45.7577858
  61.1534462  45.9678268  46.1773376  62.5694923  45.4624939  46.0028915
  17.6809940  48.8345413  15.5143585  17.0330753  48.4010468  14.9589176
  17.2596664  48.8945618  16.3717461  84.7151794  41.2151337  50.1650505
  85.6055298  41.0916977  50.4940948  84.7817154  41.9601250  49.5677299
  83.1476212  68.3591919  81.6907043  82.9549561  68.4786530  80.7607422
  84.0738678  68.1189041  81.7144699  42.9681282  20.5028038  20.5917339
  42.4763832  20.9898605  21.2529430  43.8701096  20.8072605  20.6915455
  85.1011047  65.2573166  11.8847971  84.3346710  65.0207214  12.4071350
  85.0644760  66.2119141  11.8245316  82.8337784  55.0081329  62.0937119
  81.9567337  54.7654686  62.3905792  82.7283173  55.8862610  61.7276497
  21.3101463  23.0208855  11.6843290  20.5418377  23.2279930  12.2163448
  21.6851921  23.8733330  11.4631758  23.6919727  61.1093216  81.6305237
  23.9799690  61.9918289  81.8639145  23.7180271  61.0940514  80.6738052
  53.2652779  69.4050446  36.9666634  53.9353714  69.0209274  36.4012718
  53.4145355  69.0028000  37.8223228  14.9871969  36.6107750  32.7027588
  15.6251726  36.1080933  32.1962700  15.4354725  36.8068428  33.5254593
  86.2973862   6.0634856  75.1769257  86.3082428   5.5481286  74.3703766
  85.7630234   5.5495558  75.7823715  57.8980598  18.2679844  18.0523529
  58.0768356  17.3689041  18.3279037  57.7350273  18.2021866  17.1114368
  12.2378483  31.3749466  79.4996490  12.8025532  31.5950241  80.2405319
  12.4473715  32.0315857  78.8354492  73.0872650  40.6494408  43.9367294
  72.9744415  40.1529884  44.7473068  72.3326340  41.2376671  43.9091301
  19.0021286  37.8417816  79.5063934  19.4232998  38.6323624  79.1690063
  18.3646584  37.6040535  78.8330841  59.1342659   5.5098648  17.5276279
  59.5067444   4.6285591  17.4994736  58.9223633   5.7095728  16.6157932
  24.0535183  52.9327812  37.1963997  24.8248940  52.6522560  37.6888618
  23.3184528  52.5125809  37.6428833  45.6033211  71.6723099  15.2778530
  46.0649490  71.8351669  14.4552898  45.4010849  70.7369308  15.2578793
   9.3748941  25.7733727  76.9317703   9.7797117  25.5693531  77.7748184
   9.1196527  26.6930084  77.0049438  10.8772030   3.7357547  87.7439651
  11.6741753   3.9537010  87.2606812  10.4904385   3.0104625  87.2534637
   1.1758379  24.4958172  52.1441345   1.9287995  24.6735325  51.5804863
   0.4611360  24.3061123  51.5363121  36.1289864  52.3582573  34.3542557
  36.2738838  53.3030586  34.4051476  35.1786613  52.2649193  34.2879028
   5.5470977  57.0289001  78.8084793   5.2389469  57.9313583  78.7257385
   5.8622789  56.9651451  79.7100525  29.3545723  14.1267891   3.3776071
  29.8438644  14.5163040   4.1022472  28.6252403  13.6715469   3.7983940
  34.4358559  64.6133118  17.4404659  34.8052902  63.7306633  17.4143658
  33.5532112  64.5141678  17.0836163  73.0959320   7.1959953  18.7746315
  73.3868103   7.9556003  18.2700291  72.3594208   6.8441014  18.2746830
   9.5359659  52.8087921  56.5811844   8.6718426  52.9650764  56.2002678
  10.1044827  53.4515572  56.1570663  52.6410522  36.6465874  72.1581497
  52.6289902  37.5692558  71.9036560  51.9581909  36.5730820  72.8248749
  25.8542023  27.5797005   6.8728094  24.9040413  27.6799145   6.9309778
  26.0773582  26.9898567   7.5928907  26.1462173  68.5397720  42.8161354
  26.8155022  69.2042770  42.6526566  25.3473339  68.9060898  42.4368858
  54.1939468  15.5611715  25.8901997  53.7789803  16.1904888  26.4801083
  54.6344223  14.9418335  26.4721222   8.5619822  47.4676514  19.0974140
   7.9125366  46.8442574  18.7720985   9.0358973  46.9873848  19.7763710
  66.2678452   0.8299159  86.9879761  65.6196976   1.2291025  87.5683136
  66.9368439   0.4834362  87.5784225  60.3746300  47.7116127  68.7243118
  59.4397354  47.9125404  68.6815720  60.4704857  46.9079170  68.2133179
   2.4645283  13.4199152  74.5776520   3.3227432  13.8298655  74.6855392
   1.8405466  14.1364861  74.6934357  81.8360291  31.2760048   2.7246146
  82.0700226  30.8420963   1.9041258  81.3441696  32.0512199   2.4537942
  15.7624178   3.7694213  79.6551819  16.5893002   3.3361027  79.4436798
  15.3380165   3.1829660  80.2814255  13.9337645  12.8388805  59.5997887
  13.4228134  12.2913246  59.0036850  13.8606386  12.4020252  60.4483414
  47.0613403  50.2719803  35.0355644  47.7158737  50.6198349  35.6412201
  47.0139999  50.9222260  34.3347282  47.1053925  58.0846481  40.5445709
  46.9699135  58.8822174  41.0561943  46.5008583  58.1675987  39.8070793
  17.9650612  41.1783981  14.0341578  18.5875053  41.8734245  13.8203039
  17.7575836  40.7750015  13.1912727  70.9736099  47.0200577  50.2503090
  71.3594894  47.6701508  49.6631927  71.7245255  46.5563545  50.6208954
  14.6559448  12.3905296  21.2766132  14.9358826  12.6581879  22.1519566
  14.9970579  11.5016928  21.1773987  51.9888573  60.0406647  58.7987556
  51.9238777  59.3597107  58.1291962  51.1124344  60.4236412  58.8367271
  84.4065399   1.5460908  30.3685837  85.1804810   1.5700451  30.9313259
  84.1977768   0.6154238  30.2879162  73.4848480  12.8198557  26.0455971
  74.3407593  12.4138718  25.9083729  73.6832047  13.7337885  26.2495937
  56.0100632  55.4666824  53.9290810  56.1514473  54.6973801  54.4808159
  55.2266998  55.2562370  53.4208641  69.5261078   8.2210407  65.7757339
  69.1166534   7.6249485  66.4028397  69.4174652   9.0890522  66.1643066
  18.7081242  62.9360733  84.6678543  18.8885002  61.9969330  84.7091980
  19.5057068  63.3480072  85.0001297   6.8035793  63.0568466  28.8836975
   5.9493046  63.4711037  29.0054989   7.0451274  63.2667770  27.9815807
  34.3969727  70.4456711  65.8112030  35.2839317  70.7483368  65.6164398
  33.8277016  71.1300659  65.4594116  42.6007805   5.9474254  21.5982342
  43.0522385   5.1046286  21.5522995  43.1370316   6.4744143  22.1906433
   5.2279549  59.2818298  83.5263290   4.5129609  59.3893166  84.1535950
   6.0152426  59.2256584  84.0678635  86.0907669  47.6514053  25.3817558
  85.9702072  47.9429932  26.2854576  86.1985779  46.7026443  25.4485741
  71.6568069  71.6694183  30.1552677  71.5693512  71.0007019  30.8345394
  72.5746918  71.9372864  30.1996441  64.3250809  47.6230545  42.3444977
  65.2543488  47.7601128  42.1603508  63.8732491  47.9982224  41.5886345
  76.1805801  33.4771423  13.4405127  75.4149246  33.0602455  13.0452938
  75.8383789  33.9186363  14.2178249  46.1824112  65.4181061  47.7278595
  45.2542572  65.3252106  47.9426422  46.6411133  65.0584412  48.4871101
  52.5050468  35.9063454  15.7691250  52.3894539  35.7965317  16.7129517
  53.2248955  36.5319099  15.6871672  62.0833740   9.8609838  75.4512939
  62.2417221   9.0610456  74.9500351  62.4119682  10.5638714  74.8907471
  43.7006798  64.4161148  26.6534882  44.4586563  64.9762115  26.4861622
  43.0737724  64.9876404  27.0968628  80.5518265  45.8578415  82.5821686
  81.1345444  46.4377632  82.0918961  80.8733063  45.9008331  83.4827423
  25.1262112  54.5335159  69.2335281  25.7052689  53.9704247  68.7198639
  25.1233025  55.3670120  68.7628784  32.1098022  19.0387192   4.7877793
  31.7616825  19.5570736   4.0622778  32.4456558  18.2433929   4.3743873
  54.4098434  50.9790726  52.8687859  54.1866951  50.2573547  52.2809410
  55.0089340  51.5256653  52.3602982  36.5004005   5.4421568  52.4638519
  36.1436844   5.5094299  53.3495483  37.3357697   4.9884677  52.5759087
  86.1463470  49.4216385  78.8525620  86.3011627  48.6524506  78.3042831
  86.0718918  50.1468506  78.2322769  36.9520340  45.1571846  79.7731781
  37.2969894  44.3916435  79.3136215  36.5895195  44.8052673  80.5861740
  27.5788708  24.1519432   6.6647768  27.8487110  23.3986874   7.1901550
  28.2265663  24.8277760   6.8647075  16.5543365  67.4677582  71.1592941
  16.8565998  66.5963440  70.9033432  15.6725855  67.5327301  70.7925110
  17.9081821  15.9823542  23.9108200  18.2155190  15.3700361  23.2423573
  17.2437229  15.4933586  24.3962154  50.2542419  66.2295380  60.7551117
  49.7682037  67.0501022  60.8368759  49.5829010  65.5484467  60.7956963
  67.1595840   2.2755225  78.8928528  67.8803635   2.4310956  79.5031815
  67.2236481   1.3447618  78.6788177  75.3275833  57.0745049  61.1064873
  75.2719040  57.8380280  61.6810875  75.7542343  57.4014130  60.3144493
  82.7939758  57.8503036  31.8324680  83.3789825  58.6079178  31.8372536
  82.1135635  58.0770912  31.1985607  61.0802689  34.3643494   8.7401419
  61.5834045  34.0015450   9.4691553  61.5272369  35.1828613   8.5245275
  61.5697823  57.5080605  87.5099869  62.1375389  56.7579460  87.6866608
  61.4196625  57.4775200  86.5651245  58.9687767  28.3940830  76.9226761
  59.5191231  29.1373577  77.1694489  59.5743599  27.6546574  76.8702240
  81.2994003  26.0197449  78.2385254  81.4449692  26.4792690  79.0654984
  80.4214630  25.6477203  78.3225632  51.0632629  55.6692505   5.0597138
  50.1281815  55.4668922   5.0295982  51.3802910  55.2205696   5.8435559
  20.9053593  39.4974213  11.4754791  21.8144283  39.2466240  11.3113832
  20.7832851  39.3549232  12.4141083  75.8456726  59.5231094  16.2934914
  76.5884018  60.0472450  16.5932732  75.1115723  59.8176422  16.8325500
  83.1798706  55.3865852  57.3990593  82.4712372  54.9714508  56.9073944
  83.4710236  56.1057663  56.8384895  77.8517609   4.2022557  66.7312241
  78.5855408   4.1548543  66.1183929  77.7064743   5.1397171  66.8588486
  50.9420853   6.7841311  49.5984116  50.7673569   7.6930571  49.3543701
  51.8599091   6.6455770  49.3646736  72.6508026  31.4578857  14.7087936
  72.4477081  32.0300827  15.4487791  71.8228073  31.0208416  14.5096750
   4.4598231  13.1813698  78.8387222   4.0528669  12.7069588  79.5636749
   4.1014199  14.0667725  78.9007034  21.9627838   4.9105577   2.1218617
  21.6236877   4.9495807   1.2275900  22.8761692   5.1860275   2.0439029
  10.0697651  26.1579266  44.6562920   9.8476124  26.1001568  45.5855598
   9.2714949  25.8884659  44.2019920  60.5489693  39.9612923  63.7247581
  60.0554886  40.3230858  64.4608459  61.2378311  39.4367867  64.1329193
  72.8073807   6.2801771  65.3857193  73.0988159   6.5509148  66.2563477
  72.5593948   7.0964212  64.9515762   3.5229619  42.0521812   4.3679962
   2.9370759  42.6315384   3.8808448   3.9325428  42.6197166   5.0209723
  38.0403671  52.2527809  20.2776928  38.6752930  52.2974625  19.5627766
  38.5548744  51.9830589  21.0384579  13.7081738   8.1915789  34.2016335
  14.1850033   7.5666590  34.7478371  13.9871540   9.0499382  34.5204163
  11.1675339  58.0833969  12.6468515  10.9952564  59.0125122  12.4942112
  10.2992373  57.6896019  12.7317953   8.5104437  15.7095451  47.7993584
   8.0968590  15.2207956  48.5109100   9.4025316  15.3649035  47.7589531
  50.4756241  27.0500107   8.4282770  49.7152443  26.5444431   8.7154264
  50.4805412  26.9551086   7.4758062  77.4952164   5.3368797  47.9526558
  76.7374191   5.4484577  48.5266991  78.0966721   4.7865233  48.4542389
  63.7291183  45.6003075  21.7953529  64.6829376  45.6692924  21.7541046
  63.4617157  45.4337578  20.8914776   8.9408541   4.2470946  38.0442276
   8.4718590   3.9569526  38.8265915   8.6672659   5.1565084  37.9244461
  41.7824745  32.5873756   5.1977758  41.4889870  31.7701378   5.6005373
  42.7379837  32.5329590   5.2144074  59.2515106  43.1333656  67.3611450
  58.3186111  43.0005455  67.1929474  59.5278702  42.3392143  67.8185043
   0.6526176  56.3928986   0.9796383   0.5932575  56.5749207   0.0417814
   1.3691424  56.9484367   1.2865602  54.4029694  55.5849609  46.5694008
  54.2706718  55.8599167  47.4766655  55.2463226  55.1322670  46.5768776
  81.2050095  41.8795471  33.9813766  82.0821915  41.5151711  34.0998001
  80.7530670  41.6877937  34.8030853   9.6211929  39.6994514  20.8444214
  10.1134729  40.4615364  21.1495743  10.2622967  39.1778183  20.3615990
  86.6910324  18.8232212  56.1263885  85.8510666  19.1504230  55.8044739
  86.4839172  18.4205551  56.9697113  33.4063034  10.2441225  63.7604218
  33.9308777  10.3130684  62.9627342  33.7732887   9.4914284  64.2241058
   6.0612187  41.4351387  26.5778351   5.2315931  41.3587227  27.0491238
   6.5484056  40.6480103  26.8213634  11.5386286  61.4930954  17.1812668
  11.7888727  61.4718704  18.1049328  10.5826569  61.4455910  17.1909657
  11.7013655  16.2134399  42.4361153  10.9753256  16.1691513  43.0583191
  12.4201450  15.7574701  42.8739281   2.2984653   4.9811683  57.2692528
   2.5711067   5.1718507  56.3717346   2.2540095   4.0257955  57.3082123
  70.0251312  44.4743843  68.1216202  69.5376892  45.2872734  67.9880295
  69.4469604  43.7902069  67.7842026  68.3126144  61.7066116   4.8990784
  67.8508072  61.1210251   5.4991241  67.8157120  61.6534348   4.0826869
  84.5011520  18.2418861  40.2515259  85.1706314  18.5731258  40.8501167
  84.0421982  17.5689182  40.7542305  57.1013412  41.9839439  69.4119110
  57.9105759  41.4908791  69.5470276  56.9141006  41.8857841  68.4783478
  77.4080582  43.0221672  76.2914276  76.9779205  43.8290024  76.0081711
  76.7512512  42.3395805  76.1538925  63.6005592   4.0871253  56.8719902
  64.0396729   3.5228202  57.5083656  63.3901672   3.5056849  56.1413078
  77.9117432   5.9669275  35.8973503  77.1407852   6.1267567  35.3530006
  78.4630661   5.3903327  35.3683815  83.7848282  26.7924614  76.0716782
  84.2785950  26.5652180  76.8595734  82.9037476  26.9894447  76.3896866
   7.8753643  36.8828583  15.1232224   6.9413652  36.8349686  14.9192991
   7.9842319  36.3110847  15.8831253  55.8058929   1.9948045  70.0848236
  56.6711006   2.1368856  69.7008209  55.2392998   2.6236861  69.6379395
  51.0860252   7.2292051  18.6477966  50.9028625   8.0724945  19.0619793
  51.1006279   6.6044159  19.3728180   2.0431960  59.2884064  74.6895676
   2.5122197  58.6365395  75.2104492   1.1300138  59.0025101  74.7139053
   0.1704696  46.4315872  54.0585823   0.6743543  46.8264694  54.7701988
  -0.7275735  46.4022751  54.3885689   6.5603261  65.6916885  69.4365311
   7.1532040  66.3171616  69.8530807   7.1355281  65.0060959  69.0969162
   9.8948984  66.4558792  17.5323105  10.4017563  66.2445374  18.3163147
   9.8539467  65.6332550  17.0446167  69.7737045  14.3442440  44.4286957
  70.4060822  13.6426067  44.5837364  69.2369080  14.3622656  45.2210083
  10.2854548  53.8580208   7.7393379  10.3087111  54.7367134   8.1182699
  10.4193735  53.9978218   6.8019199   1.1900282  33.7362328  63.5222359
   0.6610941  34.2247620  64.1529465   0.6825985  33.7647552  62.7111053
  58.4275551  42.3515282  45.3417969  57.8351746  42.9685631  44.9121666
  57.8707581  41.8731499  45.9560966  24.2422333  67.9839249  62.7703476
  24.5203800  67.0700684  62.7092209  23.8228340  68.1634369  61.9288559
  16.6039047  14.1056347  38.4965363  16.7324677  13.3004265  38.9978790
  17.4424744  14.5629787  38.5587425  45.5107307  67.1607056  65.4668732
  46.4104652  67.3144073  65.1786270  45.6018410  66.7240372  66.3137817
  82.0297394   8.9386339  18.8119698  81.2125626   8.4421082  18.8557968
  82.7058716   8.2753763  18.6735363   0.7064298  59.5339088  51.7555199
   1.6010672  59.8595695  51.6565285   0.7419662  58.6338615  51.4316559
   2.3035743   0.6605664  36.1705170   2.2644167  -0.1901344  36.6075630
   1.9605302   1.2778234  36.8166962  30.3445377  10.2019968   3.8881073
  30.8044567   9.3625984   3.8773375  29.9309978  10.2374716   4.7506375
  38.8795395   5.6964598  42.9207764  38.5494919   6.2374654  42.2034111
  39.4552498   6.2797127  43.4153519  10.9901886  11.7526245  61.5998688
  11.8739071  11.9660912  61.8993797  10.9190063  10.8055897  61.7194138
  28.0540276  53.5148048  78.8745422  28.3634586  53.4586411  79.7786026
  28.0320377  52.6069145  78.5720749  59.2063484  68.0258179  20.5676231
  60.0146523  67.6722717  20.1962967  58.5514069  67.8975830  19.8814468
  69.5923462  12.8419981  14.6284494  69.2737122  12.5237885  13.7837906
  69.3221130  13.7598457  14.6560326   7.6445765  54.7161789  64.0332718
   8.4892597  54.5665817  64.4579620   7.7287583  54.2952309  63.1777344
  81.3849869  46.4151955  85.0772629  81.7419891  45.6660156  85.5542374
  82.1356125  46.9939804  84.9438629  57.0297966  54.4422417  27.6002903
  57.6539307  55.1603889  27.4956474  57.0576706  54.2348785  28.5343437
  66.0847168  29.2597580  69.1817398  65.8254166  29.4899158  70.0739441
  67.0030212  29.5235310  69.1236191  10.1845722   2.3606052  10.6986456
  10.3108120   3.2290931  10.3165150  10.1334019   2.5188260  11.6412907
  39.4873886  11.3178864  85.6170349  38.9146881  11.2125349  84.8573303
  40.0482216  10.5423107  85.6035767  72.6502609   4.8415632  73.0111542
  72.9471741   5.4916244  72.3743744  73.1136246   5.0673428  73.8177261
  51.2571297  67.6613388  63.3373947  50.4477463  67.6322861  62.8272133
  51.9523315  67.5395584  62.6907921  16.1067696  10.0673084  62.0936813
  15.7701416   9.2831869  61.6600113  16.8184376   9.7474899  62.6481857
   2.8927677  63.2659302   5.2293653   3.2531645  63.6125946   6.0455585
   2.0709898  63.7418251   5.1092105  22.5380096  51.7535629  52.2073936
  23.1362133  51.4268646  52.8794441  22.4091873  51.0094719  51.6192017
   7.0816293  18.2828064  26.6687279   7.4045520  19.1807194  26.7442608
   7.3126578  18.0193233  25.7779789  53.3697090  45.5333214   4.0591078
  54.0223541  45.3904419   3.3736370  53.2436523  46.4820366   4.0757923
   5.8017869  54.7583809  11.3555689   5.5368862  55.3220711  10.6287174
   6.0193453  53.9223442  10.9433298  59.8851738  40.8177872  68.5780411
  59.0972595  40.2753220  68.5440979  60.5638161  40.2335472  68.9161758
  83.8631668  58.0154800   9.0285759  83.3098297  58.2246437   9.7811041
  84.1750031  57.1269188   9.2001886  28.3111343  43.7227135  73.1106033
  28.9714394  43.1755753  73.5358887  27.4762478  43.3207626  73.3506699
  84.9870071  11.0742111  65.7966766  85.1309586  11.0577583  66.7428513
  84.8376999  10.1585293  65.5611649  55.6365356  67.1674423  16.1895809
  55.3161201  66.3329544  16.5319099  55.5931778  67.0686569  15.2384796
  47.8836060  26.8411484   4.9664965  47.7259026  26.1293488   4.3462529
  47.1161423  27.4069138   4.8819842   2.0095298  55.1975746  68.1633301
   1.8454403  55.0404282  67.2334824   2.8096979  55.7226334  68.1799469
  10.6312313   3.9976184  21.3913441  10.2675304   4.8257833  21.7045479
  10.1930265   3.8449659  20.5541439  41.5584946  46.2883873  16.1452808
  41.8030930  46.8827820  15.4359875  41.5952034  45.4169731  15.7509127
  73.5711899  68.6393585  77.4133377  73.1907578  67.8231201  77.7377625
  74.4384613  68.3893509  77.0946426  79.6780396  42.0077934   1.6763576
  79.8177032  41.8752289   2.6139891  79.2003784  41.2282677   1.3927883
  61.8461418  52.7993813  84.1734390  62.5793152  52.4531631  83.6646957
  61.1885109  53.0320549  83.5179901  16.6516132   4.0748801  55.5574150
  17.5926132   3.9027455  55.5908775  16.5811424   5.0287542  55.5946922
  22.8951778  11.2107391  86.3751450  23.4578762  11.5865879  87.0521545
  22.9056416  11.8569403  85.6690674  32.9097023  17.2654266  34.1637306
  32.2900085  16.8243637  33.5826302  33.4267960  16.5560131  34.5452805
  49.9553375  50.3422546  15.3611412  50.1250381  50.6047020  14.4564009
  49.6711769  49.4304771  15.2967529  44.6944771  10.3662348  66.9090195
  44.7521095  11.3162498  66.8071213  44.7508011  10.2228241  67.8537369
  58.7549248   6.6311021  20.3653488  58.8317375   7.4044590  19.8065548
  58.5195580   5.9239955  19.7646542  45.8612595  48.8280182  30.0358047
  46.2823639  49.6865425  29.9929771  45.9425354  48.5668716  30.9530983
  39.6023521  51.0590591   6.9965749  39.4241600  51.3277473   6.0953064
  40.3931656  51.5411491   7.2383156  84.6674194  44.8246841  66.7625580
  84.0626450  45.4587708  66.3773117  85.4096680  44.8040581  66.1585083
   1.2883288  22.5539436  61.7606773   2.0777864  22.0497093  61.5638618
   1.4000573  22.8282604  62.6708946  58.8997688  70.9499893  81.3486862
  58.3341026  70.7525864  80.6021652  59.4796638  70.1915054  81.4169540
  12.4799242  62.6619835  83.5961227  11.7780619  62.8782196  82.9822311
  13.1126032  62.1698685  83.0728912  46.3158379  57.6176300   4.4140153
  45.7472649  58.3112144   4.0795107  47.1614571  58.0453644   4.5489440
  44.0158882  70.4328384  41.6057091  44.6657333  70.6322250  40.9317780
  43.9083252  69.4827499  41.5610847  56.5026779  27.5230579  70.6197205
  57.0134964  27.5585308  71.4284515  57.1539726  27.3920994  69.9306030
  83.8424225   6.2098656  41.9136581  83.4117508   6.9019670  42.4154015
  83.2623978   6.0587144  41.1673622  30.2554264  61.0350151  64.0847473
  29.9155350  61.8439636  64.4672470  29.7562237  60.9244843  63.2755432
  54.1358337  57.8008118  33.3360062  53.7503815  56.9401817  33.1717682
  53.3944778  58.3509789  33.5888672   9.3682737  52.3702583  37.8783722
   9.7664614  51.5760002  37.5222397   9.6337595  53.0631409  37.2736740
   7.5109363  15.2289219  29.7330780   7.5447979  14.2724247  29.7471352
   6.6592722  15.4440479  30.1133690  60.1861649  40.9587021  20.7497120
  59.5189552  41.5546494  20.4092598  60.7588882  40.7880516  20.0019817
   8.1468725  11.3626966  81.8341293   9.0554113  11.4043617  81.5357056
   7.9831905  10.4299984  81.9738235  50.6838837  10.9687891  38.9351234
  50.7277527  11.1838799  39.8668098  50.0451546  10.2577543  38.8832779
   6.3593302   9.3390856  62.9131508   6.7109213   9.7823153  62.1410370
   7.1290102   9.1398582  63.4461937  50.0358696  52.0425987  31.1449070
  50.7181511  51.4020004  31.3458042  50.4400558  52.8897743  31.3324223
  21.4353065  44.2190285  83.3509598  21.1952972  44.4044189  84.2588425
  22.0615482  43.4976311  83.4113007  18.7210922  67.5568924  31.3312893
  19.1001377  68.2663040  30.8123608  19.2725906  66.7985001  31.1391373
  14.4296808  54.4100037  64.0495071  14.4586420  53.7987022  64.7855148
  15.0756073  54.0700760  63.4302673  74.7188034  56.8290596  70.7917480
  75.5465622  56.6791992  70.3350296  74.9745407  57.2068558  71.6332397
  25.0150566  33.8075256  15.9655132  24.9214592  34.7545395  15.8623714
  24.2796268  33.5534744  16.5230389  78.6241760   3.9935393  63.1771431
  79.4007492   4.0836272  62.6248283  78.5603714   3.0541112  63.3492928
  81.1920166  55.3532867  40.6235046  80.2490997  55.5118713  40.6681252
  81.3507996  54.6688423  41.2735481  13.2650957  38.0139275  84.8360519
  14.0299759  37.9365082  84.2657928  13.5695353  38.5408859  85.5748825
  80.7034836   8.5365705  11.7649527  81.5131073   8.4075890  12.2590227
  80.2869492   9.2915401  12.1805878  69.0308914  28.9642944   9.1475658
  68.7069016  28.0679607   9.0590010  68.5228348  29.4666538   8.5105839
  29.6717358  42.3059540   9.9823380  30.3863678  41.6788521   9.8715525
  30.1059246  43.1230202  10.2275305  32.2956734  57.2171822  25.3725986
  32.7085762  57.1468239  26.2332897  31.3925171  56.9345856  25.5164051
  11.1315470  64.6558075  28.4702301  12.0844908  64.7335205  28.4245129
  10.9800882  63.8834648  29.0150032  65.5059662   5.2424054  50.1573410
  64.5555267   5.1290517  50.1646538  65.6622696   5.9113364  49.4907570
  56.2216988  36.2208061  74.7198792  57.1298790  36.0904236  74.9927216
  55.7741318  36.5188065  75.5117798   0.5645270  52.7224083  18.3534203
   1.2816553  53.3510208  18.2709160   0.0251204  52.8711319  17.5767899
  84.0163116  65.1609726  55.1020012  84.2407684  66.0646439  55.3238754
  84.6530762  64.9137497  54.4314461  11.0825272  45.1471825  88.4931641
  11.1298170  44.2416000  88.1867065  11.5162001  45.6550522  87.8074341
  63.6857224  61.0502930  11.3568897  62.9709816  61.6823540  11.2802277
  64.4506073  61.5798378  11.5822096  84.5279999  31.1068726  88.7614594
  84.4020844  31.7292061  89.4777527  85.0508041  30.4027634  89.1450500
   7.4595032  52.1622620  79.9953156   6.7682924  51.5271721  79.8079147
   7.6861243  52.0060844  80.9120941  22.8757515  20.2644711  29.0200386
  22.8680344  19.8395386  29.8777122  23.3656387  21.0750313  29.1587315
  22.0959721  27.0770893  12.5934649  21.5632992  27.8105125  12.9010105
  22.9498711  27.2124004  13.0042925  83.0145111  24.7315521  32.0042763
  82.5090256  24.3223972  31.3019180  82.4919281  24.5842648  32.7925949
  59.3493080  40.3835640  61.2228088  59.8153076  40.2361336  62.0458183
  58.4771576  40.0187149  61.3727112  79.1224136  66.8357697  63.5127411
  78.8185425  67.6809769  63.8436852  80.0621109  66.8310394  63.6949043
  18.9674053  64.1895065  32.6856155  19.2032166  63.3772736  32.2374001
  19.7274494  64.3912582  33.2313805  76.3734360  65.3596802  26.4225159
  75.5656738  65.6470947  25.9968987  76.7707520  64.7532043  25.7975731
  63.9856529  25.3006649  78.3258133  63.1198654  25.5529480  78.6467514
  63.8214569  24.5434608  77.7637482  66.0481873   4.2416024  70.0325851
  66.0135040   5.0403996  70.5588455  65.1380386   4.0778804  69.7854767
  50.3090668  14.6978788  14.6755848  49.5234146  14.1877804  14.8725100
  50.4957809  14.5050440  13.7567902  69.7976685  15.3750801  80.5948029
  70.7324829  15.1856918  80.6753159  69.4019623  14.9576931  81.3599396
  -0.2931494   8.0146790  48.2427673  -0.2264115   7.2060661  47.7349052
   0.5953305   8.3708162  48.2439079  22.7277603  59.5368347  66.1257019
  23.3596687  60.0403824  66.6388931  23.2626114  58.9215584  65.6241074
   7.0681739  60.1004524  78.8906097   7.8675132  59.8695412  78.4173508
   6.5761113  60.6465263  78.2774887  73.6354218  50.8613014  36.0353775
  72.7434616  50.7907410  35.6952896  74.1605453  50.3219261  35.4441490
  57.9644737  59.2107315  27.2999973  58.0677834  59.1114960  26.3535767
  57.0330391  59.3950272  27.4212379   2.3108783  19.1242275  15.2633276
   2.6996770  18.2890797  15.0033340   1.4365957  19.1129913  14.8737955
  69.0304642  45.4809418  80.6894226  69.3801270  44.9948425  79.9426422
  68.1762848  45.7945366  80.3923340  42.2267265  70.6516953  83.4173737
  41.9039040  70.7072296  82.5179672  42.1128922  71.5351868  83.7676849
   4.6378713  34.4637680  26.9022312   5.4147410  34.9897766  26.7124481
   4.7465935  34.1966515  27.8149529  82.6710129  21.2531948  32.0567551
  82.8778152  21.2518730  31.1221638  82.6120071  22.1802425  32.2876930
   8.6708698  17.0563660  32.8142052   8.1036758  16.9407444  32.0518723
   8.1751661  17.6321507  33.3964272  14.3270817  41.5805779  47.7380562
  14.5489798  40.9252701  47.0765686  13.5391264  41.2378540  48.1598396
  15.2952709  64.4037247   8.4770355  15.7749424  63.6285439   8.1850796
  15.6643047  65.1216049   7.9625444   8.7796288  31.8738213  34.6653175
   7.9015121  31.5305061  34.5001564   9.2962599  31.5814209  33.9144325
  83.1290207  66.8523865  21.4820328  83.0925217  67.4237213  22.2491531
  83.2962799  65.9806900  21.8403568  76.8646088  51.1360893  72.0945740
  76.1223145  50.5409813  71.9893112  76.7170410  51.8207970  71.4421692
  85.9648209  24.2547951  21.5569859  85.0172424  24.3600330  21.4718666
  86.1424179  23.3852787  21.1983318  15.4769754  32.9453545  34.9235992
  16.0411205  32.8169937  35.6861572  16.0844193  33.0817566  34.1965256
  63.9757690  67.3618088   3.3630354  64.1992416  67.5390091   4.2767596
  63.3830490  68.0727692   3.1192100  55.3694687  10.2285929  12.2768145
  54.7347031  10.4638424  12.9535446  56.1491852   9.9600267  12.7627640
   5.2358341   1.9703889  83.4546890   4.5561614   2.5912566  83.1923904
   5.6304307   2.3622417  84.2337799  64.9845581  53.5191154  38.8031731
  65.2388611  52.6420250  39.0900078  64.1716309  53.3854256  38.3158226
   7.1252170  16.0444832  73.8604660   7.5447764  16.2741013  74.6896133
   7.7473989  16.3280392  73.1906052  85.2658768  62.8596115  85.6460495
  85.8638687  63.1064682  84.9405746  85.8386459  62.5557137  86.3501892
  25.7129879  49.1295319  10.3391781  25.8101177  48.8474159   9.4296684
  26.5559177  49.5267639  10.5580540  14.8142328  61.7443314  81.1249771
  15.6295080  62.2408218  81.1960754  15.0950394  60.8324890  81.0479965
  12.2034302  29.1095886  27.8320389  12.6777039  29.9406033  27.8586693
  12.1540537  28.8325691  28.7469463  55.5566788  43.9325294  73.8210678
  56.0390968  44.0071068  72.9976883  54.8123207  44.5252800  73.7170715
   5.6551538  66.6846085  56.0970993   4.8132381  66.4649963  56.4960709
   6.0349464  67.3385773  56.6838875  53.5326424  68.3377838  61.5497398
  53.8225784  67.4900513  61.2127953  53.6570969  68.9417648  60.8176575
  46.1787758   3.0605962  30.3299866  46.7362709   2.4895051  29.8015079
  46.3288689   3.9368601  29.9752102  47.3322945  43.1786346  31.4935360
  47.5704269  42.3295097  31.8657055  47.3652496  43.7829170  32.2351456
  83.9295502  10.0878887   8.7434845  84.5639420   9.3933964   8.5661173
  83.0793762   9.6883755   8.5595522  76.8031311  69.8543243  56.7957344
  76.9075470  69.3431320  55.9932365  76.0867462  70.4591751  56.6029167
  49.8262749  53.2922096  35.1431046  49.4883080  52.5151329  35.5882568
  50.3539734  53.7374992  35.8060417  55.7006989  44.8762360   6.5943065
  54.9656830  44.4094505   6.1966939  55.9118156  44.3678970   7.3774109
  31.2475529  70.6994781  14.3895254  30.8148632  70.2293777  15.1022797
  31.5499554  70.0109406  13.7973251  51.0095139  25.0953293  68.6794205
  51.3221970  25.9850502  68.8433075  51.0043869  25.0151501  67.7256012
  84.9124298  58.0155640  53.1605568  84.2879105  58.7409477  53.1554489
  85.7290726  58.4003563  52.8423500  56.5938492  54.9696579  80.1596680
  56.1456604  54.3552818  80.7409592  56.6099510  54.5278206  79.3106995
  15.7188511  36.6245804   1.3749521  16.6015587  36.3437309   1.1337395
  15.8555355  37.3838997   1.9415046  71.3465500  41.1261406  24.3472862
  70.9672470  41.9938126  24.4869556  72.0376434  41.2681541  23.7004108
  49.1172600  68.0106049  35.9305458  48.2687035  67.7443924  35.5765495
  49.2961082  67.3773499  36.6256905   6.4284225   1.8414061  27.8271465
   6.8069539   2.0863209  26.9827747   6.4971457   0.8870169  27.8526440
  50.1589317  20.3715839  76.7731552  50.4692879  19.6561012  77.3281250
  50.8728561  21.0091171  76.7827225  65.2148514  11.5491199  84.6837082
  65.6413574  10.9527874  85.2991028  65.6275330  11.3592463  83.8411636
  45.4190178  56.3707695  14.7379370  45.7941284  57.0083809  14.1305037
  44.5470848  56.7125969  14.9357233  76.4508209  12.8007269   3.6331024
  76.1452026  12.4960232   4.4874935  75.6749802  12.7628908   3.0737548
  49.8509369  36.1136093  17.1180782  50.0352516  37.0516701  17.1660519
  49.7577591  35.9353790  16.1822433  10.0232639  22.6133327  62.8352356
   9.9641333  23.5631390  62.9382210  10.9618616  22.4375572  62.7691383
  55.9252205  59.7995491  56.9292488  56.7159691  60.0850334  57.3869019
  56.1916313  59.0078468  56.4618492  17.0357723  52.3532639  16.8005104
  17.7181034  51.6968117  16.9409637  16.7551937  52.5994530  17.6819286
  77.7304688   0.6912569  36.5149078  77.2963867  -0.1511377  36.3800850
  78.3416519   0.5333108  37.2344551  54.8999672   4.3383975  57.2722740
  53.9907379   4.6352749  57.2349014  54.8559380   3.4051154  57.0642433
   5.7748384  37.0743217  30.0040779   4.9434018  37.4696884  30.2660522
   5.5374718  36.2000084  29.6951103   2.5217266  29.0726452  43.8199081
   1.9272541  28.7068863  44.4749298   2.1698403  29.9438248  43.6370049
  45.3494186  50.9857254  19.6794186  45.9976959  51.2126923  20.3460922
  44.8442650  50.2724113  20.0695953  69.2695465  63.1717911  35.0705490
  70.1595917  63.4608078  34.8692474  68.7163086  63.6545525  34.4564590
  46.2113914  59.3290062  70.3410568  46.9723701  58.7564774  70.4377518
  45.4588814  58.7434311  70.4250717  16.5689526  65.3235779  82.0626831
  16.5535965  66.2798615  82.1016998  15.8249798  65.0500031  82.5992355
  66.0915756  42.0019112  80.7817841  65.7569733  42.4955406  80.0330505
  65.4080505  42.0830650  81.4469452  62.2148438  15.4277601  71.4743118
  62.3118134  14.5272369  71.1646576  61.8154449  15.3416853  72.3399353
  83.3380814  43.9442329  44.3463173  83.0666275  43.7414284  45.2415390
  82.7394028  44.6362953  44.0654755  43.1428490  20.5468445  81.5838318
  43.3648529  19.7825184  82.1155777  42.8803978  21.2127323  82.2193985
  49.6487961  53.4855232  28.5525055  49.2156143  53.8396378  29.3291588
  50.4429932  53.0707970  28.8893776   2.4571948  38.2325516  26.8439217
   2.6268704  38.0589485  25.9180164   2.5699739  37.3835602  27.2713814
  80.3800964  28.9711094  24.0749989  80.5208740  29.1749725  23.1504173
  80.7077255  29.7395706  24.5422878  17.5602512  33.5972519  75.0799332
  17.6897354  33.2560577  74.1950302  17.8887444  32.9052353  75.6539001
  23.5870399  10.6356955  23.7563992  24.4850025  10.8369751  24.0198021
  23.0456085  10.9873285  24.4631081  68.2781754   4.7268267  65.3460846
  69.1685944   4.4501853  65.1296310  68.3171005   4.9538970  66.2751465
   8.3338566   0.4448327  37.0857353   7.8472795   0.4897078  36.2626572
   7.6674547   0.5537726  37.7641716  41.0580559  53.6878433  60.6939278
  41.7046738  53.7039223  61.3995171  40.7180748  52.7930832  60.7009621
  27.5841217   3.3957121  88.0673294  27.5600605   3.2232261  89.0085526
  28.3167648   4.0010986  87.9534225  69.5252533  11.0872259  46.0078087
  70.0462189  11.8574190  46.2350349  68.9007416  10.9995403  46.7278976
  64.4411163  64.1317978  27.3652840  63.7339783  64.7628784  27.4991760
  65.1996155  64.5273056  27.7948036  65.0465393  57.2832260  72.9800797
  65.8092728  57.2144089  72.4058609  64.4462738  56.6084785  72.6628647
   3.1233480  18.8031216  69.9477463   2.7370214  18.8903160  70.8191681
   4.0677228  18.8389835  70.0997391  43.7151031  36.1623535  75.7534943
  43.7246857  37.1155167  75.6662216  44.3384094  35.9799461  76.4566727
  82.6763687  28.9129391  71.9681473  83.1179886  28.0689392  71.8739853
  83.3736343  29.5607758  71.8663483  74.7304459   2.4512153  77.9212952
  74.8172836   3.3888910  78.0929184  73.9972534   2.1740556  78.4707031
  68.2544861  -0.2976107  63.5770645  68.0173492   0.4634151  63.0471268
  68.9452515   0.0209719  64.1580811  71.8303604  59.5836334  82.5582886
  72.5799789  59.7397270  81.9838943  71.9107742  58.6643257  82.8125381
  38.7404518  56.2052460  77.3230591  38.8995285  56.8891411  76.6725082
  38.8648338  56.6424141  78.1654587  13.7226048  62.8253670  59.1638145
  12.7787504  62.8970718  59.0215874  13.9809675  62.0476990  58.6691284
  45.0552063  57.1448555  42.6440010  44.1349182  57.3079224  42.4373322
  45.4069214  58.0066757  42.8671341  81.2120667   6.4613638  59.4465065
  81.8766937   6.2032809  58.8078346  81.3469315   7.4014611  59.5659256
   7.6907568  60.7354927  52.6435852   8.3278370  60.8181648  53.3531799
   7.8836918  59.8863106  52.2462196  15.3343601   3.7896848   1.2579919
  15.5576668   3.8581727   0.3297274  15.3571653   2.8504503   1.4411588
  75.7591400  33.3323822  44.6397514  76.2070160  34.0652466  44.2172089
  75.0055618  33.7310295  45.0749893  61.8064919  33.2371712  15.6099615
  62.5093689  33.6408348  16.1191311  61.7923012  33.7293358  14.7891064
  43.8230858   6.6114020  77.4678497  43.5395737   5.7900400  77.8693695
  44.6977730   6.4224958  77.1280518  19.1229401  16.8572598  78.7796860
  18.9467773  16.3150539  79.5485840  19.5119114  16.2547207  78.1457443
  23.1724110  37.4812927  14.1003046  23.5201397  38.0461617  13.4102068
  22.7037525  36.7909241  13.6312780  74.4126892  43.7879829   2.4105737
  75.0336838  43.1044006   2.6621950  74.1249466  43.5386963   1.5323416
  72.2467270  58.4380264  25.4598141  72.6269531  57.5653725  25.5604935
  72.1106033  58.7448540  26.3562279  70.3588715  48.0714989  30.4572678
  69.9808121  47.5244179  31.1457481  69.6137390  48.5527191  30.0974903
  72.3490829  63.6327515  59.2871132  71.7424393  63.8923683  58.5937080
  72.2573624  62.6815300  59.3418427  16.8025894  26.9536152   1.8758663
  16.8962269  26.3148994   2.5826242  16.7631550  26.4249115   1.0789040
  77.5711670  51.2085648  29.7890987  78.1201019  51.9001808  29.4195499
  76.9756317  51.6666451  30.3821659   7.2056708  51.9078293   2.1526463
   7.3623753  52.8078079   1.8667868   7.6380420  51.3677025   1.4911718
  39.3786354   0.1609175  80.8924484  39.0596504   0.3395121  80.0078049
  40.0892029  -0.4683087  80.7683563  80.6804199  30.0223656  21.4395618
  80.1887665  29.3049240  21.0398350  81.0753250  30.4835758  20.6995831
  60.7620659  68.9792328  50.6091843  61.3241119  68.2113419  50.5058136
  60.5861549  69.0225067  51.5490875  69.6300278  58.6475029  47.5261307
  69.4142075  59.5797958  47.5481377  70.0575638  58.5205536  46.6791801
  63.0249214  11.3946104   6.9713359  63.7627411  10.8799772   6.6442142
  63.2240219  12.2930307   6.7078390   6.5895205  58.1224213   9.0373983
   7.2351785  57.4933167   9.3592386   6.7946463  58.9344482   9.5008278
  54.5961609  33.1048927  70.1820450  54.9877167  32.3048592  69.8315277
  54.4020729  33.6351089  69.4091034  18.0030651  31.3100796  63.4898643
  18.4818573  30.5346546  63.1971016  17.1260738  31.2033215  63.1214600
  12.7099257  21.4868565  35.2098198  13.0700455  22.3228874  34.9138489
  13.4491158  20.8800411  35.1697540  38.8890610  22.1845875  35.6682129
  37.9875145  22.2802715  35.3611412  39.1269455  21.2868004  35.4366455
  61.4954491  41.0984344  25.4680347  61.3207703  40.2024269  25.7559357
  60.8061066  41.2837868  24.8303185  43.5712852  64.1857986  59.7853851
  44.1494980  63.5728683  60.2394905  43.0432739  64.5772629  60.4812241
  85.8078308  51.3708458  76.7095871  85.2542419  51.6670456  75.9870605
  86.6635590  51.2183304  76.3087234   1.1339952  67.4935684  46.8526001
   0.8991590  67.5421982  45.9259300   0.9228861  66.5950851  47.1063538
   4.9574542  24.0385571  15.3972921   4.6798282  23.1957016  15.0384750
   5.8070827  24.2045727  14.9888783  64.6913147  39.1379700  68.4993439
  64.6970367  39.0900345  67.5433655  65.5235672  38.7459869  68.7637939
  64.4295425  13.8858471  63.2472000  64.0902252  13.0016603  63.1082268
  64.5277634  14.2459822  62.3657875  60.7972450  41.7584724  73.2170105
  60.4823532  41.8543968  74.1158295  60.2084618  41.1139030  72.8244553
  29.2865524  13.3445511  24.7039738  28.9252529  14.1863737  24.4264336
  30.2252750  13.5062046  24.7983170   0.7422777  17.9334698  49.1952248
   1.0942421  17.5176220  49.9822617  -0.2018253  17.7845631  49.2474556
  24.4446011  18.6670990   6.6067438  23.6092300  18.8868370   6.1943107
  24.2049751  18.1292553   7.3614187  69.9170227  33.7232513  70.1209869
  70.1011505  32.8587303  69.7536469  69.6462326  33.5478477  71.0221710
   3.0122645  30.4453964  32.1706276   3.7077568  30.2862186  31.5325165
   3.0296535  29.6766167  32.7406349  23.9178734  42.8019485  26.8572426
  23.8377934  43.6835022  27.2215004  24.7404499  42.4685249  27.2156124
  41.1941910  25.9794254  13.3620234  41.3787918  25.3390770  12.6749210
  40.7591248  26.7003975  12.9068861   0.8180760   0.9241711  68.8493042
   0.8955185   1.0281475  67.9009247   1.5760219   0.3936074  69.0947647
  58.7379417  25.7016640  80.0398178  58.6196785  24.7599049  80.1636581
  57.9416046  25.9861298  79.5913162  42.5623741  63.0792542  47.2124100
  42.8722534  62.1739044  47.2358055  42.1479836  63.1684685  46.3541832
  80.3526001   2.8559523  73.7179184  79.6940384   2.8239934  74.4118271
  79.8485947   2.9908955  72.9154205  44.0130157  12.2747087   5.9925122
  43.0586433  12.2711802   6.0659709  44.1997795  12.9398184   5.3299565
   5.6571417  20.8679352  82.0834274   6.2405477  20.7013340  81.3430786
   5.7102699  20.0729218  82.6138611   9.1575890  39.2542877  14.9783278
   9.4361935  39.4400253  15.8750525   8.6832180  38.4253235  15.0417471
   8.3302765  61.0422211  19.9023762   8.9686546  60.3368912  19.7964706
   8.7671928  61.6775398  20.4695663  71.6610184  59.3056526  61.5505447
  70.9949036  59.4268646  60.8739128  72.1907959  60.1018639  61.5104561
  26.5925655   2.3883934  36.6278992  25.7431335   2.4312391  37.0670586
  26.8232880   1.4595346  36.6427498  31.6245213  24.3089752  84.0223999
  31.1185169  25.1125889  83.9024200  32.5378075  24.5924091  83.9799347
  10.8477173  55.9906731  44.4409332   9.9787750  55.6312943  44.2619972
  11.2056484  56.1934891  43.5766525  64.3363190  43.0428658  56.7201538
  64.1632004  43.9709320  56.5621643  63.9814796  42.8783722  57.5938034
  15.6941938  19.1552181  54.1287727  15.3643341  18.5326023  53.4808769
  16.6226826  19.2518063  53.9170914  83.0643311  41.3911743  39.7540398
  82.5522308  41.9273338  40.3594475  83.9428024  41.3738289  40.1337967
  45.1006279   2.4664588  76.5065613  44.3372459   2.7948489  76.9815750
  44.9463844   2.7243621  75.5977554  82.7960434  45.5561562  49.3569260
  82.6822510  45.5281105  50.3069267  83.4840317  46.2068367  49.2172203
  76.6685181  71.1847687  72.1966171  76.3236389  71.2966614  71.3107452
  76.4841919  72.0169067  72.6322784  62.7498245  51.0443573  36.5260162
  62.1213570  50.3285446  36.4318314  62.7632027  51.2293282  37.4650803
  68.8130569  38.6485481   2.4112284  69.2039871  38.7571373   3.2781825
  69.1906891  37.8343582   2.0784795  64.4389648  42.8754768  64.2354965
  64.1072845  42.3038673  64.9279404  64.2264633  42.4158516  63.4232025
  10.8202343  64.7427368  88.1107178  11.3195314  64.1263351  87.5750198
  10.2251186  65.1687546  87.4938126  64.5209351   5.9905291  66.4183502
  65.0851440   5.2386341  66.2379227  64.9945145   6.4914427  67.0824585
  67.2268066  36.8097878  15.1104441  67.8099518  37.5390663  14.8998938
  67.6124115  36.0574722  14.6614799  70.7349854  56.8823891  65.0033798
  70.1823502  56.4202003  64.3731308  70.5928421  56.4211845  65.8300095
  37.5081444   9.9623766  64.2719040  38.0614395  10.3374414  63.5867577
  37.3250732   9.0722075  63.9713745   3.8236563  41.4403534  33.0171204
   4.1665382  40.6376114  33.4098969   2.9745188  41.5699196  33.4395065
  46.6318283  48.7324257  74.5776367  46.2181969  49.3689919  75.1606750
  45.9079819  48.3693657  74.0672836  71.8866806  15.0680408  40.9669456
  72.1609116  15.2707405  41.8613396  72.4536057  14.3441448  40.7008476
  75.9820175  24.8248177  32.2351341  75.7988510  25.4438171  32.9419022
  76.7601089  24.3503933  32.5279198  34.8405037   3.3915107  24.9433765
  34.8883247   2.6306071  25.5221424  35.1039352   3.0572228  24.0860023
  77.6149368   0.8926956  85.6058807  78.1612625   1.5668224  86.0100021
  77.7759247   0.9850612  84.6668472  73.0400391  44.3569069  17.3898525
  73.7010498  43.6726608  17.4952297  73.2598724  44.7762146  16.5579357
   5.6716571   2.7607038  59.4514389   4.7566895   2.8675938  59.7115173
   6.1675925   2.8966479  60.2587814  16.1492195  49.2299767   0.9070775
  16.9336357  48.7158051   1.0982635  16.4670868  50.1287270   0.8208317
  79.9575500  35.3495979  12.1613388  80.7714462  35.6352577  11.7463741
  79.5705948  36.1534424  12.5082245  80.3058853  30.4950085  60.9757233
  79.7294006  31.0005264  60.4027061  81.1710052  30.8846111  60.8491745
  40.6015930  22.6709747   4.0674977  41.1133728  23.4735565   4.1683879
  41.2536240  21.9906960   3.8992472  17.9961224  44.0603714  84.3477936
  18.5662365  44.4878807  84.9868851  18.4205475  44.2186699  83.5045624
  26.8221760  37.7560539  30.7143993  26.5534210  38.2439613  31.4928284
  26.2960243  38.1267357  30.0058880  60.1421432  29.4798203  74.3691254
  61.0031128  29.0696316  74.4510345  59.8737335  29.2956219  73.4689865
  47.4277611  71.5370483  20.7239990  47.3257751  70.5864105  20.6779289
  48.3655052  71.6709442  20.8616085  85.0541534  51.1702728  11.7429924
  84.4057693  50.9389572  12.4080658  85.8968658  50.9686966  12.1497345
  73.4875870  61.5183792  87.3887329  74.2908478  61.5773354  86.8714981
  72.9661331  60.8489265  86.9458542  87.0662613  45.8229980  62.6732368
  87.0291977  44.9619598  62.2567368  86.3165894  46.2961655  62.3122063
  31.5484333  10.0838976  71.5097809  31.3762455  10.1438103  70.5701065
  30.7749386  10.4705935  71.9201508  42.0854340  11.9242373  30.5922489
  41.3716621  12.2829332  31.1196041  41.6617966  11.6247234  29.7878513
  24.2340984  16.3589325  26.1489391  24.2004032  15.8303871  25.3516102
  23.9418392  15.7664347  26.8415890  56.3686066  11.1668396  52.0907936
  56.8227081  11.2466908  51.2519569  57.0690308  11.0444355  52.7316208
  64.8383560  49.7651749   3.0522540  64.2398682  50.4423027   2.7367516
  65.6947479  50.0254707   2.7130246  59.1409836  36.2586174  84.2837601
  59.3760643  36.1303482  83.3647842  58.6021957  35.4980278  84.5015717
  18.6749058  29.7371826  29.1931858  19.0771675  30.0939465  28.4012661
  19.4053993  29.3612289  29.6843777  80.8648529   7.2459931  81.6956024
  81.4352112   7.7196536  81.0901566  80.8682938   7.7763567  82.4924316
  40.5371017  64.4253922  32.5034599  39.9115524  64.7637863  33.1440926
  40.3242912  64.8884583  31.6932011  37.5403481  58.9136124   4.5244908
  37.4674492  58.3674545   3.7417841  36.9052124  58.5413933   5.1362801
  81.5482254   1.1864343  55.1726723  81.0681534   0.9497832  55.9662399
  81.1393967   2.0006819  54.8792610   7.6401443  37.0095520  32.1175308
   8.3167048  37.6774330  32.0060158   7.0053144  37.1937752  31.4252262
  27.5303307  68.8671036   5.3876719  27.0016785  68.8023224   4.5923338
  27.7976761  69.7855148   5.4234214  58.2118187  13.2186718  81.5475769
  59.0404320  13.6700325  81.7085342  58.1028671  12.6412888  82.3032150
  45.3414383  44.6927567  17.4665127  46.1718636  44.5046921  17.0291805
  44.6778603  44.5522919  16.7911110  53.9292145  21.4551067  22.0618877
  53.4812965  22.2963715  21.9731407  54.0064087  21.3233700  23.0068302
  65.4225616  68.5480194  83.2328644  64.6221237  68.4630508  83.7508545
  66.0517578  67.9728394  83.6681976  80.8674088  15.9443321  55.7813988
  80.0443802  15.9797812  56.2688446  81.4379654  16.5691261  56.2289810
  29.7213669  70.3553696  22.7304249  28.9430542  70.6974792  22.2906265
  29.7559586  69.4338913  22.4736938  70.0588531  51.5035172  43.1970253
  70.0099258  51.5985413  42.2458115  69.6327286  52.2896805  43.5384941
  25.8998241  55.6806412  34.6741524  26.1594467  56.1607857  33.8878403
  25.6479244  56.3613396  35.2981987  44.2161255  58.9096146  51.3803940
  43.5621910  59.4942703  50.9972687  43.8952599  58.7388687  52.2658997
  37.3512573  26.6284752  13.3967505  36.8088684  25.8497868  13.2714930
  36.9517975  27.0817051  14.1392107   9.0304251  60.9241028  37.9282684
   8.4135723  60.7502861  38.6392632   9.8781662  60.6430244  38.2725945
  78.7992477  27.4617081  31.5276890  79.7537613  27.3905258  31.5192509
  78.5384674  27.0859203  32.3685265  59.7256126  49.7928162  38.2664299
  59.5631027  50.7303238  38.1620293  59.2877922  49.5636749  39.0862122
  68.8875351  56.4030190  80.7715683  69.5606689  55.7935982  81.0744400
  68.7666245  56.1862297  79.8471146  72.2766418  33.1658325  27.2737865
  71.8097000  32.3657379  27.5147057  72.3744659  33.1090775  26.3232918
  50.7258987  28.4061432  67.0161667  51.1690407  28.3015614  67.8581390
  50.8010216  27.5484905  66.5978088  43.3354149  70.5314636  78.2769394
  43.8475380  70.5933456  77.4706268  43.0488930  71.4285812  78.4481430
  82.0753784  47.4227333  80.9364319  82.6260910  46.7578354  80.5230865
  82.5530853  48.2423744  80.8090897  36.0255432  28.3438568  19.2057247
  36.9546776  28.3801975  18.9785309  35.7575226  29.2608261  19.2654018
  61.1194954  12.9290838  50.3379364  61.5320396  12.0741730  50.2147789
  60.5331573  13.0224733  49.5871239  41.1576576  43.9293938  20.4975300
  42.0343018  43.8196716  20.1291752  41.2075768  43.5191536  21.3609219
  35.7302361  69.2648010  85.7743225  35.6659584  69.3549652  86.7250977
  36.6442375  69.4682312  85.5756912  23.4285641  42.1786575   7.9423838
  23.5198574  41.2314453   7.8390160  23.6244774  42.5341759   7.0755177
   4.6976223  68.6354904  24.3833313   3.9790328  68.0031433  24.3848667
   4.3116598  69.4357834  24.0272579  12.2677431  55.3012657  16.5573959
  11.4491062  54.8608780  16.3290863  12.5393877  55.7359734  15.7490215
  29.5690136  17.8644733   2.9594457  29.9879589  18.1472950   3.7722974
  28.8373909  18.4707146   2.8435478  29.1715374  13.1444073  77.9284897
  29.1976757  13.0126152  76.9807663  28.2774220  13.4370155  78.1050415
   8.2452307  22.5246735  80.3303680   7.4157228  22.6973820  79.8850403
   8.3389025  21.5725079  80.3014297  76.6590652  53.5264359  44.9985847
  77.0468750  52.6519699  45.0324707  77.4063187  54.1221237  45.0533218
  42.8632011  16.3384838  46.6391296  43.2574005  17.1197109  47.0270958
  42.6719322  15.7707806  47.3856964  65.7561340  14.5470543  81.5681534
  64.9128876  14.7949114  81.1890182  65.8094559  13.6005907  81.4355087
  18.6594925  58.0626373  13.2712517  18.2509365  57.3555489  13.7705870
  19.5963898  57.9660454  13.4419060  67.7854156  49.8427200  14.4174852
  68.3802567  50.5544090  14.1810627  68.0979156  49.5429802  15.2711439
  51.3864899  42.5873756  88.5967331  52.0536880  42.9678612  89.1679688
  50.5703773  42.6771507  89.0888062   6.0464687  38.8907127   8.7996569
   5.1861534  38.9610977   8.3859720   6.6679153  39.0333710   8.0857344
  41.4925957  12.9245234  75.5422440  41.9320755  13.4190178  76.2340317
  40.5600891  13.0157270  75.7380524  16.6617088  67.7090149  11.1161623
  17.0703182  66.8434219  11.1203756  15.9933319  67.6550369  10.4330873
  49.8707314   7.1064606  10.6976309  49.9239578   7.7343745   9.9771290
  49.4032364   7.5746751  11.3893366  71.7460709  50.7429123  51.9191818
  72.3715515  50.6254234  52.6341667  70.9240799  50.3898125  52.2596016
  18.7226124  34.7070312  67.6004715  19.4046402  34.1086731  67.9054871
  19.0035706  35.5681610  67.9099197  81.2911530   5.4363132  31.7110958
  82.0656586   5.8727303  31.3562622  81.6106491   4.5834222  32.0055962
  41.0304871  46.2982521  11.2025232  41.4391289  46.7747192  11.9251738
  41.5245934  46.5676575  10.4282417  10.9848700  25.8316956  55.3283768
  10.8315010  26.0006752  54.3987770  10.3779945  25.1243515  55.5465469
  39.0619965  26.1175556  89.1644669  39.6602898  26.6570187  88.6474915
  39.3120499  25.2170429  88.9576340  63.0954514  49.5352669  14.2503557
  62.7402191  50.2041435  13.6649961  63.4573135  48.8711929  13.6635904
   3.0705664   2.2258308  43.3298073   3.7370021   1.9313241  42.7090340
   2.3018291   1.6929053  43.1266708  66.9396286  69.1631393  35.5100975
  67.7196808  69.1978989  36.0637512  66.4707031  68.3827744  35.8056755
  23.8148670  61.5098152  85.4222488  24.6012497  61.2629852  84.9355164
  24.1322231  61.7159309  86.3014755  41.5725517   0.1600560  54.1632271
  40.6386223   0.2115437  54.3665962  42.0085449   0.2881239  55.0056877
  39.5684891  57.6320801  75.1100922  39.1686325  57.3856392  74.2760620
  39.6369247  58.5860023  75.0703049  16.2100639  68.0949860  32.1999550
  16.0563869  67.2124329  32.5371742  17.0720406  68.0467072  31.7865601
  69.4904022   1.0286698  19.7143440  70.0498581   0.3059417  19.4299068
  69.0244751   1.2968986  18.9223862  64.6108246  19.0762997  47.1729660
  65.2682800  19.7710915  47.1377678  64.9200363  18.4219952  46.5464630
  12.2267609  16.2539787  85.3374329  12.0822639  16.9692974  84.7180176
  11.3496122  16.0171661  85.6387024  12.4500246   2.6735313  59.6514740
  12.0656853   2.2206993  58.9008369  11.7010441   3.0513597  60.1124573
  77.5511017   9.3426666  16.0501156  77.4252548   8.5714674  16.6029701
  76.9737320  10.0056105  16.4287758  62.6568413  70.9745102   9.9102755
  63.4894104  71.4181519   9.7482796  62.4278412  71.2152939  10.8079491
   2.4490302  24.9513950  65.8409653   1.9530598  24.2869682  65.3626556
   1.9307311  25.1163177  66.6286240   3.1533518  11.4872665  49.9009590
   3.6859403  12.2801132  49.8379097   3.2168589  11.0865021  49.0340195
  63.2552185  21.6347809  59.9572411  63.1028366  21.2477036  59.0951614
  62.3918800  21.9356689  60.2406883  68.6907272  20.8990364  18.3022747
  69.6010666  20.6996708  18.0837135  68.1834564  20.5191364  17.5849247
  15.2550478  61.8807068  85.0295563  15.4714651  62.2848129  85.8698502
  15.3185759  62.5958176  84.3964615  36.9025955  27.1500702   1.3936316
  37.1009903  26.5509377   2.1132922  37.6125870  27.0141697   0.7661956
  42.9723320  59.2782631  63.9614601  43.6205597  59.4321747  64.6487350
  43.4641953  59.3639221  63.1447792  11.1712046  35.6689453  76.6260834
  10.7874908  36.5448494  76.6683426  11.8554344  35.7390671  75.9603882
  18.1569328  66.3128891  15.5729113  17.7760735  65.6806335  16.1823597
  18.7284489  65.7895889  15.0109940  60.6172600  13.8655891  54.8933907
  60.6383743  13.0392685  55.3760719  61.3183594  14.3882933  55.2825890
  23.4222260  10.1146841   5.8185534  24.2387161  10.2938576   5.3522139
  22.7448273  10.1671505   5.1443057  44.0850182   2.6236355  60.1331482
  44.5760422   2.7893786  59.3283806  44.2925453   3.3680496  60.6979599
   9.0204239  16.1278019  56.1966171   9.7120399  15.8202515  56.7825470
   8.3451071  16.4702358  56.7822113  78.5377350  35.8134117  76.9843521
  79.4162979  35.8696213  77.3601151  78.5707474  35.0471306  76.4116745
  53.9171219  50.9805222  83.3883820  53.6510468  51.2846222  84.2561111
  53.1249466  51.0527306  82.8559647   5.2331109  56.4120255  19.1863098
   5.4506454  56.2730865  20.1080513   4.4629836  56.9801712  19.2049751
  16.3316536   8.4066420   6.9139242  17.1120472   7.8837304   6.7301250
  15.6690664   8.0678301   6.3119144   5.9765754  57.2563629  54.1322479
   6.7751536  57.0119705  54.5999870   5.5489535  57.8931160  54.7048912
  60.2664413  49.8742485  85.2017212  59.7496223  50.6603661  85.3782272
  61.0961647  50.0265427  85.6540527  72.3455276  39.0511780  55.0450745
  73.2871475  38.8797531  55.0593071  72.1295776  39.2775002  55.9497147
   3.0566053  27.1065502  64.3209076   2.9648142  27.8163395  64.9565201
   2.9390512  26.3078308  64.8351669  30.6126881  68.0472183  48.5462227
  30.0439873  67.3252411  48.2787247  30.0578022  68.5967865  49.0996780
  13.0411654  12.1044340  28.5697308  13.0585098  11.9210033  29.5090294
  13.0494509  11.2408924  28.1568642  61.1612129  69.2132797  81.4603958
  61.4498520  69.8530045  82.1113052  61.8690681  68.5698242  81.4266891
  12.6489296  62.9322357  67.9902954  11.7927074  63.1357231  67.6138535
  13.2768431  63.2296638  67.3318863  10.6824188  24.3760090  14.2975674
  10.3822870  23.5524330  13.9130211   9.9475307  24.9777031  14.1786814
   6.5424786  36.7544136   6.0119371   7.2305450  36.4024963   6.5766931
   6.8292584  37.6454506   5.8118305  58.4348145  60.9033661  72.4802094
  57.8841591  61.1183548  73.2330627  59.0128593  61.6600227  72.3824081
  56.3295746   3.8747413  81.4674301  55.9800262   3.9604931  82.3543854
  56.9832153   4.5706887  81.3992615  31.9738083   2.2989762  33.1050148
  32.6809082   2.9344075  33.2166862  31.2620239   2.6344626  33.6500320
  64.8884964  49.6616402  76.6899567  65.1253586  50.1512337  75.9022827
  63.9982452  49.9493866  76.8921585  -0.0176352  60.7537956  42.0784073
  -0.0190011  61.1613274  41.2122955   0.2305255  59.8439484  41.9146080
  81.7868042  66.6784210  64.1724167  81.5979080  65.9415131  64.7533875
  82.5634384  66.4054031  63.6840172  48.8285103  61.6322479  83.4664230
  48.8147507  61.3472786  82.5527344  47.9065247  61.6620140  83.7219391
  72.2063522   8.1050777  77.7187042  72.0122681   7.2536960  77.3266449
  71.4905472   8.6708288  77.4292603   5.7659688  66.1660995   5.7485862
   4.9640994  66.5947418   6.0477605   5.6887884  65.2660141   6.0650034
  52.7503357  12.2714882  86.8558884  53.4963760  12.2601128  87.4554977
  53.1313934  12.0934639  85.9960403  62.2227440  41.6972313  38.8491669
  61.7519684  41.0291405  38.3509140  61.8646126  42.5273170  38.5346451
   0.6632668  35.2442398  39.8367996   1.1239313  34.6227722  39.2730675
  -0.0665751  35.5570221  39.3022614  72.0080872  53.8800430  56.2279778
  71.1751328  53.7103233  56.6679955  72.6368637  53.3176842  56.6803246
  63.0566750  20.1227932  45.4677963  62.7242126  20.8999615  45.9169197
  63.5602722  19.6573143  46.1355934  84.3155594  46.3542747  54.5815849
  84.5195312  47.1348534  54.0664864  83.7709961  46.6767426  55.2997017
  55.3790817   5.5345235  47.6773682  55.0218353   4.7356534  47.2895355
  54.6343689   5.9380875  48.1232071  79.7497711  58.2516441  47.4340019
  79.4111328  58.2164040  48.3286018  80.6366501  57.8975296  47.4994926
  79.8310699  68.7622528  44.6693764  80.7622681  68.9638443  44.7613754
  79.7262573  68.5302658  43.7466469  73.9669724  27.9119415  50.8579941
  73.8107910  28.3956280  51.6690941  73.9887848  28.5852757  50.1780090
  50.6676674  54.1139526  51.8808174  51.2875252  54.5150146  51.2715912
  50.7510643  54.6307449  52.6821938  78.5813675  43.7064285  23.1818428
  79.4642715  43.3428116  23.1147861  78.4337616  43.8050613  24.1224346
  26.7727928   9.2361536  19.8096790  25.9808540   9.7708750  19.7536583
  26.9703007   9.0048361  18.9020901  10.4281549  32.6916809  85.8513870
  10.7331533  33.2100945  86.5960083  10.1794481  31.8492908  86.2318497
   0.0286264  28.4649315  64.6192703  -0.3750964  27.6381874  64.8833466
   0.5329925  28.2457008  63.8358307  70.9049530  61.2952271  13.6496325
  71.2649231  62.1682358  13.4930925  69.9567871  61.4133339  13.5925226
  50.5637856  68.8549805   6.2132554  50.4054642  67.9889908   5.8374543
  50.6584740  69.4314499   5.4550052  10.6193571  44.6083794  14.5839453
  11.2103882  45.1840744  15.0692196   9.7424955  44.9052963  14.8272276
  53.2634239  22.3630276  69.1575470  52.5721817  21.7690430  68.8649826
  53.0532761  22.5421352  70.0740585  85.5672302  10.1031303  74.3203278
  85.2204971   9.5656767  73.6081772  86.3897324  10.4529657  73.9777756
  82.1921539   1.7487605  39.9655266  82.8572159   2.3630853  39.6548462
  81.3834839   2.2605572  39.9843597  75.1563492  59.3444328  38.1989098
  75.3830109  59.2933083  39.1274796  74.2933502  58.9345474  38.1401062
  61.2778358  58.2107544  54.8201981  61.6926308  58.9691696  55.2312737
  60.5411644  58.5766983  54.3306770  79.0116043  24.9186172  49.0293465
  78.2168579  24.5495777  49.4145889  79.0663300  24.5168533  48.1622696
  59.8361015  66.3628159  13.9126205  60.2194786  66.8082657  13.1570864
  60.1893005  65.4741211  13.8713331  44.1644478  55.8374786   4.5488482
  44.3833580  54.9113312   4.4460697  45.0084114  56.2701416   4.6782947
  33.7950935  51.7416496  15.1073399  34.6966286  51.4372520  15.2112837
  33.5306664  52.0119286  15.9866915  82.0003815  63.2787628  73.2802887
  81.8498459  62.8251572  74.1096344  82.3247604  62.5982018  72.6905060
   8.5001736  66.2770462  37.1100655   8.7186632  65.3462372  37.0643845
   9.1854401  66.6572266  37.6597061  53.2051506   3.8083298  22.6757202
  54.1234932   3.5533845  22.5869541  52.9590836   3.5156941  23.5532436
  17.6156330  18.6699123  23.9532890  17.9336739  17.7689152  23.8959465
  16.8186359  18.6767693  23.4232121  29.7459068  42.8681259  21.2170696
  29.3676682  42.0224876  21.4580307  30.3352127  42.6683922  20.4897079
  82.3630600  68.2622681  56.8168335  82.8838425  68.6850739  57.4996643
  82.2156296  68.9500656  56.1676521   1.5022763  70.9749985  56.3008690
   1.6727182  70.3238525  56.9814529   2.1786296  70.8159637  55.6424713
  62.9470367  12.9734669  84.0889664  63.7825432  12.5199394  84.2006302
  62.8469772  13.4913111  84.8877563   6.1993327  13.4799309  47.0322037
   6.8256125  13.0914602  46.4213867   5.8369670  14.2292213  46.5594597
  79.2590027  31.5686512  40.4800568  78.5071945  31.4252968  39.9052010
  79.7919312  32.2172699  40.0201454  68.5312119  44.3339272  83.0654678
  68.5169296  44.7300644  82.1942062  69.4614105  44.2461624  83.2734451
  82.4987259  67.0292587  35.4400253  82.8498840  67.7608719  35.9476357
  83.2238693  66.7585526  34.8768997  41.1153488  49.7292747  38.2333221
  41.0055084  48.9532242  38.7827873  40.4552193  49.6321945  37.5470009
  84.0118027   1.1795012  81.7699585  83.1523285   1.3547071  81.3867722
  83.8433228   0.5232144  82.4460754  65.7430344   9.8844652   3.5374105
  65.4163437   9.7858915   2.6431005  66.6845703   9.7269659   3.4671853
  57.1969032  36.6529808  35.2646294  57.6180267  35.9799805  34.7298775
  56.2658730  36.5770760  35.0556870  12.9177437  32.2435379  36.0502472
  12.6296024  31.3604450  35.8192711  13.6540165  32.4163780  35.4635086
  19.0097084  13.3009825  68.7698975  18.9667320  13.5535870  69.6921616
  19.7760372  13.7632751  68.4304047   1.9281238  14.1384993  51.4074707
   2.7509360  14.1312265  51.8965111   1.2664260  13.8777847  52.0481071
  50.9718781  26.7260609  21.5298271  50.8887329  27.0093422  20.6192951
  50.6761131  27.4782467  22.0426388   6.4972005  24.2851505  22.3611774
   7.0446506  23.5312405  22.1417484   5.8626208  24.3364868  21.6464005
   1.5057442  43.9185677  17.0876427   2.4485283  44.0077744  17.2270412
   1.4268314  43.2579346  16.3994770  35.8127022  42.0640526  78.2748489
  35.4535599  42.4589005  77.4802780  36.7326164  42.3285713  78.2790375
   3.8353770  28.8712769  80.4350052   3.8151135  27.9259090  80.5836639
   3.0728266  29.0432644  79.8825836  56.4603271  29.0176468  22.4693336
  55.9376259  29.0648060  23.2698288  56.6221428  28.0826302  22.3436813
  24.1370735  32.1479721  24.2174664  24.9818382  31.9501057  24.6217594
  23.9817696  33.0692329  24.4257832   1.3953867  23.1066666  80.7128754
   0.4767689  22.9459114  80.4971695   1.6725662  23.7810631  80.0927200
   6.0773268  64.0992584  55.2248535   5.9612617  65.0225525  55.4491234
   6.8976903  63.8506203  55.6507759  33.5377808  69.7948151  58.0909195
  33.1318893  70.5813828  58.4553261  33.1841164  69.7318878  57.2036819
  34.4930840  50.0110931   7.4717159  35.2953987  50.4541740   7.7477636
  34.5923996  49.1144562   7.7917337  26.3250923  68.6716766  30.9763813
  26.3115902  68.3545685  31.8794270  27.2429829  68.8878632  30.8121433
  57.1577454  17.8919678  27.2677631  56.7919121  18.6585751  27.7090244
  56.5974884  17.1666279  27.5438595  83.8459625  38.9461174  41.4277916
  83.2684860  39.5862083  41.0118103  83.3050995  38.5402985  42.1052971
  69.2565689  51.3418961  66.3738937  69.3617706  50.6917152  65.6793213
  69.8793716  51.0736084  67.0494385  48.1907005  20.7126331   0.5473245
  48.3072510  21.6446133   0.7318758  48.8608360  20.2783279   1.0750835
  58.2399330   4.6316433  84.1053314  58.7471466   4.5687613  83.2960052
  58.8436623   5.0232038  84.7365417  29.0004177  51.2337875  71.5224457
  29.5335770  51.6889153  70.8706512  28.3140488  51.8607674  71.7505417
  65.2453995  29.3624611  21.9951897  65.2758026  29.8490849  21.1714764
  65.8609009  29.8210163  22.5671329  12.8117676   2.9224882  40.7823944
  13.1116858   3.1959980  41.6492729  12.9759846   1.9797814  40.7585487
  78.2510910  69.2297516  64.4251556  78.8903580  69.6146164  65.0246964
  78.0244675  69.9419937  63.8271751   8.1090593  13.4232368  54.6090508
   8.6877623  13.9783621  54.0863953   8.6209288  13.2116537  55.3897285
   6.0201054  46.9241562  40.1586876   6.5147810  46.8172112  39.3462257
   5.1224785  46.6872292  39.9255219  48.4312744  59.2869606  51.2733879
  47.7880554  58.8697472  50.7002945  48.9518738  59.8374138  50.6883965
  80.6736298   5.2013421  18.5874615  80.7970352   4.5810714  19.3059807
  80.0153961   5.8158870  18.9119511  31.9815159   5.3631186  83.5827332
  32.2803078   5.0492382  84.4362106  31.7589245   6.2823405  83.7300949
  17.9320183   9.3361473  23.0777054  17.2517452   8.9745998  22.5095997
  17.7370281  10.2723694  23.1189289  47.3933868  56.3275604  63.4346848
  47.7388382  56.0343094  64.2778320  47.6268234  55.6284370  62.8239746
  83.1082458   7.1182246  89.0086060  82.6617584   7.7422686  88.4363708
  82.5023575   6.9859605  89.7377472  17.2270947  50.5416565  87.0931931
  16.3252277  50.3266830  86.8551712  17.1516781  50.9945869  87.9330750
  84.0653687  60.1670036  48.7712440  84.0071106  59.2537994  49.0521164
  84.2096100  60.1181984  47.8262329   1.2151490   9.1665640  37.6297874
   1.8010986   8.7466345  38.2595100   1.0275720  10.0238810  38.0119553
   9.8490343  14.3171158  85.1664429   9.3615732  13.7818823  85.7926559
   9.2008505  14.5640192  84.5067978  52.7851257  66.1614075  45.7064209
  53.2828369  66.9342499  45.4395370  53.0549889  65.4788132  45.0920410
  21.5836124   4.2256179   9.2410965  21.7602863   4.3854060  10.1681814
  22.3373661   4.6005306   8.7855444  51.2050743  19.5783215  67.8625488
  50.8042793  20.4237366  67.6603851  50.8341980  19.3340931  68.7105103
  73.9577866  61.2739716  30.3869133  73.9653854  62.2292480  30.3267765
  74.1751251  61.0897751  31.3007355  57.1156006  27.3518963  35.9378166
  57.6372643  27.3345451  35.1354446  56.7529984  28.2372208  35.9686508
  61.7706833   8.4433765  81.2170258  61.0538788   8.4645681  81.8510361
  61.6814575   7.5949612  80.7828979  63.2373352  67.6187820  13.2075615
  62.5878639  68.2127838  13.5838423  63.3269348  66.9201813  13.8557549
  25.6014366  61.9122086   9.7462120  25.9682865  61.1097298   9.3751602
  25.9169235  61.9242973  10.6498461  75.1069489  10.6078224  63.3521652
  75.9668274  10.2611389  63.5901718  74.7309647  10.9053383  64.1806259
  64.0860977  70.9187469   0.7431532  63.2319260  71.2732925   0.9899622
  63.9649277  70.6037140  -0.1525622  81.3172836  29.8522396  48.8106117
  80.9250412  29.6982727  47.9511490  81.9753418  29.1629620  48.9005165
  71.8796005  60.2747421  42.4040451  72.3696671  60.8246422  43.0153389
  72.4822769  60.1320457  41.6742134   2.7383952  46.3824844  14.4547739
   2.9290590  45.4878159  14.1729126   3.2377012  46.9346962  13.8531170
  44.6566353  44.1414375  19.8617287  44.8495331  44.4122887  18.9641418
  44.8274689  43.1996384  19.8696690  17.7100067   6.6797667  18.0196457
  18.5323143   7.1448216  17.8654881  17.1558399   6.9205737  17.2772560
   5.3530540  58.1685753  42.7117882   5.2257733  58.0022850  43.6458015
   6.1432962  57.6776123  42.4866104  83.7714920  26.4958496  56.0720787
  84.0215073  26.9277496  56.8888969  83.2245712  27.1378345  55.6193542
  57.1542435  11.1686983  18.4828892  56.7547073  11.8415079  19.0341854
  56.4728241  10.5036592  18.3848114  34.9361496  23.1308002  88.9736099
  34.0598946  22.9185524  88.6521225  35.0569572  24.0532646  88.7484436
   0.8879623  15.5979424  73.9692383   0.5541870  15.6610060  74.8641434
   0.4434200  16.3023453  73.4976120  23.2522602  53.6547165   3.9917998
  23.9094067  52.9597855   4.0300717  23.6986122  54.4259567   4.3413587
  35.2621956  38.0263405  77.7597504  34.3572311  38.3314247  77.8244858
  35.4764252  38.1075325  76.8303680  69.4873505  41.3174286  55.7999649
  68.8382721  41.9828491  55.5716057  70.2457123  41.8166542  56.1030884
  28.6782436  57.0213509  52.6754150  27.9648476  56.4034920  52.8352585
  28.5778675  57.2706337  51.7567139  78.6083450  18.0246296  23.4930363
  78.9230728  17.1807270  23.8170834  78.8115692  18.6419353  24.1957951
  41.4760780   7.2547870  76.1918030  42.3624115   6.9715080  76.4162979
  41.6010475   7.9143300  75.5094376  29.7084293  57.2763252  40.4843788
  30.1309147  56.9587975  39.6863098  28.7726479  57.1526871  40.3254509
  67.5331497   6.9379897  41.5260048  67.5482864   7.4513493  42.3337555
  66.6091690   6.9093742  41.2776794  73.9484482  51.8118744  67.8852539
  74.6397781  52.3428879  67.4898834  74.0486908  51.9508095  68.8269958
  63.7783051  67.6169434  77.7295761  64.1781082  67.1009750  77.0294647
  64.3721008  68.3579712  77.8500061  83.6339722  48.3573799  63.8815842
  84.4116974  48.8058510  64.2136154  83.8348694  48.1777954  62.9630966
  25.6594772  52.0481186  64.2406158  26.0102806  52.9293556  64.3694305
  25.1823101  52.0989761  63.4123917  57.7102127   4.5814342   9.2698374
  57.0509567   4.9656663   8.6919279  57.4254379   4.8221216  10.1514292
  24.4614506  40.8566780  31.5605068  23.9249001  40.5233116  30.8413334
  25.0319061  40.1241264  31.7932663  12.9842510  21.5603695   6.5762706
  13.2166929  20.6325283   6.6125221  13.8200979  22.0123482   6.4609165
  10.4598694  25.0781364  20.2411461  11.3228378  25.1910305  20.6396065
  10.1468143  24.2399540  20.5812626  47.7091904  33.4304466  38.9423332
  47.7936096  34.3454971  39.2102585  48.6106720  33.1319389  38.8221016
  78.8521500  36.4842949  67.9992523  77.9085693  36.3818130  67.8751678
  79.2255173  35.6593170  67.6890335  46.3640785  61.9045410   1.3856688
  47.3147850  61.8191681   1.4570794  46.1435547  62.6265259   1.9741756
  16.7454815   8.9074697   3.7773280  16.6778660   8.8018694   2.8283765
  16.1140270   8.2824392   4.1334677   7.7997832  21.7581272  29.6389942
   7.0069451  21.3382530  29.9726772   8.5065184  21.3924332  30.1709938
  70.2572327  63.9515610  75.7841034  70.4840469  63.7458992  76.6910172
  69.4637527  63.4437408  75.6145935  26.4459724   6.5690031  69.9795837
  27.0546799   7.0281658  69.4008942  25.7548103   7.2074690  70.1553345
   4.6976061  44.8127861  42.9398460   4.8073382  45.7636757  42.9400368
   5.3720551  44.4939728  42.3400879  50.3859444  17.2046795  83.1034698
  49.6831894  16.5723648  82.9533234  51.0989876  16.6862392  83.4763260
  68.7081680   8.5750885  31.1248627  69.0043640   8.3224049  31.9993057
  69.4662552   8.4205875  30.5612507   2.2211308  48.6709480  32.0227013
   2.8799112  48.0521660  31.7075024   2.3122303  48.6531525  32.9753914
  57.2179604  66.4232864  60.6301804  57.4623718  65.5290985  60.3916016
  57.9771500  66.7602615  61.1059074  64.0873108  66.7726059   6.4523354
  64.5485458  67.4407806   6.9593215  64.7786026  66.1877518   6.1420178
  72.0291138  64.3820877  47.8845444  72.9072113  64.0082321  47.8110313
  71.7806549  64.5889053  46.9835892  48.0066643  70.6787338  78.4335785
  48.8550301  70.7298431  78.8739090  47.4603767  71.3177414  78.8912506
  18.4550304  29.5499554  15.7062349  17.6510086  29.6527443  15.1971045
  18.1536236  29.4010639  16.6024590   1.3370680  54.3238258  62.6245918
   1.3479247  53.7667274  61.8462868   0.4336796  54.6345978  62.6841087
  29.8808594  13.7350807  60.6919670  29.9285088  13.4765720  59.7715683
  30.4678383  14.4881191  60.7599411  34.6480141  71.3726807  60.6326065
  34.9968529  70.9483109  61.4164772  35.2078819  72.1386185  60.5056419
  74.1642380  70.3682175  49.6852188  74.9990463  70.6381531  49.3025169
  73.7765732  69.7883911  49.0296707  58.9562531  21.3335972  65.2070160
  58.7248840  20.7272930  64.5033875  58.7632332  22.2002907  64.8494949
   6.2353239  44.6838303  51.2277336   5.9763522  45.5904007  51.3929329
   6.6447678  44.3990288  52.0447273  55.7201157  28.3162823  18.9391899
  55.2113495  27.6178169  18.5274391  55.1960831  28.5804329  19.6953964
  80.9341431  11.1834240  87.1388321  80.8153687  12.1064186  87.3628922
  81.8781891  11.0869474  87.0134964  63.5181580  26.5477619  32.2442856
  62.9163628  26.0938129  31.6543636  63.9454575  25.8467464  32.7364502
  32.0419998  49.7799416  76.7895889  31.1498203  49.4717865  76.6305542
  31.9295044  50.6274643  77.2200394  71.0994644  19.0079174  80.5868835
  70.6977997  19.8437080  80.3495102  70.6597443  18.7526226  81.3978729
   3.2731867  40.7681999  57.5789757   4.2009969  40.6170845  57.3985214
   2.8235438  40.4677887  56.7891617  81.5182495  63.8219490  46.8245735
  80.6357193  64.1022873  47.0670319  82.0368729  63.9498672  47.6188660
  82.0669022  40.4635048  14.0304337  82.1918640  40.2220078  13.1126671
  81.5710068  39.7351608  14.4043722  30.9940338  67.5853653  11.4501600
  30.6807766  67.1257019  10.6711769  31.1775780  66.8894958  12.0812759
  58.9548302  70.2974548  25.6197548  59.3885994  70.9505157  26.1689243
  58.9019547  70.7074890  24.7564430   7.0797834  57.3001137  17.2535629
   6.2760501  57.5078239  17.7301140   6.8214178  57.3110657  16.3319569
  26.2194214  39.3485947  60.6161194  26.3532505  40.0264130  61.2785988
  27.0546417  39.2999878  60.1510658  85.3287125  35.4839668  42.3520813
  85.6016617  36.3303337  42.7061882  86.1249466  35.1170616  41.9678574
  46.5005760  60.2853889  54.6070023  46.0572433  60.2374802  55.4539948
  46.2163582  59.4978790  54.1430168  -0.3320629  45.9205208  14.1162310
  -0.0050969  45.0610657  13.8504095   0.4563313  46.4260025  14.3141041
  63.5138931  45.9359055  38.4725227  62.7934456  45.6421967  39.0301285
  64.2731094  45.4419975  38.7821541  41.6278687   3.9888921  45.7345428
  41.3383636   3.7102520  46.6033249  40.8346214   4.3180842  45.3119011
  23.2798424  55.8138771  62.4042549  22.9338245  55.2452736  63.0921440
  22.7266674  55.6340332  61.6440659  56.6221390  19.4573421  87.3152390
  56.4153519  18.5637112  87.5889053  55.9957809  19.6447220  86.6160965
  35.8718643  68.0309677  59.1788712  35.2175751  67.3969574  59.4724121
  35.3607597  68.7361374  58.7816963  40.8349915  24.1693649  17.1917763
  40.3656998  24.7864914  16.6303921  40.2089882  23.9494209  17.8816872
  74.2270966  62.7113304  14.0182676  73.9573288  62.7769852  14.9343185
  74.8084335  61.9512825  13.9936647  67.7711411  43.8130226  77.3966827
  68.2741470  43.0000648  77.3485870  66.9920273  43.6443138  76.8668213
  76.6936264   3.6169181  51.5565414  76.5876694   4.5335298  51.3019295
  75.8305588   3.2278128  51.4153481  32.9507256  29.8955593  52.1442108
  32.6177254  29.0008984  52.2143784  33.4678612  29.8961601  51.3387299
  56.8134193  46.9765358  87.0963821  57.4573174  46.3846703  87.4853821
  56.0354614  46.4336510  86.9687500   5.4745135   6.6665840  61.9757156
   4.6100688   6.3439727  62.2304497   5.4822736   7.5806570  62.2596931
  12.3500328  66.7162399  67.5153885  13.1037188  66.1262512  67.5055695
  12.4400015  67.2330780  66.7147522  77.5676727  36.1507721  65.0849762
  77.4560242  35.2429428  64.8028183  77.0591660  36.6616058  64.4551392
  13.0332918  36.6362801   2.4479990  13.1058168  37.1133385   3.2746706
  13.7774649  36.9416389   1.9291620  83.1703110  33.5904198   7.2052484
  83.0281296  32.7919540   6.6968455  82.3184891  33.7782822   7.5993662
  56.3142090  44.4846001  26.0549946  57.2270012  44.7675514  26.0004139
  56.2178955  44.1575928  26.9494343  33.2201309   4.4081764  68.5099640
  33.9900055   4.4141035  69.0787277  32.8213043   5.2688961  68.6377563
  85.9687881   8.8768988  61.3807716  85.2354584   8.3833113  61.0135765
  86.0920105   8.5077314  62.2552795  23.2435799  65.5191803  73.5765305
  23.0166454  65.8305054  74.4527817  22.5823193  64.8557968  73.3793335
  54.6222267  50.3377037  56.9117088  54.4325333  49.5970459  57.4876175
  53.7991295  50.4995804  56.4506950  38.9375191   5.5163412  30.5449772
  38.9758492   6.1774397  31.2361431  39.1195107   6.0008402  29.7397614
  63.6981163   4.8958077  19.1403828  62.9463654   5.4874268  19.1073494
  63.3426018   4.0426569  18.8914318  14.5612411  57.8084145  56.7626915
  15.1956511  57.6106148  57.4516258  14.4744692  56.9895287  56.2747116
  57.8724251  10.2736702  21.1564312  57.7459412   9.6326590  20.4569035
  58.1131172  11.0805769  20.7012386  72.9692001   1.5158666  84.6383514
  73.6434937   2.1593440  84.8563004  72.3155441   1.6098475  85.3312683
  84.1641922  60.2890015  31.9927578  85.0970306  60.1811790  31.8072243
  84.1351852  60.6190300  32.8907967  16.1047058   4.9143095   9.6255074
  17.0498180   4.7789006   9.5572491  15.8068886   4.9858832   8.7186375
  40.3400574  69.7766266  15.3787546  41.1693993  69.7308731  14.9030151
  39.6746979  69.8458252  14.6941071  81.1467590  24.7639408  41.7575264
  80.4797287  24.4253616  42.3547363  80.8800964  25.6674881  41.5880470
  58.9386826  60.0519905  33.7994270  58.8007355  59.4563599  33.0629349
  58.2720871  59.8007393  34.4387665  54.9329147  24.1037045  79.6204376
  54.7414703  24.0878944  80.5581589  55.8025208  23.7105141  79.5468597
  59.0794411  20.0693378   4.3596029  58.5868759  20.5570946   3.6995220
  58.7370186  20.3851490   5.1958098  22.0766411  69.2175140  78.6307373
  22.8203220  69.4346542  79.1928940  22.4648647  69.0603790  77.7700272
  73.3034058   6.5221500   0.2132477  73.1695938   5.6332803  -0.1157491
  73.8398438   6.4089074   0.9978728  70.1504669  47.4167976  58.9551163
  70.5929947  46.5894775  59.1447105  70.0681610  47.4313660  58.0015717
  70.3187103  17.2102242  78.4733734  70.0935669  16.4646721  79.0298767
  69.6358566  17.8569107  78.6515121   7.2145247  68.4030380  57.5943222
   6.3957329  68.6014328  58.0486908   7.7744174  69.1596527  57.7683372
  42.8282280  61.9176292   1.2761506  43.3563004  61.5100708   0.5896607
  41.9552422  61.5421562   1.1614960  14.4300690  66.5686951   1.1799078
  15.1641979  67.1604691   1.3444904  13.9569416  66.9708176   0.4514331
  10.1348982  16.4393082  44.7610550   9.3297567  16.8121586  45.1201668
  10.8350439  16.8403091  45.2760544  23.4479847  17.3317413  87.7836609
  23.5141296  17.6571426  88.6814194  24.3440132  17.0891190  87.5502167
  21.8783092  65.7218475   3.4632864  21.9195271  65.9392242   2.5320070
  21.3015251  64.9591370   3.5059073  30.0814056  29.2972374  21.3895779
  30.0556793  29.5992355  22.2975254  30.9649200  29.5122681  21.0905857
  33.7524223  48.8211288  17.5728874  32.8234558  48.8288765  17.8035202
  34.2002029  48.6013489  18.3898449  59.0308609  51.1407967  64.6560211
  58.7789040  51.1212845  63.7327843  59.4246941  50.2829742  64.8149948
  43.0988579   7.2380161  26.1225014  42.6436310   6.6243215  25.5459805
  43.3788605   6.7049026  26.8665581  24.6749859  71.2459030  61.9864464
  25.2145195  70.6121750  61.5136681  23.8934441  70.7541504  62.2386398
  26.2582207  15.5705137  10.5535040  25.4533138  15.5030537  11.0671263
  26.4310493  16.5105419  10.5014505   9.5007887  42.6876030   7.6780558
   9.3757010  43.3943596   7.0447454   8.6217985  42.3374023   7.8228607
  78.3569183  37.5858078  61.4633369  78.3495255  38.4292984  61.0108948
  77.5915756  37.6152534  62.0374527  52.7918930  38.3424263   5.1515441
  53.5685921  38.8471680   5.3928137  52.0617027  38.9456558   5.2899966
  58.5991173  47.4021072  74.2729950  59.0327797  46.6006050  74.5658493
  58.3361206  47.2164803  73.3715515  15.6193924  17.2498302   3.9807541
  15.4683838  16.6599312   3.2422111  15.6575480  16.6732826   4.7438846
  65.0224533  14.1842356  71.1292572  64.2311325  14.7175722  71.0544357
  65.3694153  14.1441545  70.2380524  76.8430862  34.8556671  71.7718430
  77.2634048  35.3194504  72.4960480  77.0768280  33.9374352  71.9076538
  21.9917011  29.5520020  29.6333427  22.4171219  28.8728905  30.1568470
  22.5438347  30.3251972  29.7497444  64.3032303  61.8175163  45.9503555
  64.6117172  60.9817085  46.3003426  63.6740379  61.5750961  45.2709579
  37.8590851  20.7501888   5.0914884  38.5900002  20.5714474   4.4998398
  37.7435455  21.6994610   5.0494671  49.0586662  48.7154961  75.9989929
  49.6190300  49.4905510  76.0379028  48.3703384  48.9486313  75.3760300
  21.3782349  16.9465885  83.4091339  21.1476917  17.8238430  83.7149200
  21.8096905  16.5372105  84.1591263  38.6021233   7.9462967   6.1770539
  38.5302505   7.3435602   6.9171720  37.6971550   8.1773338   5.9675612
  85.7608490   7.5616198  37.7459335  85.3315201   8.0362301  38.4577332
  86.5127029   8.1066904  37.5138931  45.5848923  55.0001678  87.2438278
  45.4365921  55.8570518  86.8438416  46.1971092  54.5624771  86.6523514
  71.2665863  21.9760132  25.8967915  71.0140686  22.1792126  26.7974472
  70.4368286  21.9137726  25.4236488  86.2611008  18.3959332  37.8306961
  85.7285080  19.1868916  37.9141273  86.5063782  18.1764297  38.7295227
  59.0842972  33.4950790   7.1357784  58.5500374  33.8770180   7.8321414
  59.9424858  33.3615952   7.5381808  65.2843018  46.4266396  12.1192074
  65.8997803  46.9993744  11.6616182  65.5223999  46.5083237  13.0427170
  48.4907951  35.9538536   1.2359202  49.0931549  36.6739693   1.4225452
  48.0191574  36.2333488   0.4512721  13.7872572   0.9956046   7.8292298
  14.5833530   1.0300126   7.2988729  13.7972250   1.8116627   8.3294115
  40.3703308  49.7826614  31.2796440  40.2290573  48.9340897  30.8598843
  39.4904099  50.1395378  31.4005165  34.7570457  59.9274826  28.6935997
  35.5889664  59.7161865  29.1172657  34.1032677  59.4365654  29.1914005
  70.6000137   6.1291780  50.2687798  70.1320114   6.3527479  49.4642792
  70.2321472   5.2860518  50.5334435  81.6750031  41.2500610  84.0344315
  81.0844040  41.8782463  83.6187439  82.3242493  41.0494156  83.3602982
  17.5256462  34.2297401  58.3039360  18.2219048  34.8192978  58.5935516
  17.8474388  33.8660507  57.4790649  69.3917160  23.7085094   3.4639840
  70.0628128  24.2344913   3.0290101  69.1571045  23.0398369   2.8205040
   0.1300327  31.2174759  74.8743591  -0.4387835  30.9054985  74.1705551
   0.4843926  32.0442963  74.5472107  74.8872910   0.6029947  81.5291290
  74.7214661   0.0442621  80.7698212  74.7432022   0.0312993  82.2832108
   9.9016438  48.7488670  54.7688370  10.1931448  47.9590530  55.2243080
   9.3205481  49.1843185  55.3924866  13.0006285  26.3523731  74.5071945
  13.2566500  26.5620689  75.4053650  13.8295450  26.2472954  74.0401993
  22.8166828  68.8247147  33.2307549  22.1867065  69.3772583  33.6934166
  23.3719845  69.4418564  32.7543068  15.1615715  46.9461784  36.9109077
  14.6513510  47.7547760  36.8653793  16.0586586  47.2378540  37.0733719
  72.7442245  58.5730896  65.5379257  72.4359970  59.3384209  65.0526505
  71.9950256  57.9773941  65.5467453  79.1529160  28.1569920  20.2201500
  78.2761002  28.2378902  19.8448105  79.3946609  27.2431965  20.0692673
  65.8828659  44.0396729  70.9526672  65.8379669  44.7725906  70.3386230
  65.7600098  43.2625694  70.4074631  65.0130463  39.9513359  78.1239243
  65.8800659  39.8114929  78.5046463  64.7397232  39.0838661  77.8255539
  17.0829201  61.4087219  63.6404572  17.1850567  62.2098923  63.1267242
  17.9332466  61.2845001  64.0620499  61.9921417  51.1263466   1.8752035
  61.0584908  50.9688339   2.0156209  62.1576538  50.8092651   0.9873421
  70.6989517  40.1409454   1.2678567  70.8375626  41.0633545   1.4827402
  69.8418579  39.9343605   1.6406212  10.2025824   7.8686848  47.0249138
   9.4825468   8.4523687  46.7859726  10.6252003   8.3010349  47.7670021
  54.9100647  51.3300629  60.4342270  54.6695175  50.4036331  60.4243965
  55.7387810  51.3674202  59.9566612  80.9757156  66.9846725  82.7942200
  81.6536713  67.5781708  82.4711609  80.2850571  67.5632629  83.1174240
   9.0655184  14.9656410  52.0901222   8.1199074  15.0504494  51.9682236
   9.3600321  14.4586649  51.3335037   3.0069935  42.2776680  62.9906502
   2.0787048  42.5068932  63.0350075   3.3972149  42.9628067  62.4479294
  52.6499634  63.6235123  83.5960846  52.2674446  63.6733017  82.7200546
  51.9119568  63.4127541  84.1680603  45.9952431  53.4803810  50.0640907
  45.1601944  53.2861443  50.4897652  46.3084412  52.6312523  49.7524490
  43.1093178  63.0058136  85.3263016  42.2361794  63.1305046  85.6982040
  43.7075500  63.2343025  86.0377350  55.3320694  37.4570427  48.6288185
  55.2761192  38.4108162  48.6872864  56.1680794  37.2924500  48.1926689
  61.7142792  61.6917915  45.0002747  61.2133484  61.6343002  45.8139038
  61.9168625  62.6228447  44.9090118  24.3924446  37.8395538  28.0565834
  23.8126221  38.4439964  27.5932426  23.8661022  37.5156822  28.7875423
  62.0369339  22.2499409  39.8635521  61.8736801  22.7929440  39.0923653
  61.5698357  22.6931591  40.5717926   7.9938807  25.6280384  83.8503876
   7.4672937  24.9904537  84.3324966   8.6798935  25.1062279  83.4340591
  33.0889931  48.8978462   3.8505290  32.4923744  48.9881516   4.5935812
  33.7685051  48.2990952   4.1603565  59.7012863  36.4602203  79.5490646
  59.4268456  35.9395599  78.7941971  60.1848412  37.1944695  79.1705322
  20.3069992  45.5564041  63.3329544  20.0605392  46.4793396  63.3935966
  21.0960350  45.4834213  63.8699188  85.6082306  28.9664612  30.5058975
  84.8095398  29.0472908  31.0272331  85.6365356  28.0438328  30.2525501
  50.5762901   1.1615779  41.4010849  51.4237976   1.5502831  41.6175880
  49.9531212   1.8831517  41.4860725   1.6881254   1.9245504  56.9290886
   2.6415186   1.9139097  57.0137024   1.4639624   1.0418693  56.6343727
  21.5843048  12.6207733  79.2153702  22.4925098  12.6247072  79.5176620
  21.3295803  11.6982822  79.2342682  63.2160187  55.2795601  81.1772385
  63.6923714  55.2092171  80.3499680  62.3848610  55.6912498  80.9407730
   6.2302113  71.0564117  51.3558578   6.5990114  70.1731873  51.3669777
   6.1735845  71.3039551  52.2787628  23.5888519  20.4891167  31.9512672
  22.9005623  21.1295319  32.1311531  23.6284561  19.9515152  32.7422447
  56.6226921   0.5940011  15.4233599  56.4792404   0.9333788  16.3068066
  56.8097763   1.3705540  14.8959160  12.4429340  50.4527702  11.1067648
  11.6694555  50.5381279  10.5493813  12.5248756  49.5115089  11.2602215
  58.0341492  54.3719254  43.5992012  58.7106781  54.5342369  42.9417839
  58.5196800  54.1299667  44.3878365  54.0284119  13.1933899  21.0931644
  53.8483582  12.2888184  21.3492184  54.9695168  13.2102585  20.9191723
  36.5791435   3.7851911  78.6044388  36.7145271   4.7276587  78.5061646
  36.5610886   3.4510181  77.7076492  14.1236629  11.9763479  41.6912384
  13.8665867  11.3021345  41.0622864  13.3317184  12.1408739  42.2030830
  39.4969215   1.4544832  35.1327629  39.5677109   2.1470268  35.7897301
  38.5553436   1.3134067  35.0339699  53.9575806  31.3645039   1.6363204
  54.7235641  30.9600296   2.0436342  53.4577446  31.7231922   2.3696263
  28.4269447  34.8610573  16.7517643  27.5587006  35.0194054  17.1223183
  28.7691498  34.1199112  17.2515945  50.6812592  53.2290039  78.7589569
  51.4416618  52.9712334  78.2378311  50.9527512  53.0862007  79.6656723
  63.0618973  45.7776184  19.1148796  63.2102966  46.2203026  18.2792721
  62.5222855  45.0191956  18.8916187  69.5358353  22.6087303  54.0360718
  68.7583160  22.4087772  53.5148010  70.2399292  22.1158295  53.6147308
  70.7777481   4.3049836  46.5414925  71.5719757   4.1801805  47.0609703
  70.4541550   3.4183884  46.3818970  52.5906105  20.2650242  83.5911179
  51.8008461  20.1030979  84.1071396  52.3732338  21.0262146  83.0530014
   4.4946980  63.9518967  66.0785675   4.8917003  63.5340271  66.8427734
   5.1687860  64.5496292  65.7552185  67.9640427  36.3611565   9.6694670
  67.2940216  35.6786880   9.6303225  67.7754898  36.9252167   8.9194574
  48.2591019  55.0359459  17.9634819  47.5438347  55.6256866  17.7250843
  48.4609947  54.5651894  17.1548672  43.7879677  45.4731369  12.0049601
  43.9177170  46.2357635  11.4412212  42.9121284  45.5929222  12.3720980
  72.9122849  34.7221184  87.3227615  73.7954559  34.8428612  86.9739761
  72.5867004  33.9363670  86.8836441   7.4216375  65.2597961  65.6591339
   7.8629951  64.7531281  64.9774246   8.1297178  65.5685196  66.2244110
   5.2881842  13.3473854  49.7065964   5.8870645  13.1959143  50.4377823
   5.8608751  13.4722366  48.9498482  39.0724754  57.2648087  66.3428116
  38.1725044  57.0335045  66.1130676  39.4561577  57.5770493  65.5233459
  50.7905464  53.2418365   1.9736176  51.5593414  53.6405640   2.3812971
  50.9788589  52.3033447   1.9740281   4.3780317  58.0075302  36.7650146
   4.1700211  57.6207390  35.9145126   4.8297424  57.3106689  37.2410164
  30.9895477   6.0763178  19.5683994  31.8246994   6.4858017  19.3423996
  30.5724373   6.6969476  20.1659508  47.6177025  64.8653030   3.5131352
  48.0128899  65.1591492   2.6923366  46.7880707  64.4667206   3.2503130
  19.9166374  57.4046288  72.9512482  19.9082870  57.1791153  73.8814621
  20.8158512  57.2334328  72.6713562  15.7319918  61.3682823  10.4206362
  16.0598049  61.5397987   9.5378275  16.3175850  60.6949539  10.7669640
  76.9516602  27.2305698  54.1364594  76.7770081  26.2913895  54.0759201
  77.1518555  27.3778648  55.0608292  84.8351517  32.0881996  23.7055302
  84.7328033  31.4895058  22.9657192  85.6846466  31.8596649  24.0828362
  13.4623022  29.4851685  15.8511896  13.1382113  29.2286568  14.9878254
  12.7306767  29.3106537  16.4432201  79.5039291  68.1617050   9.2531404
  79.4680557  67.2188263   9.4141178  78.7328644  68.3424072   8.7155228
  74.9950104  64.0734482  52.8199883  74.7989197  64.0558395  53.7567215
  75.8041153  63.5690804  52.7351341  48.8482971  18.6144505  24.5044804
  49.5820541  18.3038845  23.9740257  48.1259270  18.0274963  24.2810974
  58.6813965   0.3078135  83.9206696  59.0329437   0.3729087  83.0327454
  57.7880821  -0.0147222  83.8015442  60.7839737  11.5820675  56.6112518
  59.9668465  11.1005812  56.4819908  61.2256966  11.1176996  57.3222160
  76.9514923   0.7227992  59.7456436  77.2296371  -0.1901085  59.8195839
  76.3452759   0.8483606  60.4756889  71.2864304   3.9966328  55.8414726
  70.9091721   4.5145645  55.1303787  72.2291946   4.0147080  55.6768684
   1.3944670   3.7701509  32.6564865   1.1201891   2.9166570  32.3209991
   1.2996066   4.3624554  31.9105587  79.0522766   7.8279362  76.3924484
  79.5764542   8.5265360  76.7841415  78.3392639   8.2848978  75.9463120
  24.1149101  16.9199162  15.5687094  24.2945251  16.0343819  15.8846216
  23.2427940  16.8626652  15.1783667   1.0131835  71.0926819  13.0217667
   1.9621220  71.2173920  13.0077562   0.8972255  70.1499252  13.1400642
  83.0167847  66.9110107   6.7770762  82.8103027  67.0599823   5.8543601
  82.2469788  66.4610596   7.1251616  77.4719620  14.3889952  31.1346397
  76.7078705  14.7741089  31.5636883  78.2011490  14.5850468  31.7229252
  79.2075119  13.0197754  43.6653519  79.4512711  12.7794895  42.7714386
  79.9387512  13.5524626  43.9780273   0.0482178  43.3419304  61.2866478
   0.6176555  42.8476715  60.6970024  -0.4756028  42.6741829  61.7293167
  77.4699631  14.2432814  49.3921928  78.2010498  13.6351824  49.5015488
  76.8883591  14.0534430  50.1283493  78.6702805  38.2497940  37.1809540
  78.6093521  39.1048965  36.7551384  78.1200638  38.3304482  37.9600525
  70.2532806  41.0951614  14.9731846  70.5663376  40.3909264  15.5408802
  69.5264206  40.7057571  14.4871111  55.3023033  60.8185158  36.0865746
  54.6544342  60.2778397  36.5384216  55.6360283  61.4079056  36.7629433
  55.6371002  52.3176384  54.9548988  55.8199844  51.5796700  55.5364342
  55.0971832  51.9451561  54.2577782  50.8002548  41.7910843  85.7313232
  49.9436989  42.0684090  85.4063187  50.7153473  41.8190269  86.6843414
  50.0940056   8.0934181  73.7325439  49.8470154   8.8872232  74.2069931
  50.8857994   8.3374500  73.2532272  38.8211823  70.9315796  70.2570343
  38.0618515  71.4560928  70.5110779  38.6970863  70.7676315  69.3221741
  86.0415649  23.2110138  85.2602234  86.5678329  23.1719456  86.0588226
  85.3028259  22.6268940  85.4313965  86.3406296  46.9723015  87.2752838
  86.0468674  46.8459854  86.3730774  86.6815796  46.1173630  87.5380783
  10.0421638   5.8099928  86.0943985  10.7592964   6.1221085  86.6462479
   9.5827093   6.6056666  85.8260040  21.8511467  16.4306965  22.9348850
  21.3684826  16.3038101  22.1180820  21.2701244  16.9655190  23.4758205
  80.0131836  60.5072670  18.7082062  80.2218018  60.7536240  17.8070831
  80.8401260  60.6039314  19.1804924  40.7678452  52.3847961  32.4333305
  40.6425819  51.5339508  32.0130844  41.4586487  52.2338867  33.0784988
  63.2129326  16.9176922  12.7591991  64.0172119  16.5042171  12.4455090
  62.7008629  16.1973000  13.1266880  85.4197617  48.4780731  71.2525024
  84.9922562  47.7157936  71.6428833  85.7250900  48.9908562  72.0008698
  58.1422920  14.2713003  12.1156216  58.7550888  14.4069500  11.3929110
  58.1233902  13.3222313  12.2386827  51.5756645  11.1842279  69.5214615
  50.8096161  10.7200556  69.1838989  51.4986801  12.0675125  69.1607437
  48.2073364   8.4813976  34.1894951  47.3224487   8.6736860  33.8792839
  48.0843925   7.8167424  34.8672485  79.4959793  70.1365128   6.1319919
  79.4477615  69.1837158   6.0540175  79.0395432  70.4636688   5.3568349
  62.7146912  32.7873039  19.2920094  61.8430405  32.4241905  19.1351509
  63.1578751  32.7201691  18.4462471  15.1086140  46.3912621  79.6898804
  14.2468662  46.0245972  79.8878174  15.7125483  45.8957291  80.2429962
  86.7450180  57.9105377  22.7574329  86.0266190  57.3417931  23.0342999
  87.0079193  58.3698387  23.5550289  18.0341854  28.0667381  72.9551849
  17.2753067  28.0981808  73.5377197  17.6690063  27.8486767  72.0976715
   9.3891497  63.3705444  55.2244835   9.0810146  63.5412712  56.1145020
  10.0780458  64.0194244  55.0809250  75.9483643  34.0107307   6.5587134
  76.7133484  34.0361824   7.1335020  75.2999496  33.5018425   7.0453582
  64.8088837  69.2897110  58.2240143  64.4117966  69.5957565  59.0394249
  65.3344040  70.0300980  57.9208832  14.7977924  26.1109257  24.5842762
  15.5224075  26.7254944  24.7003307  15.1871681  25.3649292  24.1280880
  67.0046082   6.6933236  75.9933853  66.6375427   7.3848124  76.5441437
  67.2284470   5.9926920  76.6059570  36.5228958  29.9978580   1.8706759
  35.8343391  29.8720036   2.5235760  36.9613953  29.1486206   1.8182818
  45.9131279  35.5580635  21.4986286  45.5586891  35.9622421  20.7066402
  46.5789986  34.9490623  21.1793098   3.6457717  24.9761677  10.4547548
   2.8827024  24.7048168  10.9649763   4.3591285  25.0130920  11.0919285
  15.1262369  10.1769848  68.2627640  15.3482389  10.4497271  67.3725052
  15.3818951   9.2553797  68.3016891  13.0603476   3.1960447  78.1294174
  12.2107286   2.8928611  78.4495087  13.5389881   3.4455130  78.9199219
   2.6295002  25.0149822  44.6880188   2.3469768  25.8826389  44.9771309
   2.3700948  24.9729786  43.7675972  14.3823881  19.4025993  34.8649139
  15.0372372  18.7141895  34.7487411  13.5734138  19.0242119  34.5205078
  56.5030899  51.0103188  65.2916260  57.3412857  51.3822098  65.0171051
  56.6407928  50.0634651  65.2645035  85.4513855  43.5518456   0.3037578
  85.9393005  42.7696800   0.5614147  86.1265182  44.2006416   0.1050355
  15.9599857  62.3995667  65.9231873  15.9921083  61.5897369  66.4324722
  16.3080788  62.1568832  65.0651855  44.2338715  18.6919670  23.7069340
  44.8158875  18.4231853  24.4177399  44.7163010  18.4778404  22.9084091
   6.5748515  48.2289047  78.8124542   7.0824661  47.8685532  78.0853271
   7.2310181  48.6030502  79.4004135  27.1735077   8.2631788  85.5007095
  27.9310074   7.7331448  85.2527313  26.4954643   7.6241088  85.7199707
  78.9521637  21.4483681  65.4634094  79.6538391  22.0760880  65.2906189
  79.2857132  20.9073067  66.1791153  24.4418201  18.3847256  34.1379356
  25.0202141  17.9072685  33.5431862  24.8723392  18.3241615  34.9907074
  41.6811409  66.4396820   9.4236841  41.4119339  67.1452103   8.8354769
  41.7199135  66.8498535  10.2876797  76.5648651  35.4203911  34.8234482
  76.5999756  34.7846107  35.5381432  76.3014755  34.9075203  34.0593643
  13.9231510  69.1510544  43.5698853  13.2854042  68.6917877  44.1163177
  14.7447815  69.0888901  44.0570107  57.7603912  30.1996059  18.3599491
  57.2020111  29.4717216  18.6331329  57.2969780  30.9821262  18.6585140
  65.1794739  40.0175552  63.6233940  64.8399048  39.2497253  63.1636581
  65.6508865  40.5099831  62.9514427  33.1350327  60.6614456  78.3285217
  33.4985542  59.8237648  78.0415039  33.5874596  61.3144302  77.7945328
  26.4902039  33.7956543  29.8747540  26.3465519  33.2779770  29.0825386
  26.7456970  33.1537590  30.5372677  83.4344254   7.9593000  12.8448210
  83.4350052   7.1289735  12.3685970  84.2591400   8.3776751  12.5977745
  41.7539444  71.3551331  74.6718826  41.5845604  71.1470261  73.7530594
  42.2825623  70.6231766  74.9897308  58.2218895  55.9482918  64.2926407
  58.7916145  55.1981544  64.4627533  57.3642921  55.5622025  64.1146164
  22.1138859  11.8441963  64.7808228  22.9261265  12.1343193  64.3656998
  21.4835491  11.7908115  64.0624466  55.0651703   2.5125499  86.2826538
  55.4679337   3.3773890  86.2047653  55.8036652   1.9132979  86.3910675
  54.3501968  59.2896271  88.5800095  54.2515640  58.3531036  88.4084625
  54.8715706  59.6140175  87.8457260  52.6779251  70.2042389  12.0996122
  52.2248344  70.3460541  12.9307728  52.6947479  71.0671616  11.6857157
  80.5530777  67.5036850  14.3987064  80.2499542  67.1821899  15.2478189
  80.2736969  66.8333282  13.7751617   4.1627116  36.5509071  47.3548584
   4.7431250  37.2920494  47.5282402   4.7350683  35.7845917  47.3922577
  71.5363770  42.8571167   5.1085348  72.0317612  42.0543823   4.9459252
  70.6725311  42.6855621   4.7336125  73.6574707  54.3328781  42.0849190
  73.9553299  55.2043037  41.8239059  72.8980103  54.1624908  41.5277634
  63.5020218  65.9267426  65.1589127  63.9607010  66.6977997  64.8252792
  63.7592621  65.2201233  64.5666656  53.2561531  17.8134842  71.4730072
  52.8791695  17.6064301  72.3281326  53.5199547  16.9654865  71.1158752
  48.1673279   6.8812108  36.4098930  47.7269630   6.1446805  35.9858246
  48.8427696   6.4756422  36.9535141  17.3607655  68.8098145  23.1013813
  16.7367344  69.5129318  22.9212646  17.2878265  68.6604996  24.0440445
  40.6045380  27.1098557  15.5409498  40.4540596  27.9348621  15.0794830
  40.9833984  26.5310287  14.8793936  83.3097305  27.5275612  36.1652031
  82.5933151  27.9387646  36.6488266  83.9505081  28.2283287  36.0445404
  86.1037903  49.2629662  63.9854546  86.4493027  48.7528954  64.7180405
  86.7110291  49.9976692  63.8976593  14.2811871  57.8249397  68.2483215
  15.1495504  57.5104904  67.9967270  14.3829412  58.1079445  69.1570511
  20.0142899  16.5889015  33.8656693  20.0986385  16.6892014  34.8138542
  20.7838268  16.0807076  33.6091805  35.0415039  46.2301979   0.4231293
  35.4287872  47.0134697   0.0323190  34.8995285  45.6388779  -0.3160699
  74.1668396  50.0867653   4.4947920  74.8557816  50.6867142   4.2090564
  74.2614746  50.0492516   5.4465632  28.8896179  10.7653141  53.4914131
  28.9333630   9.8685760  53.1594849  28.2883739  10.7165442  54.2346230
  25.7396584  26.3536072  23.5907173  26.5506096  26.3991013  24.0971966
  25.9924316  25.9277363  22.7715874  81.3597260  60.9628677  39.9449463
  81.2159271  61.2317314  40.8522873  81.5963516  61.7712479  39.4902382
  28.5089397  12.5666676  64.4173813  29.1877308  12.3475943  63.7790413
  28.1481972  13.3974848  64.1078033  28.2880478   8.0355825  74.2375412
  28.4630318   7.1800780  73.8454666  28.3268127   7.8790779  75.1810684
  36.2078705   1.8831716  85.0118027  35.6849670   2.6836948  85.0561295
  35.9714088   1.4888066  84.1722870  61.2636452  52.3634300  41.6317177
  61.1660233  52.0291328  42.5233154  60.4463463  52.8313484  41.4605370
  47.1757927  68.0405579   9.1071434  46.3869400  68.0762711   8.5661545
  47.8201637  68.5593033   8.6255674  82.2492599  28.2457333  54.7855148
  82.8904114  28.7585773  54.2934341  81.8239059  28.8820286  55.3603516
  52.0977974  52.3266487  19.8276691  51.7414131  51.6568298  20.4112473
  51.8316612  52.0473061  18.9516716  26.4371281  53.5004120  86.6534500
  27.3370152  53.5719223  86.3351440  26.1261921  52.6641312  86.3067703
  25.8432083  28.8260975  83.6792526  25.2181168  29.4773483  83.3608780
  26.2061520  29.2121468  84.4764175  77.0515594  32.5466080   4.4484568
  76.3170013  32.6293488   3.8403375  76.6958160  32.8235283   5.2928457
  79.6536636  61.2855568  60.1346588  79.1570587  61.1135292  59.3346443
  79.7062607  62.2400703  60.1833344   1.7390132  32.3779984  49.1844864
   1.2103974  33.1159401  48.8807755   1.3506947  32.1350746  50.0249786
   0.0731154  29.5221329  14.5998621  -0.7299506  29.7095490  15.0858574
   0.7677886  29.5729198  15.2564297  45.6593513  62.2298775   5.1088305
  45.1730423  62.8796425   4.6013470  45.2388611  62.2339287   5.9687176
   5.2774282  21.4358864  39.8525429   4.8722758  21.2743397  40.7045898
   6.1262555  20.9964561  39.9037781  83.6098557  14.4771872  40.6217995
  84.4413147  14.3542604  40.1637650  83.5725784  13.7546930  41.2485733
  76.9243393  52.2579117   0.7395275  77.2383881  53.1565208   0.6390061
  76.2034302  52.1847649   0.1140894   5.9229522  53.2922592  51.3155518
   5.7021494  52.6110497  51.9507141   6.2288294  52.8121529  50.5460281
  71.8543854  16.7514076   9.1403885  71.0095139  16.9850292   9.5248871
  72.3769684  16.4421520   9.8803225  32.8609924  69.2517090   2.4931407
  32.9987946  68.6094131   1.7969359  33.6486435  69.7953720   2.4767756
  86.6179504  46.0421295   2.3769403  86.8496857  46.0682907   3.3052983
  85.6699524  45.9099083   2.3703463  79.2318802  32.8350067  35.5905190
  79.2322464  33.6608391  36.0744934  80.0515366  32.8466721  35.0962906
  67.7197876   8.2056274  85.2762756  67.8804474   7.2665777  85.3690414
  66.7661285   8.2841911  85.2518082   2.7432377  45.2962799  29.1293316
   2.6991503  44.6766510  29.8575821   1.8902668  45.7306328  29.1324501
  23.3825970  71.5005493  11.8451891  22.4552765  71.5419312  12.0788441
  23.4176693  71.8257141  10.9455957  29.2570171   8.8324471  55.9720001
  29.5545425   9.7277584  55.8103600  29.9446201   8.2805929  55.5993195
  56.7604179  54.6723595  23.4267998  57.1749458  55.1639977  22.7177944
  55.8585129  54.9924812  23.4448261  20.7403278  15.9041815  29.8496399
  21.5714951  16.0961628  30.2838478  20.6162167  14.9633999  29.9751759
  68.7682877   8.3016386  58.5106544  68.3005829   7.5155640  58.2285690
  69.3446732   8.5138092  57.7764931  13.4495029   9.5435867  86.5721588
  13.6476374   9.8310699  87.4634094  14.2837534   9.2174759  86.2346497
  25.1464310  57.0979042  75.5010681  24.8573341  56.3749008  76.0577774
  26.0965462  57.1225586  75.6146622  11.9420528   7.1978726   6.0405087
  11.6310749   6.6115580   5.3507552  11.3885593   7.9748592   5.9619684
  26.6649132  63.9355087  61.1226501  26.5103035  64.4488373  60.3296661
  26.6519299  63.0257378  60.8253593  62.8761215  35.1911392  82.1458664
  62.8020592  34.4860001  82.7889252  63.2083740  35.9369659  82.6454544
  80.7188568  20.1281872  38.6928711  79.8616180  20.5385895  38.5791016
  81.1387482  20.6385593  39.3852921  64.4948425  13.6843376  35.4414673
  65.0998459  14.4260864  35.4445724  65.0159683  12.9488535  35.7635269
  84.6931839   3.1275799  20.7237892  85.2851639   3.5276554  20.0868168
  84.3134766   3.8684657  21.1961689  63.0480957  59.8309059  24.5217228
  63.9517746  59.5153275  24.5237904  63.1245003  60.7769852  24.6455135
  15.2243366   6.7911487  65.1599884  16.1649818   6.6142707  65.1714554
  14.9245872   6.4388919  64.3219528  40.2386208  18.7722454  26.3576870
  40.0307236  18.6493053  25.4314594  40.6910744  19.6150703  26.3917828
   4.1684895  42.8477364  77.1599274   4.9455900  42.2898788  77.1261520
   4.1743903  43.3174210  76.3259048  22.0684338  32.3420029  78.3555832
  22.0955315  31.8199997  77.5537033  21.2631035  32.0665932  78.7935638
  28.0734844  50.6367073  78.6767807  27.3020592  50.1493721  78.9659805
  28.6786613  50.5883408  79.4168167  26.6890850   7.3554502   2.6954355
  26.6146049   8.0094709   2.0004954  27.5487118   6.9573026   2.5585017
  48.0964127  40.4671364   2.6455159  48.8469124  40.4748459   3.2395883
  48.3911057  39.9527512   1.8939883   0.0997836  18.8898411  61.4244690
  -0.4882306  19.4113445  61.9708252   0.4811434  18.2501926  62.0258408
  48.0199203  57.5766563  36.0800018  47.7287254  58.1602478  36.7806168
  48.0208549  56.7062225  36.4782143   9.7912493  46.9041023  31.9052143
   9.5482998  47.8285217  31.9567509   9.4041519  46.6001320  31.0842457
  24.2703724  34.5508041  81.2775879  23.9540634  35.3334808  80.8263702
  24.4804688  34.8523331  82.1614227  58.1101608  48.2154236  22.3325272
  58.8543930  48.6372681  22.7619419  57.4684029  48.0921936  23.0319519
  21.2075386  25.0050125  32.9937210  21.4067917  25.7212715  32.3908081
  21.0334358  25.4371910  33.8298683  32.4454308  71.1583481  51.3643494
  32.6427231  71.8655930  51.9784470  31.8429661  71.5508652  50.7325287
  60.8153572  43.1385345  64.6482315  61.3721504  42.8117218  65.3549194
  60.1883392  42.4325142  64.4913330  30.4984226  37.3203506  79.9464493
  30.3512726  38.2577095  80.0726929  31.3179626  37.1422882  80.4078445
   4.8292470  12.2120714  41.4876137   5.1742225  11.8179512  40.6864319
   4.3104987  12.9570026  41.1839523  56.4863663  57.5843239  81.2803955
  55.5683060  57.8281174  81.1622314  56.5328674  56.6753654  80.9839706
  40.8082809  56.8740234  32.6021118  41.0119514  57.3008347  31.7698956
  40.9030991  57.5666046  33.2560005  45.4409599  32.5073624  14.8623009
  45.5042877  32.4969902  15.8173475  44.5103264  32.6447639  14.6854515
  41.3422890  46.6609612  38.7031059  41.5283699  46.5553665  39.6360893
  42.2027435  46.7694283  38.2980347  59.1428757  53.8860397  40.3912163
  59.4783859  54.7494812  40.1501007  58.8145828  53.5188904  39.5704460
   2.0276017  55.8052254  33.4398575   1.3373281  55.5889091  32.8129921
   1.7144283  56.5969734  33.8772202  67.8216476  61.4244881  67.1940002
  67.2394638  62.0372925  67.6431808  67.9347534  60.7036819  67.8135757
  80.3456421  44.6039734  26.8406487  80.1745834  45.4268761  27.2986927
  79.6714706  44.0058022  27.1629963  34.9870186  62.8131332  23.1389847
  35.3045273  63.6043510  22.7037907  35.4739151  62.1004143  22.7252312
  40.0924950  20.9148350  21.4598522  40.7738190  20.8969345  22.1319447
  39.4683495  20.2427006  21.7335548   5.0469079  14.9774866  39.6204224
   4.4416981  15.7146358  39.5394058   5.5129061  14.9572048  38.7845573
  31.3833618  50.9938393  16.7361965  32.2857742  50.7391624  16.5437794
  30.9823189  51.1224327  15.8766270  46.3800430  50.4467049  77.0536118
  47.2066841  50.9191666  77.1519623  45.7315254  51.1307831  76.8871841
  25.7359886  52.7137527  17.2139606  25.2021523  53.4319763  16.8742504
  25.1575642  51.9515877  17.1864090  55.2482796  57.4469147  50.5380707
  55.6531105  57.9205208  51.2647362  54.9019394  58.1334763  49.9680557
  67.0199738  15.6980171  55.4881783  67.4038162  15.0658703  56.0958633
  66.2219543  15.9958897  55.9248352  49.0112762  61.0648155   1.9446684
  48.7527618  60.5821075   2.7297769  49.2817993  60.3871803   1.3251046
  17.9238014  66.7517700  50.4800453  18.7010517  66.5389252  50.9965858
  17.8307896  67.7004623  50.5670815   2.5322695   4.5960050  17.9853096
   2.3718441   5.0588341  17.1629448   3.4799368   4.4625716  18.0041256
  41.4397736   0.7610759  16.2355728  40.6842842   0.4632810  16.7423115
  42.1921883   0.3559852  16.6668549  52.5065575   0.4358628  71.8732986
  52.0912895  -0.3133103  72.3005219  51.8349190   0.7775986  71.2830887
  42.6561165   5.5457854  68.6336288  42.6000748   5.4956717  69.5878754
  42.1479912   6.3239202  68.4043961  19.6927986  71.0548248  59.5829163
  19.8593769  70.1861649  59.2169800  18.7459049  71.0790482  59.7208900
  79.5663681  50.8826981  82.4928436  80.4720612  50.9349174  82.7981720
  79.6344452  50.8938217  81.5381317  38.3080139  62.5915985  78.5584717
  39.1682396  62.2169685  78.7479248  37.6874733  61.9126244  78.8233337
  67.5533829  69.8993073  46.8911133  66.7700043  69.3494415  46.8768501
  67.2182541  70.7948380  46.8470001  44.2084541  42.4359932  26.7960453
  45.1333580  42.6814079  26.8195171  43.8968315  42.5909615  27.6877346
  36.4997253   9.4343719  71.4702530  35.6983566   9.8935308  71.7216797
  37.0848083   9.5459061  72.2195663  22.5495319   2.3779354  75.9965210
  21.8112869   2.7237847  76.4981384  23.2906971   2.9274154  76.2514267
  84.8146133  65.3563232  79.1928558  85.0861053  64.4749985  79.4493713
  84.2139664  65.6328659  79.8849335  76.6373520  30.5773697  18.0098114
  77.4628448  30.2300510  18.3477020  75.9680786  30.2058792  18.5845280
  50.2949562  20.7323341   9.1873875  50.1173248  20.1239281   8.4700871
  49.7657051  21.5035267   8.9839497  41.4944572   9.4176292  85.8075943
  42.0241661   9.8209906  85.1198883  42.1205559   8.9141378  86.3279114
   7.3742509  42.7410393  85.9164581   6.6180425  43.0896225  85.4443665
   7.2193627  41.7971725  85.9532547  38.2949905  55.7522850  21.1624317
  39.0937729  55.8172913  20.6390305  38.4831505  56.2614326  21.9508457
  62.0836716   0.4780108  62.9167099  61.9620285   1.4163438  62.7719116
  63.0191803   0.3825365  63.0954132  24.7384834  40.9367905  76.2079163
  24.2807312  40.4918518  76.9211655  24.5103455  41.8600960  76.3160477
   4.8085866  59.7336731  17.0756798   5.5656862  59.8111916  17.6562157
   4.2836699  59.0310745  17.4591503  79.2784348  52.0410461  52.4120750
  80.1057129  52.0372238  52.8935699  79.5340729  51.9340134  51.4958725
  24.4597569  54.9397926  16.5333252  24.9440269  55.4919701  17.1471729
  23.5692062  55.2904587  16.5469685   1.9524802  31.9343262  39.9135246
   1.8903034  32.5521736  39.1850815   1.0579515  31.6158676  40.0344963
  28.3707409   3.1362228  52.0105515  28.6982384   3.8501592  52.5576096
  28.2556286   3.5304315  51.1459236  24.9340553  11.3213825  79.9671326
  24.6929607  11.6261768  79.0923691  25.8906364  11.3543491  79.9770584
   3.0303214  25.7879772  14.2693472   2.4282577  26.5307598  14.3143759
   2.6548569  25.1389236  14.8643150  33.5035324  36.5651474  85.9904480
  34.2637253  36.0625267  85.6976852  33.3341827  37.1806107  85.2771759
  38.2642860  69.8043365  82.2903442  37.7039795  70.2237778  82.9432983
  38.6777191  70.5323563  81.8263474  45.5454750  66.5240326  70.0556259
  45.2369957  66.2681274  70.9248734  44.9426918  67.2152023  69.7814484
  16.7695980  52.1750755  41.1294022  16.5665817  52.8054466  41.8205261
  17.2402954  52.6854324  40.4704552  43.9602928  18.0089264  48.5858192
  43.3208580  18.5143242  49.0877419  44.8099098  18.3254051  48.8927765
   2.5683753  59.9192047  84.0068741   1.6445256  59.6757240  83.9481354
   2.8951361  59.4376297  84.7668381   0.8221386  39.3441391  29.9184895
   0.2120629  39.5930023  30.6128273   1.5639383  39.9393234  30.0267563
  61.4456711  48.8593750  62.8614273  62.0327148  48.1419754  63.1000633
  62.0307770  49.5787086  62.6238480  15.4303675   6.1178765  39.8952103
  15.4917574   6.1207385  40.8504333  14.9796038   5.2996244  39.6866226
  84.3180008  47.3376579  11.1957388  84.5105286  46.6661110  10.5413799
  84.7380066  48.1286621  10.8578949  62.3319016  15.2670679  50.5319901
  62.6656189  15.1852102  51.4253922  61.7865982  14.4902315  50.4078865
  85.1488037   5.3763957  60.7178841  84.8104172   6.1860509  60.3355408
  85.5744095   4.9264669  59.9880486  34.0028763  14.9080515  17.3824654
  34.2848053  14.5105600  18.2063274  33.7685585  15.8058634  17.6175442
  20.9173203  18.4404488  79.9463272  21.2854710  17.6035366  80.2296524
  20.3875542  18.2218037  79.1796646  24.6364155  21.9817924  83.2124176
  24.8795242  21.1709843  82.7655182  23.8621578  22.2914391  82.7424469
  63.1990318  12.8896198   1.2050860  63.8654861  13.1124544   0.5551512
  63.6970863  12.5942297   1.9672663  26.0952702  16.9257889  87.1593628
  26.2909679  17.8023758  86.8284073  26.3871288  16.9432106  88.0708160
  22.8889084  58.4440727  27.3738289  21.9719257  58.2636032  27.5807228
  22.9237556  58.4407539  26.4172707  46.7343102  43.2702255  26.9792919
  47.5363617  42.7486954  26.9484177  46.9275208  44.0387383  26.4423656
  52.5381584  68.0397797  49.8326530  53.3496170  68.2207794  50.3070030
  52.0143890  68.8333969  49.9425125  62.9494629  34.1910248  39.3089752
  63.3824539  33.3378792  39.3388367  62.2428207  34.1235886  39.9511108
  33.0485153  29.7830067   1.6556361  33.5475159  29.0649643   1.2662194
  33.5250320  30.5725479   1.3991473  43.4284630  53.8047447  86.2348328
  42.8482285  54.5125809  86.5150604  44.3042488  54.1002693  86.4836197
  80.5846176  62.1162109  82.3619308  81.4056778  62.1917801  82.8481216
  80.2440948  63.0100899  82.3264999  69.2936707  28.3786736  87.4205856
  70.1695175  28.0482502  87.2207184  68.9742584  28.7288780  86.5889816
   6.0711703  58.0818825  14.8683100   5.3227415  58.5568657  15.2295227
   6.6152973  58.7604675  14.4687138  16.0454845  42.3695755  15.5065384
  15.4939823  41.6029587  15.6626587  16.8291607  42.0187035  15.0834866
   0.6266940  20.6901302  49.1672707  -0.1276384  20.5781574  49.7457809
   1.1045465  19.8634338  49.2340469  60.5605431  50.2325935  55.5363922
  59.9646606  49.6610680  55.0521278  60.5080109  49.9224854  56.4404411
  27.9812984  27.3548794  21.3748779  28.6100254  28.0707874  21.2831745
  28.4895954  26.6364746  21.7513924  23.8613281   3.5887671  46.7045403
  24.5544262   3.1340463  46.2259178  24.2569466   3.8080318  47.5481262
  36.6904716  21.0556622  77.7313461  37.3812675  20.9844398  77.0725861
  36.0776825  21.6947746  77.3676682  50.9707489  60.0446014  26.1446552
  50.6192436  59.4066315  26.7656803  51.5111389  59.5260048  25.5486107
  85.3151093  13.0088329  70.2003860  84.7056885  13.7354403  70.3302765
  86.1399155  13.4287424  69.9562378  34.8914871  38.7169380   1.6136094
  34.6259041  38.8849220   0.7094645  35.5487785  39.3877068   1.7987295
  72.2576523   8.7182856  64.5221024  71.3071060   8.6919270  64.6315765
  72.5549164   9.3629589  65.1641769  14.1876040  21.0631065  55.3397980
  13.3775167  20.7549686  55.7460518  14.5686045  20.2804832  54.9415894
  80.1975708  32.2345467  44.1152077  80.6920547  32.9756432  43.7652130
  80.7565918  31.8783054  44.8057289  49.2600594  32.8276901  11.5255699
  49.4705276  32.0816803  12.0871735  50.0689926  33.0006790  11.0439730
  64.8461609   3.2897582  31.1733894  65.6453323   2.9459300  31.5725746
  64.9401855   4.2406535  31.2298603  31.4922390  31.6298847  27.0636597
  31.0192089  31.6092110  26.2317677  32.1199303  32.3457146  26.9645424
  74.0611115  42.0932121  30.9907131  74.1088791  41.1791000  31.2706203
  74.5502014  42.1177292  30.1682625  11.1631632   2.3970058  63.6570892
  10.6868420   2.6322081  64.4533463  10.5097027   2.4578516  62.9602966
  53.5008430  23.3889656  31.0012722  54.3303452  22.9174862  31.0778427
  53.2269974  23.2462883  30.0952454  12.7411003  20.5406570  70.1998978
  12.4012957  19.6671562  70.0055771  12.0887527  20.9268875  70.7842789
  45.3158340  71.4557571  63.6635818  45.9890060  70.8089218  63.8749504
  44.5296555  71.1368332  64.1067963  12.2657661  37.6289711  51.5311966
  12.0097065  37.6672974  50.6096802  11.8759804  36.8167114  51.8545113
  30.7576942  67.1113052   8.2315445  31.3062820  66.5618896   8.7913904
  30.1742344  66.4949570   7.7889066  75.9963226  40.7529526  40.1607590
  75.9254990  41.6078987  39.7361603  76.6420670  40.8831825  40.8552246
  77.0557327   8.2594500  13.3660078  77.3654938   8.9766769  13.9190578
  77.6585770   7.5386925  13.5485363  34.0951729  14.6316357  53.9516716
  34.5389824  15.2838926  54.4937286  33.5530090  15.1460552  53.3536224
  72.1721268  69.9865189  74.3205185  72.2434616  69.1261444  74.7339096
  72.8158951  69.9661407  73.6124344  34.4324799  27.4321671   0.5294451
  34.0552368  26.5794849   0.7459040  35.3237419  27.3948441   0.8765641
  65.4776230  46.2778053  28.7037239  64.9474945  45.6063538  29.1330776
  64.8389816  46.8928871  28.3431091  25.4611950  54.7458076  56.2082176
  24.9462547  55.3162460  56.7788925  26.2392006  55.2606010  55.9939194
  48.2441673   7.5283637  64.0355148  48.5572243   8.3305283  63.6174698
  47.8081970   7.8283672  64.8331070  30.4154320  65.4789124  75.0802078
  29.7050190  64.8711853  75.2856598  30.9013786  65.0499802  74.3758621
  77.5366898   2.1676705  11.9725189  76.8043747   2.5480375  12.4575567
  77.1550446   1.4231244  11.5075130   1.3142319  69.9377060  88.9390335
   0.7382113  69.3694000  89.4503632   1.5011234  69.4371262  88.1448517
  80.9106293  34.8964615  27.6064892  80.2137909  35.5492630  27.5394382
  81.7124329  35.3809814  27.4100552  55.7144051  31.0968266  25.0318584
  56.1949272  31.5811882  24.3604984  56.3203430  30.4109001  25.3121719
  58.9853096  29.5856743  15.8706264  58.4146118  29.8217812  16.6019211
  58.5651855  29.9748268  15.1036263  44.4438133  51.8581047  28.6746311
  43.5261040  51.7110405  28.9035854  44.9073868  51.8271141  29.5115128
  18.9657612  66.0818100  35.0850372  19.8228188  65.8904190  34.7041779
  18.7435818  66.9506531  34.7503929  77.1140976  56.9310684  17.4966984
  76.7561188  57.6718864  17.9858551  76.9112167  57.1274681  16.5820961
  10.3630667  36.0837593  38.3230934  10.0166321  36.9305191  38.0416412
  10.0938787  35.4744072  37.6357384  65.1044846  62.2123680  86.8780518
  65.9864044  61.8406258  86.8623123  64.7429276  62.0078506  86.0156860
   5.9781942  64.0355377  83.1397552   5.8358097  64.5614166  83.9267807
   5.3194766  63.3430099  83.1920166  58.6808434  59.9462318  13.3738747
  58.7997856  59.6370583  12.4758244  59.5113068  59.7489815  13.8070621
  63.8141899  15.9920092  67.5961456  64.4659271  15.9278679  66.8980331
  64.2688522  16.4429893  68.3075714   6.9331007  36.0501442  26.4456463
   7.4215965  35.3291359  26.0484638   6.8046408  36.6744652  25.7315369
   4.3873773  31.9722233  50.0067978   4.9052291  31.4646835  49.3819275
   3.5249231  32.0468369  49.5983429   2.1073904  37.3824959   5.8495488
   2.4764500  38.1968498   5.5077081   1.5396525  37.0637398   5.1479087
  51.3087578   8.1293993  15.9160538  51.8206177   8.9343920  15.9949026
  50.8727150   8.0388708  16.7633457  46.1455345  30.3638878  42.6348877
  46.1181564  30.6578941  41.7243690  46.9508286  30.7445335  42.9853783
  21.6344643  22.3651905  32.3174438  21.5781860  23.3181629  32.3874969
  20.7710133  22.0967064  32.0034332  67.0942612   0.4972460  41.0708656
  68.0361481   0.6674002  41.0821114  66.8612671   0.3787282  41.9916801
  29.3138313   7.7728167  83.7959213  29.8078003   8.5055227  83.4279938
  28.9233742   7.3414826  83.0358353  22.2543182   4.9870467  83.5905075
  21.8867054   5.8639898  83.7003403  21.5945778   4.5123816  83.0848694
   9.7255030  53.1719742  11.9796438   9.1067295  53.5968323  12.5736532
   9.2596283  53.1207352  11.1450377   9.1059179  31.8158131  80.6165009
   9.8793201  32.3286705  80.8511429   9.3946171  31.2670517  79.8872910
  85.8182602   9.3006725  44.7984848  85.3135757   8.7072268  45.3546791
  86.7165222   9.2247477  45.1203461  47.7852097  54.8485680  82.2768936
  47.3692894  54.1701050  81.7449875  48.0500526  55.5183754  81.6464615
  29.2237568  36.3381653  81.9986115  29.8940563  36.5842171  82.6361008
  29.5308437  36.7109566  81.1721954  33.5705147  49.3099442  68.5400848
  33.1395569  48.7804070  69.2109756  34.0570869  48.6773376  68.0116043
  61.8739662  12.3981915  67.8110962  61.5586014  11.7463360  67.1851120
  61.7687531  13.2351828  67.3587570  29.9021931  12.3778515  13.0297546
  29.8106709  11.4405088  12.8587446  29.4665833  12.8000526  12.2893343
  61.0632095  29.3092175  82.6646881  61.9312134  29.0321693  82.3713531
  60.7439003  29.8780270  81.9641724  66.2847519  19.6407299  86.4083023
  65.8161774  20.3975201  86.0562592  66.8018265  19.3151970  85.6714859
  43.5733452  54.1632080  77.9016953  44.0694275  54.7764320  78.4440002
  42.9976768  54.7193031  77.3767242  31.0747585  68.4235840  26.8585167
  30.1179962  68.4411469  26.8354836  31.3421230  69.0365753  26.1736889
  55.8004150  58.9347382  86.1668243  56.5024185  58.3065681  86.3365936
  55.9278603  59.1956253  85.2547226  69.0401077  41.6936417  29.1858120
  68.6796951  41.9917030  30.0209732  68.8278427  40.7608643  29.1525974
  30.1798210   2.6817493  56.1724968  30.3311977   2.2369804  55.3385315
  29.2319317   2.6384385  56.2984428  21.2422886  59.9346848  36.1155396
  21.0103550  59.8041382  37.0349960  20.4018040  60.0328255  35.6681175
  47.8510895  32.3205528   0.2006251  47.6975441  31.9159813  -0.6531761
  48.1928368  31.6105747   0.7441050  19.1668148  49.7681580  20.2340279
  19.3041973  50.5516930  19.7016430  18.2201786  49.7352753  20.3719845
  42.6743202  64.1709671  82.9712830  42.6609497  65.0994110  83.2037582
  42.8569717  63.7202339  83.7957306  40.5118866   6.9488554  84.8445587
  39.8306580   7.1367898  85.4901886  41.1169701   7.6873894  84.9129257
  30.9315395   5.9449759  32.2672539  30.1569195   6.3706737  31.8998604
  31.2173004   5.3375258  31.5849209  78.9973984  62.4815903  21.8390427
  79.5120621  61.6846428  21.9663963  78.2732925  62.2113953  21.2743340
  19.2363014  68.1717911  82.3948746  19.2231884  68.7704468  81.6481018
  20.1213284  68.2519379  82.7505875   9.9704847  61.2500191  78.1865005
   9.3466139  61.6253090  77.5650711  10.1223593  60.3609390  77.8660278
  10.8941154  35.2700691  51.9144249  10.3085155  34.9502373  51.2281227
  11.4415102  34.5158386  52.1328926  75.0593338  68.8452148   8.9316149
  75.4782639  69.1157379   8.1145811  75.7609634  68.4327087   9.4353886
  35.8958054  35.6475258  85.1222229  36.2663727  34.7940483  85.3469238
  36.6429024  36.1585541  84.8108902  10.8836603  12.2330418  81.4533157
  11.5474567  12.0249157  80.7958221  11.2466326  12.9777975  81.9327087
  12.0651846  38.7655602  87.9357529  11.7826872  39.6133041  88.2789078
  11.2508650  38.2887878  87.7751160  18.5509968  16.5939159  41.8664780
  18.9199390  17.3844719  42.2603493  17.6075821  16.7544613  41.8458748
  80.1966095  59.4491272  34.1385231  80.7052231  60.0710831  34.6588287
  79.3628006  59.8926697  33.9827766  63.3510017  28.2149677  69.0443497
  64.1839828  28.6560631  69.2111053  63.4407501  27.8600998  68.1598969
  32.7129517  67.3311996  24.2917480  33.2041130  66.5168381  24.4003925
  33.3851891  68.0095444  24.2271137  73.4837265  41.3393211  22.7370167
  73.8343582  40.4761314  22.5174923  74.2439346  41.8372765  23.0376034
  41.5062218  24.0772171  11.2289696  42.0246849  23.3040905  11.4519110
  41.4347382  24.0506725  10.2748117  51.0583954  23.2302608   6.8891521
  51.0282860  24.1865234   6.8593974  51.7197990  22.9911346   6.2398481
   5.0563478  14.5491400  74.4007111   4.9827852  15.2452211  75.0536270
   5.8422098  14.7712030  73.9013748  15.7629805  35.9128189  72.1712189
  15.6875801  36.8667221  72.1960907  15.6973820  35.6915131  71.2422714
  28.7550278  51.9569740  43.9389954  28.3627625  52.5826988  43.3300400
  28.0873890  51.8275986  44.6126099  20.6480331  65.7366943  20.3493214
  20.5288486  66.6566544  20.1133003  19.8345604  65.4958115  20.7925701
  16.8948269   2.3409686  28.8146763  17.6158562   1.9848731  28.2954998
  16.3568211   2.8173466  28.1823425  32.7577515  37.2006073  34.0817947
  32.2546005  36.6142731  34.6468468  33.2574501  37.7472191  34.6882172
  19.9644985  34.4580688  79.7805099  19.7563744  33.5253487  79.8347702
  20.1208649  34.6148033  78.8492661  60.2931366  40.0795937  37.1900101
  59.8292656  40.9159431  37.2296677  59.6206093  39.4440842  36.9449234
  67.9214935  70.7604752   2.8155527  68.1473770  70.2205505   3.5729747
  68.4882584  71.5281372   2.8910718  62.8701515  37.3592720  19.1229992
  63.6240921  37.6615524  19.6293907  62.7239494  38.0493774  18.4759941
  86.1064682   0.9046394  24.1479931  85.4966202   0.1980719  24.3603153
  86.3271408   0.7620512  23.2275581   6.6722231  32.3217392  22.9678783
   6.5037847  32.8013229  23.7789631   6.4366312  31.4166031  23.1714897
   3.4908676  64.0909805  87.7959900   2.6950076  64.6211700  87.7542877
   4.1823449  64.7140884  88.0192032  26.4225197   8.1492510  14.6974669
  26.2003613   7.4493270  14.0834770  25.6142159   8.6539040  14.7880440
  61.9250946   3.4690306  24.1611576  62.3841248   4.2848396  23.9612141
  61.4965858   3.6349168  25.0008564   0.6365191  21.4539661  29.1885147
   0.7428070  22.0265713  29.9481583  -0.2296156  21.6714821  28.8439426
  54.2399368  30.4138069  64.9414673  54.0016136  30.7850266  64.0919800
  53.5625267  30.7296925  65.5394287  63.0042953  13.8670006  31.3458881
  62.9599075  14.4192896  30.5653515  63.9390678  13.8043461  31.5421162
  78.3441849  55.1976891  67.8462906  78.9964066  54.6708145  67.3845062
  77.8511047  55.6323128  67.1504440  61.3321457  65.8775940  43.6677704
  60.5883102  65.7266769  43.0845375  60.9370461  66.0198059  44.5279503
  19.7404537   0.5537914  44.9788246  19.7670898  -0.1745241  45.5993729
  20.4503613   1.1321453  45.2576981  85.8178940  20.6278172  18.0382004
  85.3799133  19.7810764  17.9519711  85.9028015  20.7584763  18.9826317
  32.5935249  66.3219604  63.7515526  32.6334534  65.6133728  64.3938446
  32.8493195  67.1036911  64.2411346  59.4926682  23.6985931  18.9646950
  59.1731682  22.8176384  18.7695789  58.8217239  24.2810421  18.6085815
  68.2015533  67.6829910  38.0725288  68.3155518  66.8152847  37.6848259
  68.4928055  67.5806351  38.9785805  21.0898972  62.4296913   6.1817837
  20.7018414  63.2713661   6.4210105  21.0075607  62.3901634   5.2289510
   9.1837568  52.2832756  40.6213760   9.2241497  52.3963661  39.6717377
   9.3533831  51.3513336  40.7590218  47.4051170   9.8227577   6.4167056
  46.6347885   9.3304405   6.7003398  47.6732941  10.3156061   7.1922150
  64.4367599  23.0061455  39.0099907  65.0024109  22.4273224  38.4988823
  63.7858238  22.4222794  39.3993721  70.5360260  32.6230774  82.2456589
  70.5387115  33.5266190  82.5616226  70.2352905  32.6872215  81.3391953
  77.6034622  57.9096413  11.1418905  76.6740723  58.0201607  11.3425503
  77.9154739  57.2796402  11.7914906   6.8128471   4.3559585  57.4480591
   6.3936448   4.2079868  58.2957649   6.5002480   5.2180095  57.1735039
  71.7714767   9.9642696   3.4292781  72.2087631   9.2695494   2.9369595
  72.2008362  10.7694302   3.1401393  31.0465736   9.1640120  75.6989212
  30.2932148   9.4111176  76.2352295  30.8446426   9.5085802  74.8290253
  51.6948662  67.0188599  72.7397614  51.1416893  66.2733688  72.5063705
  51.1651535  67.5271683  73.3539734  28.3296833  48.6397324  28.8934994
  28.6796932  48.9705772  28.0662956  27.6273384  49.2502289  29.1176434
  40.0283699  19.5138111  35.5142059  39.9185867  18.6108112  35.8121490
  40.1944656  19.4374905  34.5746231  16.4501877  57.1778374  16.6627655
  16.8298130  57.2117081  17.5408154  16.6842537  56.3098984  16.3339462
   3.7300205  39.0419922  54.6553917   3.0510781  39.7058945  54.7758064
   4.5531464  39.5242653  54.7335320  22.4254112  52.1392937  47.7404480
  23.3074074  51.7902412  47.6120872  22.5615501  52.9780540  48.1811028
  29.9632587  26.9291668  24.1823521  29.4162407  27.7139244  24.1482773
  30.7003994  27.1257496  23.6042423  65.6326370  30.9021816  61.3682861
  64.9087143  30.8052387  61.9869690  65.2554016  30.6695423  60.5198708
  17.0051022  28.2289028  69.3110123  16.1616478  28.0515747  69.7273941
  17.5151978  27.4316978  69.4541855  36.0979500  70.2771378  71.3386993
  35.2142334  70.3928070  71.6878357  36.6291199  70.0497665  72.1018448
  -0.1969886  27.0452576  72.0859146   0.6770589  26.6867352  72.2399673
  -0.0379939  27.9034901  71.6929855  41.7451057   0.5371664  66.5886078
  41.9753304   0.9735829  65.7683868  42.4328346  -0.1168525  66.7131729
  10.3157654  11.4665842  64.6845856  10.4190331  10.6919813  64.1318130
   9.6390142  11.9839029  64.2479858  57.3187218  21.0199184  72.3251953
  56.8525734  21.0585232  71.4900665  56.6564636  21.2420845  72.9796371
  47.2631111  60.7203064  81.1772614  47.5587730  59.8126640  81.1065292
  46.9369392  60.9347572  80.3032761  86.2982559  69.6576843  73.6039810
  86.2012787  70.2919769  72.8936996  86.6830292  68.8872147  73.1861801
  37.0388222  16.8062897  28.7803173  36.3453178  17.1956673  28.2477093
  37.7155838  16.5602512  28.1496887  84.8876038  66.7136078  17.8831425
  83.9876175  67.0306396  17.9589443  84.8458252  65.8024521  18.1734524
  20.8214550  27.1663456  18.6237202  21.5293789  26.6106243  18.2977600
  20.9545727  28.0062256  18.1842728  79.4222870  67.5629959  70.2991562
  79.7028122  67.8038712  71.1820526  79.3947220  68.3923264  69.8219910
  82.2550583   9.0702629   3.3108284  83.1037598   9.3885231   3.0031881
  81.8030472   8.7870226   2.5160389  85.5602951  37.8219337  64.7085266
  86.1134338  37.1495361  65.1062164  85.4355087  37.5267715  63.8065643
  64.5882721  37.3335419  66.0701447  65.2961655  37.3978653  65.4290619
  64.7794800  36.5328369  66.5585480  14.4068079  69.1614914  29.4130497
  15.1281176  68.5401764  29.3134804  14.2874947  69.2402954  30.3595085
  44.4105835  17.6880665   1.7037070  45.1520653  17.2626514   1.2730592
  44.5059319  18.6149616   1.4846107  36.7681427  20.4568081  10.2987490
  37.3378868  19.8155117  10.7234383  36.2153206  19.9368591   9.7154188
  39.3086586  53.7187309  89.0877609  38.7833939  54.3013496  88.5392303
  40.1705246  53.7102585  88.6714096  59.1376762   7.3313580  76.4357758
  59.9741898   6.8879075  76.5765915  59.2909164   8.2300529  76.7274857
  79.1463470  27.1892986   4.4178066  78.7530899  27.7362118   5.0978560
  80.0727463  27.4301033   4.4227395  68.1785660   6.2856588   6.7773776
  68.4066238   6.1778069   7.7007360  67.9414291   5.4056382   6.4848652
  85.7830658  42.7512245  10.3511028  85.5461578  42.9868279   9.4541092
  85.0227509  43.0052109  10.8742123  29.3168392   2.8779695  27.5212822
  29.3100433   1.9282745  27.6407185  29.0596352   3.2284627  28.3740616
  71.9526520  62.2199059  55.8106041  71.2746201  62.3930931  56.4636803
  71.4690781  61.9609299  55.0261803  66.1740646  71.4086609  49.4427452
  65.4771576  71.3581848  48.7885284  66.6504745  70.5837097  49.3493271
  23.3346920  47.7656860   6.1089911  24.0141621  47.3434334   6.6345901
  22.8067589  48.2496185   6.7440710  48.2246208   4.7753615  67.7887421
  47.4999275   5.3762255  67.6154861  48.1776276   4.1329651  67.0806808
  36.8885040  56.1625748  27.6168556  36.8300972  55.3248138  28.0761795
  36.9471169  55.9248047  26.6915112  80.6739426  60.3689232  22.5250282
  81.5559692  60.4679413  22.8834362  80.3449326  59.5606613  22.9183483
  52.7209969   3.5728517  85.4567337  53.4374084   3.1756632  85.9519424
  52.5313644   4.3877516  85.9217224  24.0582581  67.8395767  55.8103256
  24.3080425  68.5987778  56.3370514  24.8217487  67.2632065  55.8437576
  40.6637955  68.4244766  69.6968765  40.5840569  69.3776779  69.6611023
  39.7856483  68.1190338  69.9244537  69.2706985  61.1180573  78.6514740
  68.3834763  61.2976265  78.9626465  69.1634140  60.9253540  77.7200317
  44.1191673  58.7672157  26.4960098  44.9153900  58.3276138  26.7943611
  43.8429260  59.2962837  27.2443466  58.6292877  23.5287056  88.1688538
  57.7716637  23.9538040  88.1670227  59.0596008  23.8541241  87.3781815
  22.3246880  45.2474022  16.6176910  22.9673538  45.9192619  16.8453197
  21.9451256  45.5488853  15.7922974  11.0542145  68.1308365  69.6006470
  11.4995842  67.7870102  68.8262711  11.6548986  67.9483337  70.3232117
  47.7526245   5.2184157  21.6162548  47.2641296   4.3994517  21.5331841
  47.9424934   5.4765935  20.7142982  23.1116352  11.3837223  34.4630051
  23.9950733  11.2736254  34.1113701  23.1129322  12.2621756  34.8432045
   8.8563766  54.5404472  42.6311531   8.5495768  53.9855118  43.3481979
   9.2649088  53.9320488  42.0153694   2.4018891  23.5851841  70.2756271
   1.5106777  23.2500763  70.3739929   2.9426079  22.9804363  70.7836990
  39.3131332   2.5093865  82.4463577  39.3364105   1.7315242  81.8890228
  40.2115593   2.8394194  82.4346085  45.8283195  35.0148125   7.3051305
  46.6083107  35.2222786   6.7905440  46.1687698  34.7468796   8.1586742
  75.9045334   3.4917943  85.8038940  76.3852997   3.2983050  86.6086655
  76.4831161   3.1941869  85.1018219  84.4165802  64.6664352   5.1147017
  84.7245636  64.2993240   4.2860842  84.0057373  63.9287300   5.5655127
  23.7155552  12.9479818  69.2145386  23.1049080  12.2163000  69.1251984
  23.1938076  13.6490765  69.6050262  10.5819931   3.6498981  48.2730637
  11.3646564   3.7744780  48.8098602  10.7019396   4.2449784  47.5329819
  46.7283173  46.8390274  28.3652401  46.9684753  46.8831711  27.4397106
  46.2978287  47.6756668  28.5411510  77.6281052  35.2820091  16.0207367
  77.1135406  36.0882912  16.0576229  77.1504517  34.6673470  16.5777493
  11.0417938  47.5281029  41.7807388  11.0265217  46.8012619  42.4033966
  11.9635487  47.7812691  41.7306747  45.9332199  61.6040878  31.0825367
  45.3283005  61.0222702  30.6223259  45.3773079  62.3020325  31.4290428
   3.4584625  47.3942375  77.0765991   3.0036428  47.0527840  76.3066788
   4.3631439  47.5129395  76.7873001   5.6228194  25.3401413  32.4539642
   5.8266535  25.5607948  33.3628082   4.8087535  24.8393097  32.5058823
  17.1614475  63.4207954  61.7570381  17.2649879  62.7788963  61.0545578
  17.8269081  64.0843506  61.5751457  17.5810909   6.8566403  55.4076004
  18.2315750   7.5577855  55.4463043  16.7386131   7.3087702  55.4527931
  68.5066071  26.6935692  35.1565857  68.9891663  26.0759659  34.6070976
  68.1275864  27.3185329  34.5385246  40.3556213  54.4020195  73.7593536
  39.6836510  54.5244370  74.4299545  40.0457306  53.6581688  73.2427444
  30.3028545  53.7570305  55.9426651  31.0212708  53.6976242  56.5724106
  29.7459297  54.4585838  56.2801361  34.9274292  62.5787773  79.8224716
  35.3860168  61.8222046  80.1878815  34.9455376  62.4357414  78.8761902
  15.6408768  55.6463737  10.0597935  15.2563944  55.1166153   9.3613939
  14.9200144  55.7958031  10.6715612  30.3691902  49.3619576  86.8252563
  30.6796627  48.6705322  87.4098663  30.8322334  49.2055779  86.0022278
  20.4000015  71.4342194  77.3432007  20.9619293  70.8592148  77.8626633
  19.8268280  71.8529358  77.9853668  86.2803192   5.1393089  38.6566505
  86.0639877   5.9465246  38.1899185  86.2988281   5.3936963  39.5792427
  81.4174423  37.1605835  44.1376152  81.1054535  36.3200531  44.4728813
  81.5331192  37.7018929  44.9185333  59.5536613  12.5679855  17.5131454
  58.7112274  12.1151609  17.4745770  59.3247986  13.4902105  17.6287079
  35.5521507  66.6634064  51.3283539  36.0032310  66.4237061  52.1378632
  35.4622116  67.6151276  51.3770790  37.1886330  54.7384987  56.5883560
  37.2764969  53.9363937  57.1032715  36.6819038  55.3276176  57.1472816
  37.0338593   0.7825218  65.6440506  37.4420280   1.4334102  65.0731125
  37.5822258   0.7745725  66.4285660  18.8393288   1.2475302  79.1687546
  18.3655167   1.2757783  79.9999847  18.1613865   1.3612026  78.5026474
  77.9566956  24.6520081   3.8753850  78.4988174  25.4389267   3.9310410
  77.0573044  24.9793758   3.8880353  72.9384766  70.2802429  42.7300682
  73.1468277  71.0800095  43.2129707  73.5754318  70.2588806  42.0158806
  21.4233246  44.9564133  68.5277100  21.9858437  44.4809113  69.1390228
  20.6782627  45.2389793  69.0580673  20.9197445  16.0019836   0.5702720
  20.6191177  16.8069611   0.1485279  20.3528214  15.3183746   0.2131921
  65.8817902  28.0197792  25.8296261  66.4315338  28.6457787  25.3583088
  65.3466263  28.5607281  26.4103127  83.8626556  58.3408699  40.7761383
  84.7716522  58.0411301  40.7873459  83.4265366  57.8079987  41.4410248
  74.1885910  17.2353287  69.5133057  74.3469696  16.7814598  68.6855621
  74.9232178  17.8431625  69.5975494  55.5750618   1.3023860  57.2944031
  56.3692856   1.5265380  57.7793770  55.6015320   0.3485118  57.2192001
  39.1473694  65.1388016  16.2604046  39.0751381  65.5969009  17.0977535
  39.9470367  64.6187820  16.3400879  40.3757248  34.1584473   9.9323502
  41.0341988  34.8462219   9.8343410  39.6213570  34.4766769   9.4364777
   1.2166748  31.5658035  44.6006203   1.3953596  32.2241249  43.9291191
   1.9736754  31.6080742  45.1849136  19.3355980  16.8952599  51.8273163
  19.4413643  17.4632912  51.0641747  18.8321915  17.4207802  52.4491234
   7.8312726  48.8415833  71.4781570   8.3233662  49.6364250  71.2724838
   8.5012598  48.1669388  71.5886307  63.1379433  68.1333542  10.3454504
  63.2674599  67.9177170  11.2690067  62.9958000  69.0799179  10.3381567
  85.9541016  54.3533897  70.8827972  85.3266144  54.0761261  71.5503387
  85.7005844  53.8663368  70.0987473  73.2191772  66.4234619  52.1819115
  73.5606766  65.5591660  51.9525604  72.7458115  66.2840347  53.0021019
  61.7540588  22.0936546  85.1982880  61.6223335  21.8825893  86.1225891
  62.7048492  22.1315975  85.0944138  18.1497917  64.2305984  80.2177124
  17.6296310  64.8440247  80.7367249  18.1126709  64.5790482  79.3269577
  20.0835304   8.7191172   3.7325737  20.1767235   8.5525932   2.7945883
  19.4712734   8.0484648   4.0352254   9.5558739  65.6653748  67.2092056
   9.7158098  65.7416534  68.1498566  10.2764645  66.1477280  66.8038406
  60.5331306  23.3337860  27.7833023  60.3118668  23.9536819  28.4782867
  60.7258377  23.8839321  27.0240707   6.8142581  31.8149319  77.9434738
   6.7370768  31.2322655  78.6989670   7.7570791  31.8989429  77.8011246
  14.1687326  46.8643456   9.1395512  14.4269419  46.2622910   8.4416351
  13.9023666  47.6616364   8.6817160  50.6131897  70.4448090  23.8538704
  51.4238014  70.3145752  24.3459873  50.8815956  70.9318619  23.0747852
  26.3825932   9.0834017  82.8760147  26.3983326   8.7568398  83.7756500
  27.1793079   8.7310753  82.4793472  14.5031338  22.3623314  68.6066742
  13.6755505  21.8861828  68.6746521  14.8651333  22.0940762  67.7621460
  13.9504948  33.7612762  12.7970209  13.4253311  33.7777328  13.5971231
  14.8563633  33.7396584  13.1055117  37.7662392  13.4083986  64.1567001
  37.3561897  13.0254278  64.9322128  38.7011414  13.2378540  64.2711792
  16.9605083  13.7552814   5.8802838  16.7238941  12.8480225   5.6876030
  17.2498131  13.7387791   6.7925682  56.7555389  37.1709824   3.4024215
  56.1443596  37.8653336   3.1563268  56.7228355  37.1509972   4.3588538
  74.6249313  14.9015026  60.4293518  74.6204910  13.9523239  60.5529289
  75.3807983  15.0661020  59.8656044  21.6163731   5.3142543  43.3370361
  22.4458084   5.3566065  43.8129311  21.8499298   4.9577770  42.4799423
  61.1560135  23.5104828  22.5930042  62.0745850  23.7653999  22.5065289
  61.1822433  22.5638199  22.7321968  48.3991432  63.0152054  74.3664780
  48.4118996  62.6759605  75.2614517  49.1869545  62.6524010  73.9615631
  21.1942673  13.2440367  35.8823128  20.4010487  12.7458363  35.6852493
  21.3474445  13.7706432  35.0978050  44.3831329   2.6977239  24.6651287
  43.9136963   1.8666182  24.7367096  45.2980537   2.4711633  24.8319397
  38.7534256  23.4066620   2.4342110  38.1023674  23.7909851   3.0212824
  39.5091515  23.2330627   2.9954352  18.4236984  65.3028793  21.4898586
  18.0801792  64.4704742  21.8144054  17.6452541  65.8081207  21.2553635
  14.6049232  17.0434589  15.6780100  15.3200808  16.7721577  16.2534904
  14.5992031  17.9988136  15.7371225  81.7465286  66.8728867  11.2702351
  81.8743362  67.8163605  11.1714659  82.1594467  66.6616135  12.1075487
  14.3610315  20.9243298  65.9361267  13.6655388  20.7841072  65.2935867
  14.6230726  20.0428219  66.2016678  64.6448517   7.4326367   7.9883571
  64.3683395   7.6675200   8.8741360  63.8515396   7.5172286   7.4594574
  79.8786011  55.6699181  52.7496758  80.3776550  55.0717392  52.1934776
  79.8700485  56.4958420  52.2659302  11.1238461  52.9221764  27.1797829
  10.9237118  52.2845879  27.8651028  11.5115566  53.6622124  27.6469669
  20.4522495  29.0687542  10.3383942  19.9119968  29.5880566   9.7428427
  20.9847012  29.7142620  10.8032026   9.3989334  14.0479631  41.4971542
   9.1060591  14.8051529  42.0042229  10.2939920  14.2656498  41.2369308
  44.2700119  51.7743073  15.5586739  44.2584000  52.7088203  15.3518467
  45.0611153  51.6551170  16.0842018  84.1843033  24.5809135  53.1844482
  84.9092026  25.1650906  53.4069290  83.4187317  25.1540203  53.1435776
  84.1739197  37.4493866  21.6677761  84.7521210  36.8025589  22.0721703
  84.6029739  38.2893486  21.8309135  50.8522263  19.0511818  70.6730728
  50.6825447  18.6995602  71.5470276  51.7364731  18.7516117  70.4618988
  46.7928772   2.1699979  25.3410664  47.2667274   1.9168898  26.1332989
  47.3121986   2.8826818  24.9687557  50.6060600   4.5951777  43.6006737
  50.1152000   4.5075941  42.7835960  50.1412735   4.0332518  44.2207146
   7.7340155  18.6540222   2.9266546   8.1357021  18.6543636   3.7954926
   7.0794916  17.9566650   2.9656618   4.1526532  46.5351410  79.6214752
   4.8444304  47.1638718  79.4156189   3.6495690  46.4585915  78.8107452
  15.4663458  40.0688553  17.4409084  16.1625786  39.5228691  17.8061333
  15.8236485  40.9566803  17.4592915  59.3365097  40.2412720  43.4889641
  59.2778549  40.6193123  42.6115341  59.0403214  40.9407387  44.0714149
   5.6086411  48.3607559   8.1744699   5.8161802  49.2761917   7.9870152
   6.2592287  48.0959816   8.8247480  78.6630020  64.0102615  47.3566513
  78.9639893  63.6089935  48.1718979  77.9541397  64.5948944  47.6249008
  84.9669495  62.8994522  40.5097694  84.0603104  62.9975395  40.8006554
  84.9624176  62.1054268  39.9752312  34.4207420   9.2019882  37.3694916
  33.5019188   8.9647894  37.4949150  34.7589302   8.5397720  36.7667198
  56.0718307  63.5916214  13.3399143  55.9909248  64.4130325  13.8246574
  55.1995888  63.4418106  12.9752398  62.4365768  42.8068962  88.9870377
  63.0214043  43.2057266  88.3427200  62.7306633  41.8979797  89.0471725
   8.9019146  38.1694183  81.5066910   8.7246151  39.1069870  81.4308090
   9.8569508  38.1051903  81.5029526  58.8820877  44.4781265  85.6864700
  59.5177422  43.8605614  85.3248215  59.4132652  45.1206665  86.1568146
  32.5481644   1.8467309  54.9111176  31.7582912   1.6007907  54.4296150
  32.3094864   1.7422144  55.8321724  74.9081879  26.9726543   9.6429834
  74.2519531  27.6530170   9.7936077  75.3982391  26.9266109  10.4639368
  86.3974991  60.0266724   5.9318314  85.5716858  60.0891685   5.4518642
  86.2223511  60.4598694   6.7672348  37.3212357   4.4264631  82.6728973
  37.7201157   5.0587702  82.0751419  37.9796028   3.7381272  82.7676392
  65.5228500  23.3709030  64.9761581  64.8803329  24.0201111  65.2624054
  65.3029785  22.5818157  65.4713669  33.3798332   4.4236822  37.3678970
  33.1707535   3.8220241  38.0824051  33.6135788   5.2425590  37.8049698
   4.9118218  41.1200409  75.0436935   5.3532453  40.5735626  74.3935089
   4.0332870  40.7465439  75.1137695   8.2883358  12.9017620   9.4781399
   8.9515896  12.4685392  10.0153961   7.5333338  12.9954481  10.0590248
  37.8972969  15.1764946   2.4944861  38.2678337  14.7290792   1.7337278
  37.0145302  14.8159456   2.5779288  79.5276489  43.6969872  61.9638023
  78.5859146  43.6271248  62.1202736  79.9254150  43.1714630  62.6579514
  32.1068764   1.4643013  12.6369276  31.6203575   0.7413394  13.0329771
  32.5713997   1.0656745  11.9010296  76.6015244  43.4590912  50.0852127
  76.6653061  44.1419678  49.4174995  76.6512070  43.9313622  50.9163094
  64.7874146  19.5610542   6.9509716  65.3769760  20.3087196   7.0491872
  65.2959213  18.9184189   6.4563308  17.9392891  71.7144928  69.9971695
  17.7196102  71.1880188  70.7658005  17.1208534  71.7715683  69.5040817
  69.9142838  14.9635830  27.0613575  69.5109558  15.8311577  27.0318260
  69.7203369  14.6391001  27.9407501  13.8412189  56.0117493  48.4701653
  14.4264021  56.3927765  47.8154831  13.0410986  55.8073006  47.9861832
  50.5746765  18.2307205  16.1199646  50.7118568  17.5929432  16.8204327
  49.6483078  18.1440029  15.8951311  32.1272545  60.8212204  68.9106293
  32.2278595  60.0953712  68.2947922  32.6831360  60.5842819  69.6529770
  80.8215561  45.4881363   8.9783974  81.6116562  45.6610718   8.4664679
  81.1318970  44.9975700   9.7394915  62.9767151  23.8822498   1.9848738
  63.5523109  24.2226810   1.3000191  62.3194580  23.3708038   1.5129972
  38.3562660  13.6352863  67.8446426  38.4984818  12.7262278  67.5807877
  38.9715614  14.1385250  67.3113556  75.3983994  61.1189041  67.5130310
  76.1374969  61.4652023  68.0130768  74.7682571  61.8389626  67.4872742
  77.9715576  52.4400368  16.3248348  78.8768997  52.7114258  16.4762726
  77.5514069  53.2103348  15.9422894  38.1669312  27.1608315   7.2625027
  37.5128708  26.8869209   7.9054728  38.5205154  27.9780407   7.6137576
  48.9637947  52.2541809  63.8819237  48.1162910  52.4706039  63.4931679
  49.4680862  51.8758469  63.1616554  63.3962173  56.5841904  39.7003403
  63.4251633  56.4436340  38.7539597  64.1797638  56.1454659  40.0317154
  44.4508781   4.8881030  14.7630224  44.6909447   4.4422998  13.9507055
  44.2681808   4.1795497  15.3801174  14.1664600  45.3223724  44.1853600
  14.6054859  44.5049324  44.4204750  14.6928234  46.0051575  44.6012726
  59.3498878  37.4668465   3.1246686  59.7248726  38.1650887   2.5879407
  58.4045410  37.5501595   2.9997287  21.2288342  57.4714737  52.7404289
  21.7529087  56.6739006  52.6665688  20.6076145  57.4179840  52.0141678
  71.9369507  34.5229225  55.5197639  72.1881256  35.3954735  55.8227501
  70.9827118  34.5091858  55.5937157  24.3131599  51.0259018  70.0071259
  24.9901848  51.5610428  69.5930099  23.5301819  51.5763092  69.9919281
  40.0074844   7.3536930   8.7818861  39.0972977   7.3170323   9.0759058
  40.4238548   6.5982938   9.1969013  49.7460327  28.6661892  81.7220001
  49.1340294  28.0626469  81.3007889  49.9610062  29.3034267  81.0408707
  80.5436478  38.1116104  15.4569530  80.7941818  38.2932892  16.3627434
  81.0447083  37.3306389  15.2219000  15.4378519  59.4289551   4.7595773
  16.0412083  58.7524872   5.0671210  14.6304026  58.9560547   4.5580311
  49.3903236  29.7864418  26.8239956  48.5748520  29.3682957  26.5476036
  50.0789375  29.2054653  26.5007172  80.8843536  27.3929863  43.2392044
  80.1408081  27.2526455  43.8254433  80.9415359  28.3441467  43.1483536
  67.5410004  28.6990719  16.1372089  67.0949020  27.9793949  15.6907825
  67.0846634  29.4857254  15.8386002  36.3318253   9.6471510  87.3336792
  36.1488266  10.5552864  87.5745773  36.3473816   9.1767349  88.1671677
  22.7270012  57.6042404  44.7845345  23.2547245  57.7859840  44.0069046
  23.3339825  57.1823730  45.3926735  79.4355164   2.8712888  36.4048233
  79.9785843   2.6790206  35.6403999  78.7120209   2.2471755  36.3477211
  12.7124987  53.6311340  77.3461685  11.8168011  53.3697586  77.1325378
  12.6109324  54.3165398  78.0065765  14.8329039  58.4907036  52.8659554
  14.6391077  57.7080154  52.3501282  15.6999922  58.7654381  52.5677757
  21.1761112   7.9397283  27.5135498  20.5270824   7.2370358  27.4786701
  21.8731041   7.6514759  26.9241924  22.5556564   1.2337924  70.3918304
  22.7051983   1.6712396  71.2299881  23.0338497   0.4077540  70.4641113
  71.2474747  36.7403183  33.3407097  71.8383026  36.1620445  32.8582726
  71.2180481  37.5421562  32.8187637   3.3074782  33.2510719  84.3578568
   3.6155648  33.9642830  83.7987137   4.0509138  33.0556602  84.9282532
  75.9725113   3.1256716  13.8338900  75.6037598   3.8296237  14.3674698
  76.4141922   2.5548155  14.4625959   5.4083805  35.6553154  11.9322519
   5.5176101  35.8017426  12.8718586   4.7092028  36.2566681  11.6758213
  84.2395706  32.9514160   1.3273841  83.6400070  33.4614563   1.8720057
  85.1108551  33.1815910   1.6500481  68.3428497  19.9590931  78.1783981
  67.7257156  20.0754280  78.9007874  67.8957062  19.3661003  77.5745316
  75.4826355  18.9877739  78.9800873  76.3228073  19.1476898  78.5502396
  75.1997986  19.8510342  79.2817764  54.1030273   8.6121387  64.4634399
  54.3517914   9.5172548  64.6508255  54.8842316   8.1005821  64.6738281
   9.5990982  34.4743729  47.8232346   8.9013910  34.1450691  47.2566681
  10.2239265  34.8804016  47.2224312   3.3455031  47.3705368  64.1914062
   4.1606402  47.8561172  64.0649338   2.9417570  47.7760201  64.9587479
  69.5789413  16.3407669  55.8005066  69.6831894  16.4682693  54.8575821
  68.6532822  16.5200825  55.9655495  31.1441574  65.4837112  77.7905197
  32.0868950  65.3250046  77.7426987  30.9019794  65.7563782  76.9055176
  21.0647755  50.4176102  80.7273254  21.5325985  50.7105331  81.5093536
  20.6898041  49.5724678  80.9750366  85.7426987  11.6364193  19.2987976
  86.4356613  11.2273464  19.8171616  86.2076035  12.1124029  18.6106586
   2.6675701  61.9578781  18.0985126   3.3922765  61.3845062  17.8489571
   2.7423213  62.0383415  19.0493908  74.7679520  49.9361343   7.1408267
  74.4821548  50.8093719   7.4091635  74.8241501  49.4408722   7.9580116
  83.6180038  14.6218729  18.9523373  82.8737793  14.9532204  19.4548988
  83.6379089  13.6842346  19.1438293  25.9063396  10.2046814   1.5456522
  26.8120136  10.4860516   1.4159698  25.5098763  10.2654448   0.6765395
  82.1271591  18.7352962  18.9515038  81.3258286  18.6604214  18.4333401
  82.5305023  19.5502186  18.6524296   7.7983036  70.3281174  44.2603989
   7.6754732  71.2294769  44.5582161   7.1657777  69.8198166  44.7681122
  23.5592976  45.9285011  31.5220432  23.5301094  44.9972343  31.3026733
  23.0790081  46.3566704  30.8133659  37.7442093  70.8491669   2.0844195
  38.5514908  71.1469727   2.5037463  38.0377846  70.2504349   1.3977163
  74.8131256  33.6180153  82.6154709  75.5227356  33.8283997  82.0084991
  75.0881577  34.0022545  83.4479065  35.4200668   2.2138822   4.0385661
  35.7561607   2.9752989   3.5657873  36.1100998   1.9976120   4.6657133
  36.2156334  54.9513092   8.2819738  36.4640121  54.1617546   8.7627459
  37.0068932  55.4899521   8.2809267  59.6357765  69.5554886  15.6966019
  58.7395172  69.2876129  15.4936533  59.5424919  70.1754303  16.4199295
  72.1785889   5.6412282  39.7830887  71.2994080   5.8472528  39.4655609
  72.4847260   4.9429364  39.2043839  37.7876930  13.0853872  25.8677940
  37.1455421  12.3851013  25.7517204  37.5261726  13.7569857  25.2378769
  58.9193764  36.7306938  10.8863420  58.7300148  37.5783081  10.4839458
  59.3200912  36.9491768  11.7277250  43.3910294  40.3121376   6.3179331
  42.9264717  40.1192245   5.5035610  44.1140900  39.6851540   6.3355045
   2.3879042  54.0476112  58.4843025   1.7912053  54.7902412  58.3911133
   2.8935902  54.0432320  57.6715927  86.0067368  43.6793137  44.1704254
  86.6686249  44.3697052  44.2090454  85.2019501  44.1020317  44.4701843
  74.5695648  67.1604691  17.7799511  74.2121506  67.9736328  18.1366901
  75.4224777  67.4095840  17.4239864  59.0710716  45.7249489  52.7032242
  58.2467690  45.5469856  53.1560898  58.8091507  45.9637146  51.8140564
  41.8027458  70.4994659  60.9921494  42.4780502  71.0652924  61.3663559
  42.2820702  69.7376251  60.6664391  78.4818115  14.6650085  76.7763062
  77.7840347  15.3048086  76.6348877  78.2955017  13.9651470  76.1504364
  49.2171135  64.8665161  21.3393002  49.2986526  64.8258438  20.3864479
  49.6038246  64.0471191  21.6479759  83.0450439  70.5199432  69.8839951
  83.5611038  71.2399292  70.2466736  83.6697235  69.8006897  69.7908325
   1.2067715  45.8235016  44.4301338   0.7702747  46.4954796  43.9065399
   1.5288684  45.1910896  43.7878418  58.4036674  68.5166473  68.2947235
  59.1499557  68.5770493  67.6983719  58.2552185  67.5767059  68.3981857
  15.6007080  22.6525726   6.7828913  16.0781155  23.4585781   6.9795337
  16.2170219  22.1276970   6.2721128  38.4394112   7.6013174  51.7225533
  37.6648369   7.0493560  51.8302841  38.0986481   8.4957952  51.7273026
  12.2142696  69.1628342  19.9550686  11.8207331  69.8693848  20.4670734
  11.7424335  69.1789474  19.1223965  76.2690277  39.3894386  10.9462175
  75.9248734  40.0839310  10.3845472  77.1895142  39.6188126  11.0739956
  16.8876400  62.1228447   8.0788202  17.5408344  61.6739426   7.5421133
  16.0638828  61.9984856   7.6074495  71.2250443  36.8097038  50.5182915
  70.5718384  37.2826309  51.0339355  71.0803223  35.8886757  50.7350769
  64.1646881  28.2413502  29.7740593  64.6445847  28.2293186  30.6021805
  63.4198036  27.6582890  29.9204102  18.0526218  52.7026825   2.3916841
  18.9328957  53.0266266   2.5824976  17.9581928  51.9264145   2.9436972
  27.5975208  43.0889893  35.6102600  27.9247761  43.4398994  34.7820091
  28.2309685  42.4129257  35.8509140  76.4785767  29.2455368  86.8186646
  75.7184830  29.8073559  86.6675186  77.2262726  29.8427181  86.7951355
   9.3225145   9.0633049  86.7945633   9.1355982   9.4181547  87.6636887
   9.8330545   9.7473154  86.3613052  34.2029190  40.8943138  10.2452412
  34.0497818  41.1084251  11.1655331  33.5274544  41.3790970   9.7709379
  78.1195221  23.1432533  33.2124825  77.7472305  22.4485340  33.7556152
  79.0649643  23.0674095  33.3414116  59.4281616  57.8595238  36.3935814
  59.4091797  56.9064980  36.4808121  58.5717430  58.0838318  36.0296249
  13.5203133  24.2957916  26.2177258  13.8441219  24.9135818  25.5621986
  13.2606497  23.5251160  25.7128830  42.0331459   6.4450679  51.2898788
  41.8839035   7.3206506  51.6466866  42.5717506   6.0066071  51.9485779
  12.8293219  45.6756134   1.5246838  12.5916739  44.8671188   1.9786569
  12.4980021  45.5567551   0.6345536  66.3695068  15.0746813  58.8075790
  66.9483948  15.7908487  59.0687828  66.8497162  14.6184187  58.1165962
  72.5682678  26.9410419  71.2596970  71.9944458  27.2924595  70.5789108
  72.7172623  26.0314827  71.0013657  43.7932472  58.8239746  59.1139374
  44.4444008  58.2386932  58.7270622  43.0904388  58.8625679  58.4652481
  36.6508102  52.4216499  12.7869530  36.8090706  51.6165924  13.2799721
  36.3437881  52.1220436  11.9312630  62.4897118  69.2574005  47.3635788
  62.6564026  69.5280609  48.2664566  62.7007904  68.3238525  47.3505440
  58.1260529  16.6974754  23.1345959  57.3023300  16.8665657  23.5918961
  58.7883606  16.6990681  23.8256683  28.9065781  71.0045776  55.1722145
  28.1494617  70.4192276  55.1530762  28.8004475  71.5071030  55.9799538
   4.8450227   5.8191872  45.7593727   4.9535728   5.7517214  46.7080002
   4.2356195   5.1152186  45.5373650  39.2810783  66.0595779  44.9593010
  39.0151138  65.8481140  44.0644379  38.6556854  65.5910339  45.5120926
  15.3977556  57.7168198  87.8430481  16.0116405  57.2622910  87.2661819
  14.9040127  58.2938499  87.2603912  18.0727386  56.1127357  65.5733185
  17.5061531  55.3887978  65.3066101  18.8329124  56.0474167  64.9953003
  26.8572826  17.7613621  12.7552557  26.4590034  18.5749607  13.0645466
  26.6782074  17.1277847  13.4500532  11.4947004   1.9191449  81.4699631
  10.7200174   2.4811528  81.4543152  11.6409550   1.7386609  82.3985443
  68.9730225  41.3341484  41.8654060  68.3169937  41.5424004  42.5306015
  69.3922958  40.5349884  42.1844406  62.9402542   6.6747427  15.4135847
  63.6097870   7.1123681  14.8878069  62.9793205   7.1126385  16.2638512
  14.4385595  64.2740097  46.7136612  13.6264257  64.0812531  46.2451363
  14.9377699  64.8251343  46.1109352  65.4250031  22.8075733  61.0680466
  64.6432419  22.5072041  60.6045151  65.8774643  22.0028839  61.3209915
   0.7574729  39.5796890  15.8389473   1.1296948  40.3391304  15.3906984
   1.2143053  39.5500717  16.6795769  25.1095486  51.1416359  85.4444046
  25.6416016  51.4612503  84.7157135  24.4439735  50.5912819  85.0316696
  81.1963043  11.7005568   8.5602961  81.9033890  11.7797842   7.9200010
  81.1508331  10.7639017   8.7522383  48.5387878  10.7469063  26.7044907
  48.4144669  11.4421072  27.3506107  48.7699394  11.2079248  25.8981018
  54.3354378  56.5790329  76.7904968  54.1465759  57.2134018  76.0990219
  55.2822037  56.4466820  76.7420425  51.7958260  71.7514191  36.0767250
  52.0672188  71.2241592  35.3253403  52.3677330  71.4654922  36.7890472
  74.4466400   9.7671442  45.9383965  75.0818634   9.4506035  45.2961121
  74.9006042   9.6982460  46.7782745  83.4946136  21.6794949  85.7940826
  83.0587845  21.2023544  86.5002136  83.3154984  21.1618614  85.0090942
  22.5617905  37.0735550  88.3876266  22.1644382  36.3711472  87.8728790
  22.2868385  36.8962669  89.2871857  58.0968323   2.6848948  20.3121910
  58.3470650   2.9865923  21.1854591  57.4360046   3.3135626  20.0218239
  16.7035980  27.0290318  85.2278290  17.1223774  26.8164749  84.3937531
  16.4265079  27.9401569  85.1313782   1.2922378  51.1960449  75.6884384
   1.2456998  52.1318817  75.4927902   2.2200320  50.9784241  75.5986023
   5.8554850   7.1855102  54.5909271   6.2188511   6.3084660  54.4684944
   4.9519420   7.0338683  54.8681412   3.9678729  71.2814102  42.4162445
   4.3633599  71.8584518  41.7629128   3.1372306  71.0106277  42.0251694
  68.2465363   2.9162157  12.9357948  68.6025543   2.7486691  13.8083839
  68.0918350   3.8606546  12.9175196   2.5085163  36.2284241  82.8265533
   2.4428899  35.4103737  82.3338928   1.6011521  36.5071869  82.9498901
  33.4728050  31.6311512  80.4572067  33.2739906  32.2798843  79.7820435
  34.4087944  31.4585781  80.3553314  46.1366234  47.0003700  14.2676888
  45.3808899  46.4373932  14.0998859  45.9824715  47.7754936  13.7276402
  24.0663433  29.6502514  -0.2616405  24.8133335  29.4151936   0.2887996
  23.3248329  29.6843567   0.3427049  19.2862377  27.6240025   3.2877927
  19.4226761  28.5458107   3.5066187  18.5227165  27.6253452   2.7105010
  13.1118622  70.3567352  46.3967514  13.1711140  69.8411636  47.2010498
  12.3567533  69.9931870  45.9342880  46.6771698  65.8715744  58.9189987
  46.6336555  65.0081177  58.5081711  47.2307930  65.7427597  59.6891518
  46.3632393   6.6880646  67.6346436  45.6285629   6.9387784  68.1946716
  46.4573975   7.4176216  67.0221786   8.7196579  61.2297707  23.7862530
   8.4429474  60.4934654  24.3317070   7.9673505  61.4051170  23.2209930
  67.0793076  58.3592453  41.4075432  66.2587585  58.3141403  41.8983574
  66.9927597  59.1451225  40.8679695  71.6407242  39.9747047  61.7903595
  70.7909470  39.9832001  61.3498650  71.7641830  40.8753662  62.0900269
  58.2780762  65.4848251  50.4456024  57.6554565  64.7603607  50.3846130
  58.7214050  65.3497696  51.2831268  40.1345863  26.9932747  41.5862656
  39.4181328  27.6172562  41.7027664  39.7095070  26.1357117  41.5973701
  49.5470390  22.7283459  19.5891762  49.2757645  21.8108635  19.5597515
  48.8251266  23.1775799  20.0287933  68.6906281  60.3735657  73.5058289
  69.1335678  60.4252701  72.6588593  67.7777252  60.5864258  73.3120804
  71.8321228  23.1755562  55.3890800  70.8884583  23.2705097  55.2597847
  71.9196396  22.8515053  56.2854958  59.2871590   5.1480827  46.8605499
  58.7835388   4.8578720  46.1000404  59.3850403   4.3616080  47.3973083
  25.3161755   8.6985426  58.9486313  25.5152397   9.5612974  59.3123055
  25.9011250   8.6152906  58.1955452  51.7205276  53.9760704  36.9170303
  51.7316055  54.7211266  37.5178642  52.3948555  54.1807289  36.2692451
  37.5408859  43.3182564  30.7234020  37.3736115  42.8338356  31.5318489
  38.3903770  42.9958000  30.4223690  70.3773270  12.0125093  58.0325584
  70.3149109  11.3514576  58.7220116  70.4485168  11.5076694  57.2224350
  72.6477890  13.8993044  88.2897263  73.5538635  14.2079515  88.2902374
  72.1760864  14.5421410  87.7601166  56.6885605  17.6885109  37.5630493
  57.2826538  17.3744831  36.8813820  56.3466415  18.5144901  37.2208748
   4.2439380  21.9823532  71.6109009   4.9882898  22.2531967  72.1483154
   4.6129665  21.3547630  70.9894638  55.3678513  69.9780579  89.0830231
  55.2624474  70.1872330  88.1549225  55.9028931  69.1843872  89.0904083
  71.6506882  27.7721272   4.4973726  71.3912964  26.9129639   4.8302207
  72.2832336  27.5798340   3.8051727  57.0397263  38.2297516  83.0623016
  57.3940239  37.8794022  83.8795929  57.3452110  37.6220055  82.3888397
  62.3387451  14.1359959  13.4622841  62.9290085  13.7446136  14.1062136
  62.5841064  13.7266541  12.6325436   6.7237244   8.4441977  81.7526398
   5.8215461   8.4329128  82.0722961   6.6420779   8.5899916  80.8101425
  53.8643761  47.4959450   8.2496786  53.6610069  46.5659904   8.1493759
  54.5794067  47.6526260   7.6329036  60.1662865   6.4439201  44.5926056
  60.0305710   5.7698398  45.2585106  59.3134079   6.8696332  44.5054398
  11.0160227  49.9537163  21.7787991  11.2831020  49.8243523  20.8687630
  11.2147608  49.1212234  22.2073917  84.9997101  14.1756601  44.3105278
  85.0028458  13.3850765  44.8501587  85.9203033  14.3198338  44.0915527
  69.3456802  56.0064354  55.3109856  69.3190231  56.4451675  56.1613007
  68.4352875  56.0015259  55.0153618  20.5118160  35.5557289   7.6745877
  20.5544605  36.3271561   8.2396669  19.9434586  35.8199081   6.9511166
  38.6431389  27.6467838  25.3697281  37.7038651  27.7431469  25.5269222
  38.7643089  26.7109928  25.2089615  10.0089750  22.3413429  40.5251656
   9.5273638  22.2758770  39.7005463   9.8550005  21.5024796  40.9597130
   9.8006449  37.7698250  46.6512718   9.8630733  36.8396683  46.4341431
   8.8603754  37.9401970  46.7069473  30.1485214  66.5219421  41.2900047
  29.3441486  66.3805618  41.7892342  29.8762798  66.4595566  40.3744621
  67.0360718   6.0639968   2.0499957  67.5281830   5.8169303   1.2670424
  66.9386139   7.0137811   1.9818456  47.7869682  48.6431046   3.2578359
  46.8493805  48.8323822   3.2213249  48.1840286  49.4580078   3.5652621
  83.3689346  20.4514694  35.3395195  83.1296692  20.1654453  36.2210960
  83.3970795  19.6446037  34.8253174  70.3273468  22.1816139  75.0387497
  69.6847153  22.3877373  75.7175446  70.9074249  21.5380230  75.4456100
   0.8960494   8.0328684  70.7190628   0.7783450   7.2198153  70.2278137
   0.8278790   8.7232132  70.0595093  10.0297918  52.3497200  19.7281895
  10.4271250  53.2190819  19.7788734  10.1447935  51.9823532  20.6045742
   3.1028447   0.2171863  30.4801903   3.9482691  -0.2149123  30.6017647
   3.2391858   0.8055903  29.7376118  78.2176743   9.9308929   4.1305885
  77.8402176  10.7109489   4.5371184  78.3306732   9.3145609   4.8541899
  81.5388641  60.8937683   7.3778086  81.9634476  60.0396042   7.2980189
  82.2267303  61.4735413   7.7048306   8.6620665   9.4626703  19.2512226
   9.0950861   8.6267452  19.4242973   9.2165365  10.1133165  19.6818657
  30.9684372  55.0794830  73.7415695  31.9091892  55.2220497  73.6371994
  30.9034367  54.2633476  74.2374802  20.9854927  40.9554253  38.9542122
  21.5043240  41.2702255  39.6944466  21.1158562  41.6148109  38.2727089
  85.2522507  19.5990105  74.0577698  85.2878876  20.4491100  73.6192551
  84.3509903  19.5295181  74.3726196  74.1421127  45.7922058  38.8916588
  74.4588928  44.9960594  38.4650040  73.2658920  45.9253120  38.5300522
  24.2207661   2.0197299  49.1659660  23.4209099   1.6949381  48.7524757
  23.9672775   2.8580089  49.5523109  51.3458176  49.6501045  79.2016754
  51.7721901  48.7944336  79.2492905  51.5764160  49.9847183  78.3350220
  65.5232925  46.6986313  85.5636978  66.1970520  46.9769173  86.1840439
  65.5510483  47.3564415  84.8688965  69.7267761  14.5365829  29.6827164
  69.6630936  13.6718931  30.0882854  69.2014923  15.1047096  30.2462234
  58.6123886  52.2027893  85.9082184  57.8399620  51.7703438  85.5441055
  58.5689507  53.0966034  85.5684509  20.3248119  58.9304085  64.5026779
  19.9299507  58.2752113  63.9273186  21.2075634  58.6006851  64.6707993
  39.9790688  63.4295120  45.4008751  39.1204147  63.8399811  45.5031738
  40.3958511  63.9195023  44.6920471  86.0646591  39.4366112  53.7077484
  85.1354065  39.2920990  53.5293198  86.5133743  38.7544022  53.2082634
  11.9173203  19.5099449  15.3511572  11.3448944  18.9805927  14.7958670
  11.7607012  19.1830730  16.2370796  47.4215012  22.6581593   4.3371592
  46.8268204  23.0037022   5.0028806  46.8924599  22.0289860   3.8467650
  31.7128334  68.1494675   4.8316965  31.6385517  67.2254562   4.5931101
  31.9569817  68.5883560   4.0168357  71.2385178  21.2926693  16.6320076
  71.8442383  21.1405087  17.3573914  71.7649765  21.7415409  15.9705009
  75.0543442  40.7320442  56.0910339  75.4126816  41.0733528  55.2716827
  75.1803970  39.7850533  56.0314903  26.2415009   9.6446667  50.9587669
  25.8135281   9.9560175  51.7563438  26.7891407  10.3781319  50.6788559
  24.7117233   2.3267455  66.8338394  24.5358486   2.0742028  65.9274597
  25.5490112   2.7890353  66.7955017  75.5304565  69.1220551  62.6258621
  75.7573242  68.2011261  62.4967957  75.5720444  69.5041046  61.7491989
  25.9941635  18.0265102  23.9785233  25.6770191  17.1563244  24.2202454
  25.4485607  18.2822189  23.2347736  54.9887199  52.8595161  10.2594805
  54.9568443  53.3963089  11.0513582  55.0375137  53.4923286   9.5429621
  55.8724670   7.5233483  29.9775982  56.4017563   6.7587056  30.2043247
  55.1591759   7.1715107  29.4450016  56.1895752  43.2939339  28.4766979
  56.8828812  43.5437012  29.0875778  55.6586494  42.6625061  28.9621372
  31.4601574   1.4903598  24.5272217  30.7938423   2.0568817  24.1382370
  31.7002525   1.9286243  25.3436222  32.0013046   4.0243039  72.1418304
  32.3391800   4.2123027  73.0174637  32.0842781   4.8530273  71.6700668
  71.7680893  37.9936104  29.9912167  71.4771881  38.5771065  30.6920338
  71.1729813  37.2454758  30.0399609  83.2363586  30.4779873  29.3871899
  82.6867371  30.5076103  30.1703053  84.1123047  30.2772198  29.7168045
  34.8493729  55.7554817  16.2379189  35.2339020  55.6358604  15.3695536
  35.5098572  56.2464066  16.7267818  78.8449020  44.7202225  15.2703695
  77.9633713  44.4447136  15.0189123  79.4219894  44.0671043  14.8745918
  49.3768578  51.0149765  26.8079624  49.2678337  51.8235550  27.3085098
  50.1262779  50.5804367  27.2151222  44.3013420  21.7522469  32.0873299
  45.1353455  22.2013855  31.9496880  44.5149841  21.0237560  32.6703300
  85.3441391  49.3701973  67.7084732  84.8873749  48.5896416  68.0220566
  86.0212479  49.0322151  67.1223679  21.2802219  34.6323051  31.4868755
  22.1598110  35.0082741  31.4521809  21.3655624  33.7829056  31.0539017
  66.7968750  30.8049107  54.5940285  66.8818130  29.9603462  55.0364418
  66.5325699  30.5821953  53.7014046   0.2144860  18.1836929  72.6540756
  -0.5007465  18.7302589  72.9795532   0.9466396  18.7897854  72.5407867
  37.5761528  47.4010887  21.4149418  36.7513924  47.3510399  21.8981571
  37.9192238  46.5076752  21.4335117  26.2790470  46.8984032  45.3708916
  25.8215160  46.5982704  46.1562729  27.0451736  46.3280983  45.3073578
  68.6220016  59.2270470  26.5611458  68.4275665  60.0141525  27.0699596
  68.7698975  59.5474892  25.6713810  50.2646751  38.9358978  17.8678799
  50.6491432  39.8117485  17.9039249  49.3220062  39.0904465  17.8068771
  50.7348251  17.9019604  22.7233887  51.2695198  18.5512981  22.2665539
  51.2869720  17.1209850  22.7614136   0.4269361  13.3568830  30.3763943
   0.6575515  14.0858755  29.8005314   1.2669671  13.0350599  30.7035179
  61.8813972  15.9921608  19.8272495  61.8849258  16.2866516  18.9164848
  61.8915176  15.0367231  19.7700768  32.3875618  19.8801212  64.7573090
  31.5734444  19.7499027  65.2436066  33.0245285  20.1416054  65.4222412
  28.7723694   7.4226832  53.1082382  29.6342182   7.2720747  52.7199554
  28.6201191   6.6545372  53.6586990  48.3330727  69.1969147  69.7274017
  47.9187050  68.9480972  70.5536041  48.4558640  68.3693848  69.2622757
  79.0230713  43.6159248  46.4585571  78.6741562  43.7703629  45.5806961
  78.7398529  42.7278290  46.6760483  78.6547165  59.2468185  53.2492027
  78.2104187  58.5053482  52.8380470  78.1428223  59.4253044  54.0380859
  60.9682465  22.9197807   0.5098730  60.2331696  22.9619427  -0.1017792
  60.6257248  23.2929630   1.3220584  37.3387375  62.2730103  30.7322044
  37.5056343  61.4872246  31.2526989  37.5901260  62.0282555  29.8416252
  36.7138252  25.2602863  30.3504677  36.3567886  24.8304996  31.1276684
  37.2269783  24.5797253  29.9148750  73.9502716  50.6186943  78.9120255
  73.2527618  51.0900841  78.4564972  74.5151978  50.2916908  78.2119064
   0.5899841   5.9900117  44.6912422  -0.0380615   6.3857193  44.0869179
   1.2902392   5.6611843  44.1275482  45.8061752  69.0285568  51.0215302
  46.5689392  68.6765900  51.4803848  46.1631966  69.4049149  50.2170906
  19.0155888  65.5765457  68.0312042  19.7139893  66.0940247  68.4320602
  18.3808784  65.4445953  68.7354507  64.1520691  22.9562931  47.0218887
  64.5246735  23.3751736  47.7977333  64.2115936  23.6231346  46.3377724
  71.2413940  37.5508537  78.7779007  71.0802307  37.9624443  79.6269302
  71.7682343  38.1899376  78.2980576  50.7563286  26.3411064  16.7440491
  50.7556190  25.4496689  17.0927200  50.4982071  26.8885441  17.4856129
  19.7564526  15.3165903  76.4594803  19.5125446  15.6177177  75.5842361
  19.5809593  14.3757029  76.4466171  78.6869507  35.2131844  23.6726265
  79.5195618  35.6144485  23.4236488  78.6239090  35.3584061  24.6166439
  60.7487106  15.2502432  73.9531097  60.4581451  15.8155107  74.6688461
  60.0791969  14.5682440  73.8996201  61.0255470  18.9790077  60.5060387
  61.4819221  19.6194363  61.0517540  60.4539490  18.5102139  61.1141014
  15.9362450  35.9973984   5.7979603  15.7519865  35.6764908   4.9151816
  16.3268986  36.8606606   5.6623111   3.4172902  63.8327484  54.3062897
   3.3352091  64.6048737  53.7465401   4.3165889  63.8677521  54.6322784
  49.4756546  59.9220085  38.8309669  49.7097664  60.5320854  39.5304146
  48.6584282  60.2694511  38.4736786  70.8155212  49.0394478  61.5219040
  71.6900253  48.7897377  61.8204422  70.6481857  48.4719620  60.7694473
  56.3028030  10.0623980  83.6152725  57.2272682  10.3080254  83.5797501
  56.2262306   9.3289690  83.0049896  11.2766533  60.7672462  60.9209099
  11.9142179  60.0990868  61.1725197  11.1491823  60.6349792  59.9814987
  81.4793701  15.2798290   5.9821172  81.0907440  14.4517088   5.7002954
  82.2126083  15.0223913   6.5409741  37.3693466  16.9481163  19.1264324
  37.4095535  16.5306644  18.2659969  37.0256920  17.8242550  18.9517517
  74.0567703  46.9251823   6.4224687  75.0120697  46.9500351   6.3674955
  73.7741165  46.6418648   5.5529466   1.5318042   9.8373337  65.6524506
   2.2791955   9.6353388  65.0895691   0.7662025   9.6105814  65.1245575
  82.9236298   8.6228676  80.2715607  83.3758926   9.4610710  80.3669815
  83.6262512   7.9837475  80.1529236  43.0904465  15.6566057  60.5160370
  43.7464027  15.1960983  59.9926987  43.5303612  15.8369551  61.3468094
  48.0901070  55.7867050  66.1292419  47.8837662  55.0320320  66.6807175
  48.2510986  56.4988289  66.7482681  17.7712994  48.5311050   6.2644119
  16.9921341  48.8293304   5.7951622  17.6251659  48.8051872   7.1698165
  64.5530930  70.8456650  84.9424896  64.6754837  69.8971100  84.9037247
  65.3669281  71.1768417  85.3222580  35.7080116  41.5271301  80.9135361
  35.6191750  41.8121490  80.0040817  35.6907997  42.3382416  81.4215012
   4.3510275  42.6436234  88.1700363   4.1521602  43.3001442  88.8376160
   5.2747183  42.4338951  88.3080292  11.5285292  32.0072594  50.0873756
  11.8490009  32.0700569  49.1876068  10.8043184  32.6318512  50.1278267
  42.8519745  36.1908646   4.1713357  42.7977486  35.5132942   3.4974000
  43.5052071  36.8068848   3.8396151  68.2092514  68.4682541  56.5652428
  68.1376953  68.3943787  57.5168991  68.6483078  69.3067398  56.4224358
  52.0433006  49.2633934  25.6113701  51.6794128  49.9238358  25.0217667
  52.8798332  49.0220795  25.2136154  14.8046179  19.8141899  84.4364395
  14.6673269  20.1731472  85.3130951  14.9027691  20.5834370  83.8753204
  54.6866989   9.4363766  18.6567421  54.7232094   8.8796396  19.4345226
  54.3043365   8.8777161  17.9800377  83.6186523  14.4101315  34.2962952
  83.4174118  13.9370556  33.4888725  82.7809143  14.4667015  34.7558899
  70.4719238  27.3239079  84.8115921  69.9038391  26.6263161  85.1385193
  71.3590469  27.0205288  85.0044861  26.6540031  18.4283333   9.0736504
  26.4017143  18.8387012   8.2464972  26.7020111  19.1538906   9.6961403
   8.0693779  40.5711136  79.1558304   7.9557014  40.3673096  80.0841522
   7.1941376  40.4746017  78.7805023   3.9509869  54.1743851  36.5151100
   4.7999678  53.7683411  36.6900139   3.8387825  54.8091927  37.2226830
  86.3831100   3.9892120  83.1793518  85.9531708   4.7593145  82.8074341
  85.8049011   3.2602117  82.9547195  33.8845329  56.5747681  41.4708710
  33.6425476  57.3936920  41.9033546  33.6412315  56.7068253  40.5545769
  58.3956566   4.1965561  35.9754257  57.4457016   4.1550570  35.8654671
  58.6010818   3.4676256  36.5608253  45.5406799  11.0708408  88.4329376
  46.4250908  11.4174671  88.5508118  45.5021439  10.3104687  89.0130920
  49.2779846  43.3031273   4.2858882  48.4410362  42.8493805   4.3852153
  49.2853355  43.9493828   4.9919534  69.5042572  10.4672318  59.9702873
  69.0490952   9.7181911  59.5855904  68.8864212  10.8198080  60.6107559
  73.8154144  24.9814281  89.0202637  73.7651443  24.0375538  88.8692474
  74.7513657  25.1597919  89.1120300  67.8922729  13.2536917  61.1440887
  67.1921234  13.3713512  60.5020790  67.5393524  12.6215010  61.7702026
  67.1692810  -0.2861710  27.9100018  66.4677811   0.1539170  28.3900547
  67.9626694   0.1897561  28.1554947   4.4171100  17.4627590  49.4307976
   3.8543537  17.6826572  50.1732140   3.8334599  17.0297318  48.8078461
  29.3640442  48.7793541  75.6969376  29.0192795  49.4601479  75.1191025
  28.9335365  47.9761124  75.4041901  25.6704788  18.2786922  30.8995647
  26.0912304  18.0463619  31.7273464  25.9891205  19.1607838  30.7082176
  51.4509544  43.2124100  13.9109077  51.7754021  43.6124535  14.7177105
  51.7023544  43.8265877  13.2211151   6.1651630  61.4290695  69.0616455
   6.5989499  60.8692551  69.7055969   5.9381056  62.2217903  69.5477219
  75.1127472   0.4216764  42.7389870  74.6076355   1.0915935  42.2782173
  76.0129929   0.5538040  42.4417763  26.1567535  31.9662685  83.6292648
  26.6200886  31.5913696  84.3782654  25.3616276  32.3447227  84.0044708
  12.0701208  16.4740982  61.4582367  11.5044823  15.7580147  61.7472191
  11.5009003  17.2436562  61.4576607   4.2300248  37.7502861  38.0093803
   3.4071960  38.1692429  38.2616882   4.0469694  37.3575554  37.1558685
  63.6751595  67.6870651  81.0919418  63.9561920  68.0765457  80.2639618
  64.4395065  67.7615585  81.6633072  78.5824890  20.7779789  61.6838684
  78.8623734  21.5334473  61.1669922  78.0374374  21.1506062  62.3769073
  77.6640854  40.4451752  78.3177414  77.2061462  39.6434288  78.5701904
  78.5059357  40.1429634  77.9768753  24.9891796  40.7922707  64.2561569
  24.6593609  40.0013695  63.8296318  25.5809898  40.4689980  64.9354782
  73.5864487  63.2951622  67.6178207  73.9026718  64.0923462  67.1927032
  73.3230209  63.5788994  68.4932251  76.8325500  63.6161728  33.0173302
  77.5041504  63.1437950  33.5093079  76.8183289  64.4893799  33.4091606
  48.7843704   8.0867720  80.5048904  48.1698151   7.3701496  80.3467560
  49.6461411   7.6703119  80.4928665  37.3499336  70.9283524  18.3931351
  36.8728485  70.3260880  17.8222618  36.7175064  71.6176071  18.5961037
   1.4589636  15.9932585  28.9309559   0.6880405  16.4016781  29.3247890
   1.8326889  16.6753654  28.3730221   1.4758552  30.9623756  11.3873730
   0.7816598  30.3905659  11.7150288   1.5970004  30.6942978  10.4765005
   7.1199045  45.2738914  45.8947639   7.5536628  45.4995766  46.7176552
   6.4995499  45.9877968  45.7473602  77.2783508   7.9950252  49.7254829
  78.0935669   8.3220387  49.3450661  76.6009293   8.5716019  49.3720894
  60.3340225  39.4991264   1.8057188  60.4194221  39.8304939   0.9117747
  60.0034561  40.2446098   2.3069320  53.8212967  48.7032661  81.2792969
  53.8423653  49.3033867  82.0247116  53.9915276  49.2594872  80.5191193
  54.8461876  49.9672737  24.0608349  55.1455383  49.0832367  24.2732048
  54.6398964  49.9323654  23.1267815   3.9166265  34.1306076  59.8808746
   4.8432131  34.0285988  60.0982780   3.8475037  35.0220871  59.5392303
  38.8969612  52.1805267  39.3294296  39.7158356  51.7560883  39.5854111
  38.6831436  52.7526550  40.0664368  19.5192299  30.3862476   3.0241172
  19.7353535  30.3305550   3.9549346  19.5061016  31.3248940   2.8370264
  45.5369987  20.1413784   0.5338476  45.2107201  21.0337963   0.6494565
  46.4720001  20.2489300   0.3593737  58.0030670  24.6289444  76.8149719
  57.5495605  24.9136925  76.0215759  57.5425224  23.8333149  77.0816269
  47.1299324  25.7623501   2.2855768  46.2231750  25.5932083   2.5413263
  47.1623421  25.5379162   1.3556246  62.5932350  12.8391628  70.4107971
  63.1661491  12.1077080  70.6409683  62.5640297  12.8286715  69.4541016
  66.8615341  61.1204033  55.5912514  66.8099136  60.1645966  55.5895615
  67.7573395  61.3123703  55.3139114  80.3565826   8.8098288  29.1570587
  79.6463165   9.4439592  29.0589485  80.3405457   8.3045702  28.3442307
  39.1053696  24.5992947  14.6058121  38.9090919  25.3754406  15.1305065
  39.7832756  24.8883038  13.9949522   4.2903590  31.2376328  54.2286072
   4.1386747  31.8142338  54.9774399   4.0137191  30.3730202  54.5321617
  73.0152588  45.2604561  48.0049019  73.5441284  44.5790749  47.5898781
  73.2894821  45.2512016  48.9219360  31.6297340  35.5885544  13.6357279
  32.3914986  35.0145416  13.5553770  31.6503716  36.1261635  12.8440323
   9.2394114  19.4993782   7.2315812   9.0665941  20.4208984   7.4243650
   9.2636986  19.0756588   8.0895462  77.4261932  26.8980713  17.7020931
  76.8342209  26.1818237  17.9318466  76.8471756  27.6064892  17.4208202
  52.8201027   4.5821300  54.1514854  52.8694305   5.5324931  54.2544823
  53.7136421   4.3183136  53.9319077   1.2385540  57.2088203  87.2932434
   0.3122056  56.9720116  87.2481613   1.6879671  56.5091972  86.8191299
   3.9918227  45.4406395  58.1932945   4.5443139  45.7777634  58.8985138
   4.4507890  45.6877861  57.3904877  61.5404243   6.8172030  10.7333612
  61.1123581   6.1094189  10.2516661  61.9272614   6.3878498  11.4964104
  86.4247284  14.2781277   9.5958090  87.3557053  14.4180527   9.4227772
  86.1379318  13.6870432   8.8996801  67.3247681  65.2122345  25.6288166
  67.6969376  64.3478546  25.8036423  67.1789017  65.5900726  26.4961052
  33.3673058  44.8667412   1.9615512  33.9824181  45.5372925   1.6645130
  32.5218048  45.1442337   1.6089069  84.0669327  35.6068306  84.1915359
  84.4619217  36.1236458  84.8937531  84.0140228  34.7198906  84.5475769
   2.2846651  47.3359680  55.6885529   1.9307535  47.5941925  56.5396118
   3.2205589  47.2114601  55.8461380  59.6011887  49.8983803   1.3316896
  59.5312195  49.3319244   2.1001070  60.1972427  49.4332047   0.7446949
   6.2402692  62.3346977  16.7718773   5.6031528  63.0487556  16.7509880
   5.7763000  61.5885429  16.3921165  78.5475922  11.2827349  31.6544628
  77.6760483  11.6652489  31.7560978  78.6602783  10.7339201  32.4305649
  82.5382233  51.7187080  26.2941017  82.4614334  50.8977203  25.8079777
  81.9320984  52.3149834  25.8544445  33.0455284  67.9900284  65.7547607
  33.2619019  68.8838501  66.0202866  33.3061180  67.4490128  66.5001602
  15.0418301   2.4302986  18.7656479  15.3259621   2.2284265  17.8741608
  14.6625538   3.3069451  18.7034206  18.0183296  23.5799198  11.2441940
  17.8950806  24.0451832  12.0715828  17.2077637  23.7348843  10.7592201
  35.6950264   8.6114359  39.9774246  35.1612206   8.9662304  39.2665062
  35.7057457   9.3043814  40.6376839  10.5157747  46.3504486  50.4652901
  11.4586287  46.2261467  50.3566284  10.3269682  47.1669769  50.0028343
  51.8474808  39.5415688  32.6565056  51.2963905  39.3798828  31.8907452
  51.4549904  39.0115814  33.3502617  52.7619476  11.0194902  65.7167664
  53.2715530  11.6418447  65.1979141  53.3210869  10.8190565  66.4673843
  45.0594864  38.7045174  44.2576408  45.3255157  37.8457069  43.9291534
  44.1380768  38.5959740  44.4931297  30.8526192  22.7700844  34.5223541
  29.9695282  23.0967007  34.6946983  30.7164459  21.9537373  34.0414505
  14.9371052  65.0373154  38.0589600  15.3898420  65.1335983  37.2211113
  14.0425940  64.7932892  37.8211899  80.6838608  54.1117020  12.4835014
  81.2682877  53.6910782  13.1141758  80.4292145  53.4080315  11.8866444
  24.9606991   1.2384422  15.7112427  24.2164707   0.6386706  15.7625399
  25.5183697   0.8700950  15.0260019  68.9836731  15.3576975  14.0495491
  69.5045624  15.6626024  13.3066244  68.7518234  16.1564178  14.5233898
  41.2658844  30.0010319  40.0071182  40.9469414  30.6796513  39.4121513
  41.6546478  30.4848118  40.7358513  69.6316376  22.4491405  66.2991028
  70.3422165  22.8105145  66.8289261  69.3785172  23.1657047  65.7171249
  45.0475006   1.2651684  50.6897392  44.9231682   0.5669565  51.3326035
  44.5804367   2.0153608  51.0575638  37.3768921  64.3348770  74.1203308
  36.4464989  64.4255753  74.3261871  37.8258400  64.5684814  74.9328003
  21.0332394   2.5879247  78.5395279  20.3451653   1.9668545  78.7783966
  21.8046265   2.2872112  79.0199051  38.7207947  24.9607983  18.9109344
  38.3129272  25.7222729  18.4985847  38.0362358  24.2917633  18.9085484
  13.3100500  69.6215515  67.8310089  14.1247044  69.5213776  67.3385239
  13.5920820  69.8522797  68.7161331   9.6019287  40.7048149  67.4422455
   9.4581976  40.2968216  66.5883636  10.4358797  41.1655617  67.3502121
  10.1267881  60.7277107  54.3268051   9.6357784  60.1817932  54.9409065
  10.0575829  61.6127090  54.6848793  28.3730145  36.6375313  35.7395020
  28.7108269  35.7687912  35.5217819  28.0703831  36.5570641  36.6440315
  64.0275574  51.5858612  15.9850931  64.2022018  52.2718964  15.3408213
  63.5440941  50.9180412  15.4987726  82.0467224  48.7350197  11.2774343
  81.9500046  49.0197411  10.3686934  82.7622070  48.0995750  11.2544737
  81.5553055  39.7155418   7.6756954  81.6608810  40.4763412   8.2468939
  82.3968201  39.2618484   7.7230740  80.6609802   1.1713386  89.0692215
  79.7464676   0.9407862  89.2327576  80.6532898   2.1229069  88.9658279
  50.1511765  31.3377609  24.4373856  49.9721642  31.0118446  25.3194103
  51.1036034  31.4271145  24.4037762  50.2986908  62.2596512  25.1146355
  51.0110550  62.3800240  24.4867153  50.4975014  61.4285965  25.5459766
  22.1912899  44.3485451   6.2816877  22.2237415  44.8460732   5.4645910
  22.9402370  44.6667213   6.7857471  75.4872437  41.0821075  81.5277405
  76.4349365  41.2028732  81.5871353  75.3639526  40.1335602  81.5636520
  65.4667206  31.1388435   8.6205997  66.0829315  30.7036152   8.0314541
  65.4856110  30.6113987   9.4191475  56.4173470  45.1086769  84.1839828
  57.2708511  44.7468033  84.4223251  56.4724312  46.0326805  84.4277420
  50.5442276  57.0316887  65.7934265  49.6253777  56.8752747  66.0113220
  50.6339302  56.7172394  64.8938065  67.7626953   9.4982224  22.6290112
  68.5235062   9.9543772  22.2693920  68.0648422   9.1544781  23.4697132
  73.6135941  61.5588264  26.9079151  74.1248016  62.2584114  27.3147049
  74.0425949  60.7519684  27.1928215  37.5909958  14.1596031  61.5941658
  38.4860878  14.1841173  61.2558670  37.6851196  13.8630610  62.4993935
  16.4978142  13.9460821  15.2435770  17.3328533  13.7025213  14.8440542
  16.1573200  14.6420288  14.6814785  12.6245155  17.7247829  20.6284122
  13.1487837  16.9329834  20.5082989  12.3914471  17.7191753  21.5567875
  62.1054802  52.0951385  17.9264584  62.4526558  52.7646866  18.5158672
  62.8367348  51.8847771  17.3457279  49.0033379  63.4859428  55.4829865
  48.7712479  63.0831337  54.6462631  48.4032440  63.0892105  56.1144333
  81.1601944  56.0540314  74.6495056  81.2625198  56.2135429  75.5877533
  81.6602325  56.7550392  74.2314453  37.0839996  -0.2445319  31.9027615
  36.8987617   0.1424568  32.7584267  37.9099579   0.1565206  31.6322498
   1.9193227  21.2584324  88.6438675   1.0067132  21.3998947  88.3921432
   2.4250028  21.7544556  88.0000610  13.5167809   4.7578559  66.1217575
  14.0520172   3.9663978  66.0638885  14.1466074   5.4770112  66.0731049
   9.7930298  66.9455795  34.6187782  10.5495310  66.3652267  34.7032204
   9.1253166  66.5519562  35.1804314  66.8056412  68.9915848  41.9532852
  66.2124634  68.9219971  42.7012939  67.1776810  69.8707199  42.0236015
  29.0775127  18.9703426  11.8886204  29.6515236  18.8414478  12.6436901
  28.2659187  18.5214443  12.1253443  33.8929710   6.7540240  19.0297318
  34.4541245   7.5227947  19.1313648  34.3960190   6.0374599  19.4166546
   9.3666525  53.8483200  73.5650864   8.5073862  53.5527840  73.2641678
   9.6693935  54.4427834  72.8786469  19.9129715  67.3892136  41.7757835
  19.8191452  67.4839172  40.8279114  19.4746685  68.1592407  42.1379738
  78.3950958  65.7535172  20.6844444  77.5261230  65.6880035  20.2884178
  78.2472916  65.5864410  21.6152897  84.8314209  49.9455795  34.5694084
  84.3229218  49.8477097  33.7643738  85.2493134  50.8026962  34.4860306
  81.4710083  28.2587204  76.7160416  80.7007751  28.4840870  76.1943359
  81.1572113  27.5978336  77.3332825  69.9551620  13.8528557  71.0348892
  70.3776627  13.6098585  71.8587112  69.0980301  13.4282885  71.0709457
  40.4666939  21.5090942  10.2954321  40.6261520  21.0123577  11.0979633
  41.1959114  21.2762508   9.7207489  58.0162735  34.7747841  77.8728409
  57.2818451  35.2845078  78.2149353  58.0255699  33.9802284  78.4065323
  74.0391541  60.3428726   0.4823724  73.2311859  60.1405716   0.9540696
  73.7510757  60.8367691  -0.2852909   1.3502312  54.2611809  35.6677589
   2.2715700  54.0600624  35.8318291   1.3583350  54.7843590  34.8662262
  45.6313324  11.8287830  32.1958771  45.4207306  12.3584261  31.4268799
  45.0123177  11.0994997  32.1612434  39.6987801  55.1832695  48.8937454
  39.8028030  55.4249535  47.9734192  39.2268944  55.9195709  49.2828712
   3.7057221  28.7091465  12.1272459   4.4610062  28.4300995  11.6096449
   3.3037462  29.4056683  11.6081057  73.4751053  26.6742134  24.7332458
  73.1759491  25.8178501  25.0388222  74.3441696  26.7767353  25.1211262
  74.4390945  19.3914585  11.1452847  73.9069672  20.1353874  10.8630781
  74.8539200  19.6873913  11.9555769  60.2404747  64.1752701  40.1244888
  60.9703941  64.4912720  39.5919571  59.8560562  64.9680710  40.4985428
  65.3031921  11.8775091  77.3683167  65.0829773  12.7962866  77.5218887
  64.9177246  11.4115658  78.1103058   1.8994972   9.1303797  49.5852394
   1.7290906   8.4106350  50.1928253   2.3747237   9.7769423  50.1071129
  12.0462513  38.0654259  28.3057804  11.9055405  37.2275352  27.8649006
  11.4901495  38.0230942  29.0837212   9.7061911  30.5893879  63.7932930
   8.9238939  30.4975529  64.3371735   9.5846548  29.9522419  63.0893707
  23.7633457   0.5099658  85.0983047  23.8743172   1.4522532  85.2248459
  24.3786831   0.2880380  84.3994904   6.1925530  19.8228531  49.2354240
   5.4369636  19.2745667  49.4468422   6.2855778  20.4039059  49.9903793
   6.6710858  15.0150032  85.5848923   6.7690825  15.6315947  86.3104553
   6.9921494  14.1829901  85.9326019  11.9084587  17.5924435  69.6645432
  11.9379530  17.1101360  68.8382645  11.2741699  17.1141605  70.1985474
  71.4243011  45.8564720   9.6212311  71.2146149  46.5201225   8.9640932
  72.3810043  45.8362923   9.6444502  43.0991707   5.5529757  53.8354568
  43.5754585   6.3444309  54.0864105  43.0823135   5.0211549  54.6311417
  48.1559258   8.4585676  69.9466400  47.8251915   7.5702338  69.8135681
  47.8152847   8.7150965  70.8036041  78.7140350  53.8046150  28.6571579
  77.7746429  53.8268890  28.8395786  78.8418121  54.4664879  27.9775772
  84.0404358  65.1953049  72.9559631  83.2546768  64.6694870  73.1054077
  83.7375717  66.1012650  73.0170670  45.2097893  52.6050224  66.9388809
  45.5083008  53.0321732  66.1359711  44.2928772  52.3892555  66.7687302
  36.4777718   0.9444351  81.7995224  35.6774063   0.6795882  81.3461990
  37.1739273   0.8052593  81.1574707  51.2172394  63.5000420  41.2418671
  51.9637756  63.9895744  41.5872307  51.5297432  63.1410561  40.4113808
  72.3036728  54.8336830  15.6560926  72.7685471  54.6775703  16.4781342
  72.6602936  55.6609917  15.3326416  50.4883690  62.2407608  21.1312561
  51.0545387  62.0673943  20.3791733  51.0312004  62.0346794  21.8922405
  45.5694809  63.2277222  46.0177078  45.9839058  64.0009918  46.4005127
  44.7952538  63.5680962  45.5694351  57.9044189   8.6361818  79.6491699
  57.3961945   9.4390182  79.5334320  58.6189156   8.7117462  79.0167007
  83.9784012   3.5847409  39.2951660  83.4857635   4.3749075  39.0734024
  84.7885513   3.6581123  38.7906837  21.0080872  29.9141655   5.6663246
  21.9271851  30.0956440   5.4699621  21.0352230  29.3481922   6.4377975
  49.6460037   1.3777789   4.0657096  50.5216293   1.0028396   3.9712143
  49.0531425   0.6379863   3.9335842  39.8747101   6.2012243  13.9925966
  39.3271027   5.5555406  14.4391975  40.5966110   5.6905589  13.6261148
  85.2680664  59.0477180  86.3309937  85.2560730  59.3584061  87.2362900
  84.4457779  59.3652840  85.9578705  75.1124878  67.0022812   2.9288394
  75.1571808  66.0636597   3.1111388  74.9420624  67.0557785   1.9884541
   8.5234041   0.7984536   1.3077773   9.1561241   1.1972480   0.7103991
   9.0541420   0.4656011   2.0314887  42.7994156  43.1359901   5.0480628
  42.9835014  42.4079285   5.6415877  42.5653763  43.8625450   5.6256247
  62.6297684  45.4019775  63.8439941  63.3992958  44.8338623  63.8078842
  61.9822083  44.8971100  64.3359375  56.6140327  63.1917114  50.6872063
  55.7169533  62.8973618  50.5295868  57.1614075  62.4798546  50.3557396
  84.4303207  18.7213955  62.4783325  83.9979019  19.0271931  61.6810036
  83.7881546  18.8721848  63.1719627  60.8853836  60.4594688   4.6783509
  60.7343559  61.2929649   4.2325830  61.1643562  59.8632812   3.9833932
  18.9810257  11.5206480  35.9675789  18.6598053  11.2971125  36.8411255
  18.2305355  11.9255409  35.5327721  53.4017563  22.6038780   5.4979291
  53.6200562  22.9044628   4.6157579  53.5347214  21.6564350   5.4678917
  19.6397800  17.9689846  11.7781010  18.8093338  17.6372433  11.4367228
  19.4157524  18.3447781  12.6294661  66.9859543  34.3552361   3.7407289
  66.3738480  34.9262238   3.2764750  66.8643646  33.4956131   3.3376255
   4.1018438   2.0850835  71.7010956   3.2275655   2.1628838  72.0829544
   4.6239533   1.6614722  72.3824081  75.8637390   6.7001824  28.0072308
  76.4975433   6.8452473  27.3047466  75.0738068   6.3985739  27.5586033
  68.3293610   1.6234701  22.1702423  68.6521835   1.7282733  21.2752380
  68.2243576   2.5183616  22.4933167  18.9215355  51.2993660  35.3543282
  18.6989498  52.1978912  35.5979195  18.4013996  50.7551003  35.9454803
  12.0443764  31.8722115  61.5996056  12.8037148  31.3087978  61.4505959
  11.4448347  31.3343182  62.1167641  14.7216263   8.0399246  61.1039200
  13.8647404   8.0901670  60.6802979  14.6602726   7.2769971  61.6787300
  46.9452591  69.2210312  29.6314983  46.8468208  68.9606400  30.5473251
  46.0856018  69.5630035  29.3859940  29.1892643  60.4268303  33.3665619
  29.0623550  59.9246597  34.1715164  29.4364758  59.7728729  32.7127571
  79.2017136  25.5294571  75.6340408  78.8531342  26.2715015  75.1399765
  78.9000168  25.6757183  76.5306015  15.8828802  60.4313164  67.7515869
  15.8407040  60.4731750  68.7069473  16.7209873  60.0072823  67.5671921
  12.2757978  30.6337547   1.4196531  12.2725325  31.5747776   1.5948597
  12.2444344  30.2286510   2.2863359  57.3639603  68.6973343  22.3773365
  56.5422440  68.2496872  22.1757812  57.9576569  68.4367218  21.6731834
  67.6810303  58.4913177   0.9662251  67.5456238  58.2061615   1.8698739
  66.9859161  59.1305847   0.8100865  81.1781235  47.7782097  37.9694099
  81.7132187  48.1362572  38.6777229  81.5637894  48.1399689  37.1715240
  63.0564346  56.2815056  26.7382107  62.3171768  56.8435783  26.5062561
  62.7719612  55.3999481  26.4970379  67.7398453  43.3634872  11.9676085
  68.2531281  43.9826889  11.4486017  68.0282516  43.5093613  12.8685942
  63.9678345  10.2407675  79.2851334  63.1783752  10.7798719  79.2366409
  63.7730026   9.5909376  79.9604034  62.4229813  48.4239311   5.5285954
  63.3160591  48.3844414   5.8707700  62.3908958  47.7367554   4.8630209
  28.5679436  55.7906647  46.9153976  28.8145657  56.1519508  46.0639954
  27.8462219  56.3455696  47.2110825  64.5401459  40.1668282  12.2851753
  64.9605331  39.4045258  11.8871756  64.6674576  40.8701782  11.6485271
  75.0189590  45.2272797  68.6766510  74.1256104  45.4489441  68.9393997
  75.5639114  45.5266380  69.4044113  29.9254875  63.7602959  47.1061516
  30.6502724  63.3846855  46.6063194  29.1805115  63.7320786  46.5057793
  21.7308559  11.0025005  69.0795441  20.9508209  10.5969009  69.4580536
  21.4672470  11.2467880  68.1923752  20.6580219  52.3811798  31.8505440
  21.0245476  52.2769432  30.9724636  20.9957905  53.2243576  32.1525345
  67.4137268  40.1115875  79.2341461  68.0532150  40.5858383  78.7027588
  67.0794983  40.7660713  79.8474731  71.1136246  34.7829666  79.3412247
  72.0064468  34.4525604  79.2415695  71.1315308  35.6484375  78.9327240
  80.5349350  53.2137108   4.5701694  81.0162888  52.4749756   4.9427295
  80.6437836  53.1178169   3.6240258  40.6290283   1.7627655  76.0210419
  40.8278618   0.9474404  75.5606689  39.8012962   2.0568244  75.6407547
  39.1940994  57.4216537  86.5959091  39.7216873  57.2860870  85.8088226
  39.7306328  57.9894753  87.1490250  65.7877579  -0.2639089   8.1842289
  65.9062500   0.2340714   7.3753982  65.3592911   0.3486696   8.7820578
  73.1389313   9.7971172  81.3804016  73.8716812  10.1611185  81.8771973
  73.3230972  10.0362949  80.4720459  12.9181986   4.8979659  38.0674286
  12.7231865   4.8800611  37.1304779  12.6168613   4.0490303  38.3910599
  78.1477509  55.7227440  78.9713516  78.5306091  56.5991859  79.0101700
  78.1776733  55.4891815  78.0435715  79.3681564  63.0769653  86.3716507
  78.6712570  63.1223373  85.7170486  79.6812057  63.9780350  86.4510651
   6.3239369  63.9409218   7.0230069   5.5572400  64.3968048   7.3702536
   6.5526462  63.3057709   7.7016139  53.1102753  68.8069763  66.5078278
  53.6318817  68.9830475  67.2908707  53.7317238  68.8836517  65.7838440
  24.6071873  39.4539833   7.3079095  24.3892746  39.4947319   6.3767347
  24.9309216  38.5628357   7.4393592  18.4588966  29.9905434   0.3791080
  18.2205563  30.1680355   1.2890104  17.7405300  29.4542503   0.0435905
  38.8743706  12.3313704  17.0621548  38.0989037  12.8085842  17.3573608
  38.5393867  11.4792271  16.7831059  23.1783199  68.2541733  53.4107132
  22.5642910  68.9863205  53.4668503  23.6014748  68.2301178  54.2689629
  80.3874817  66.4696579  56.4238510  81.0639648  67.1169357  56.6229286
  79.5625534  66.9332275  56.5681686  16.0348511  34.7133980  28.2038250
  16.9341850  34.7262878  27.8763123  15.9038267  33.8155594  28.5087013
  78.5456161  23.6185093  81.0563049  77.7716980  23.1084023  81.2952042
  79.2731857  23.1618748  81.4786148   3.9554019   3.0048611  79.1694489
   4.6380630   2.3636482  79.3670654   4.4051242   3.6878853  78.6719894
  59.2519760  12.4551649   7.3602338  59.3036041  13.3780212   7.6090355
  60.0846481  12.0821381   7.6496158  74.3167343  11.1366882  29.0830269
  74.1038132  11.9850054  29.4719410  74.8164597  11.3527927  28.2957497
  47.7747154   0.7025614  43.1423759  47.4669762   0.5113977  42.2563820
  47.0274162   0.4986628  43.7046928  45.8853798  62.3587837  38.2731438
  45.7231178  62.9984322  37.5797768  46.0583344  62.8881454  39.0516624
  80.5468063  63.6873856  12.6957245  80.6898956  62.8232727  12.3096333
  79.6068726  63.7172813  12.8742590  77.7216263   4.7057748  59.4972420
  77.5102692   5.3888702  58.8608894  78.0024872   5.1838894  60.2774658
  75.5268707  14.7773972  22.5092354  75.9875946  15.1022444  23.2828255
  76.1129608  14.9781017  21.7795429  68.0022354  66.8876114  14.0055761
  68.1925278  67.8240433  13.9498262  67.1336823  66.8430862  14.4054050
  18.4790268  44.4233704  34.1651878  17.7993793  43.7510300  34.2128258
  18.2701950  44.9193764  33.3736115  78.8361282   3.7894294  33.3802986
  78.7683792   2.8492429  33.5467033  79.6830673   4.0378122  33.7507401
  84.7498016   5.2639341  52.2174873  85.2213364   4.4470997  52.0541725
  85.4156265   5.8606009  52.5593910  30.8492928  18.2059307  13.9090633
  30.3280334  17.4121037  14.0288944  31.2572803  18.3555775  14.7619324
   9.3517361  31.4177647  69.1732483   9.4549379  30.5772381  69.6194534
   8.4409170  31.4224548  68.8789444  31.1526909  69.1757584  34.0936432
  31.1358910  69.9621353  34.6391335  30.2303104  68.9617996  33.9533920
  34.1250801  34.6588898   3.2283843  34.1862221  33.9541931   3.8732853
  34.4609718  35.4306030   3.6843073  84.6123886  70.0333176  60.7214775
  84.5660858  70.1406860  61.6715088  83.8155136  69.5535583  60.4955368
  78.3269119  67.3317871  73.1955414  77.3923340  67.1281662  73.2319946
  78.7609711  66.4878540  73.3204117  22.7902756   1.8119735  82.4885330
  23.7051888   1.5435208  82.5727844  22.8292999   2.7604764  82.3658447
  37.5764847  54.8770218  51.5891800  37.3862991  54.3702240  52.3786240
  36.7222023  55.0102005  51.1784592  11.8174448  32.3691025   8.7312508
  11.2957802  32.8932762   9.3389845  12.7062931  32.4068031   9.0844631
   1.3731607   2.6987584  24.9162464   2.0109055   2.0842788  24.5530281
   0.5363219   2.2377310  24.8580532  63.4278336   2.2364180  54.8989067
  64.2523270   1.8403089  54.6168900  63.0561752   1.6038735  55.5137177
  66.3880692  15.9065485  41.4579124  66.4331284  14.9847088  41.2041092
  67.1705704  16.2998524  41.0715981  80.0483322  -0.2120213   3.2521362
  80.6599960   0.0142552   3.9527805  80.3928070   0.2359161   2.4795306
  13.8912745  27.5492344  43.3194466  13.0480642  27.3525906  42.9113312
  13.7680454  28.4091263  43.7214813  54.1792107  28.5082855  11.5028811
  54.2366714  28.0691586  10.6542950  53.3497620  28.2063522  11.8731289
  58.9878845  53.0505524  24.0040302  58.2291336  53.3647919  23.5123158
  59.7248840  53.5497131  23.6520367  78.3321304  25.2786312  60.7563362
  78.3790970  25.8331661  59.9775467  78.7423248  24.4559212  60.4896469
  20.9133205  33.0009613  12.3731050  20.2591457  33.2808113  11.7328148
  21.4460564  32.3575859  11.9056759  14.0879736  65.6884689  58.9597702
  14.9384651  65.9241104  59.3304024  14.1726809  64.7616272  58.7360954
  42.2552452  53.8800697  54.1955223  41.8831902  53.9892120  53.3203697
  41.5027237  53.9362068  54.7844124  55.2802048  66.6414719  83.3605118
  56.0054970  66.5600052  83.9798203  55.1219406  65.7472153  83.0580292
  11.1085606   9.8940592  20.5951347  11.5930653   9.4316778  21.2790127
  11.3930378  10.8046017  20.6739883   9.6484108  59.5720749  68.0930634
   8.8050737  59.5693169  67.6402893  10.1559677  58.8868599  67.6582031
  81.9606476  71.0597763  45.0986176  82.1231995  71.1046219  44.1563873
  81.6301956  71.9288025  45.3262825  69.1864929  47.3066826  32.8977318
  68.2876892  46.9887238  32.9830971  69.5773697  47.1537552  33.7579994
  31.2798252  38.2979164  25.8420811  31.6337681  37.8273735  26.5967655
  30.8434048  37.6230278  25.3221855  43.6290054  59.9626770  85.0926361
  43.3473015  59.7814598  84.1959534  42.9938240  60.6000328  85.4190598
  81.6215820  34.7167397  51.0345840  82.0349045  33.9073296  50.7341652
  80.7209625  34.6584663  50.7156334  47.6760597  64.5046082  38.8775368
  48.4854012  64.6339493  38.3831062  47.1978760  65.3272781  38.7736893
  82.3997879  29.5921707  69.1243057  83.2794952  29.2913036  69.3519745
  82.0070801  29.8394299  69.9614944  50.0998154  69.3869705  80.7655487
  50.8352928  69.1277618  81.3206253  49.3270454  69.0507507  81.2194366
  78.5844727  36.8176155  55.2292099  79.2484360  36.1338272  55.1408005
  77.7887955  36.3479576  55.4793129  12.4180584  71.0698624  54.5727882
  12.7278090  70.4159012  53.9461975  12.0518827  71.7676315  54.0294075
  22.2583618  58.6040001  33.7551727  22.4178391  57.7122383  34.0643005
  21.9043255  59.0620232  34.5174751  72.5206985   6.4783707  60.7969513
  72.8340988   6.9892206  61.5433044  71.6115875   6.7550721  60.6821289
   1.9419173   3.5747175   2.4633269   1.5279200   2.7816138   2.1229968
   2.1425438   3.3674123   3.3760183  51.9400558  19.7913265  20.9967022
  52.6676369  20.3913441  21.1605282  52.0158424  19.5708218  20.0683346
  85.3506775  29.4037342  35.7442780  86.2237396  29.1195660  36.0149155
  85.4373703  30.3472328  35.6081657  24.0685978  50.7551003  30.1435547
  23.1277370  50.6280251  30.0216446  24.1536827  51.0639420  31.0455570
  62.8026962  10.1366854  37.3934212  63.5168839   9.8410997  36.8288002
  62.1493568  10.4885979  36.7888222  79.6435776  64.6917343  34.4824028
  78.8685760  65.2307968  34.6405869  79.8480072  64.8316574  33.5578156
  23.9865055  65.6069489  53.4644928  23.7661419  66.4726868  53.8082542
  24.8031311  65.7409973  52.9834671  64.4312973  13.4734745  47.2887344
  63.5437431  13.1189260  47.2361145  64.7434921  13.2100906  48.1544113
  28.2710648   1.8760215   9.6395655  27.5308533   2.3096993   9.2150164
  28.0292358   0.9500064   9.6552820  26.5875721  56.5399513  31.8928223
  25.9774799  57.2769814  31.9212418  27.0951614  56.6798859  31.0934448
  23.6567440  64.2635498  44.3916206  23.8180294  65.1666641  44.6647758
  22.9436283  64.3291550  43.7564888  81.9535446  28.1704216  66.8032684
  81.5144501  27.3199406  66.7929688  81.8219070  28.4971733  67.6932907
  84.0346451  13.2360430  88.2295761  83.6713333  12.4921923  88.7101212
  83.8413620  13.0456438  87.3116302  56.3938904  44.4095802   3.4853044
  55.7760582  44.7263832   2.8264012  57.2381897  44.3949738   3.0345545
   7.5564675  68.3197403  67.5743637   8.1854744  67.6129608  67.4293060
   7.2799602  68.2112732  68.4843140  44.0618706  52.2690773  81.8890839
  44.9503860  52.0757141  82.1880493  44.1271324  52.2781372  80.9341507
  37.3614464  50.8218803   4.9450550  38.2330933  51.1810684   4.7793670
  36.8761139  51.5447845   5.3426709  69.5679855  62.7897186   9.8561020
  69.3067093  63.6560135   9.5438547  70.0871048  62.9645767  10.6410666
  85.1937408   1.3343842  43.0883789  85.4632568   1.7588865  43.9028664
  84.2501450   1.2064785  43.1858025  42.9420624  54.2212715  72.7848206
  43.1642914  55.1257019  72.5637894  42.0930519  54.2833595  73.2224884
  74.4727020  30.7264614  20.4466629  74.8819275  31.5884361  20.5226307
  73.8914795  30.6695862  21.2050648  81.3912354  71.4284897  60.0715561
  81.7800522  72.2627640  60.3343163  82.1234055  70.8119125  60.0732918
  82.9821014  38.7344093  87.6671219  82.2040405  38.4737053  88.1599579
  83.7090912  38.5884247  88.2724380  82.2890930  47.2469559  59.2485237
  82.6795197  46.3743629  59.1997375  81.7218857  47.2128334  60.0188103
  13.5682392  31.6991177  10.7082767  14.2653694  31.0478458  10.7862940
  13.6744270  32.2570992  11.4787397  46.9625168   3.7730203  54.3573189
  47.8621025   3.6358130  54.0604210  46.5756454   2.8974977  54.3619118
  27.9806461  10.3890629  27.0178318  28.0062752  11.2583342  27.4177589
  28.7964630  10.3300123  26.5206490  67.0149002  43.0111771  59.4749336
  67.1190338  42.1321564  59.1106377  67.8373718  43.4550819  59.2682571
  80.9837341  31.9427834  28.4037075  81.3493805  32.7926636  28.1582794
  81.7405014  31.3577461  28.4393883   7.8642769  38.6100578  10.5860529
   7.8383584  39.4631310  11.0194435   7.1071911  38.6158562  10.0003738
  74.7293854  10.8833170  73.6195221  74.3839798  10.4924192  72.8169479
  74.6067734  10.2080994  74.2868118  23.3245029  39.5928841  78.3873062
  22.5024452  39.4768448  77.9108734  23.3092613  38.9125900  79.0605087
  46.0525093  67.8342972  21.1864929  46.6621666  68.2371063  21.8048000
  46.4911232  67.0308456  20.9066505  73.6861954  66.3144302  27.7298889
  73.0709839  65.9044189  27.1219177  73.1434555  66.5957718  28.4664459
  46.5642357  10.9486923  43.6980820  47.1127434  11.4021349  43.0579567
  45.7265587  10.8259239  43.2514801   3.1379974  67.2157593  11.1211166
   3.1843054  67.7738037  10.3448000   2.3711522  67.5325546  11.5984201
  81.9713745  69.3161850  42.7981415  82.8278656  68.9931488  43.0779610
  82.1624985  70.1324692  42.3361969   5.6277032  39.5720253  73.1134415
   4.9170451  39.6104393  72.4733429   6.1111970  38.7775116  72.8871384
  52.7216377   3.6724041  32.8623466  53.5307503   3.6637597  32.3509865
  52.9439049   3.2095799  33.6701965  78.3790817  40.9700356  15.2445869
  78.4156876  40.5425148  16.1002254  77.4489822  40.9741249  15.0184774
  21.1800270  70.1780777   3.7906704  21.6635628  69.3651047   3.9373064
  21.8449993  70.8037643   3.5033486  69.1593857  40.6472054  53.0943069
  69.1621933  39.6973801  53.2128601  69.1278229  40.9994965  53.9837608
  67.8423080  69.6765518  51.9566345  67.0029907  69.8987198  52.3596382
  67.7342529  68.7725677  51.6610565  84.1145859   6.1418552  49.3526039
  84.9392319   6.2559285  49.8250275  83.8343201   5.2530832  49.5711555
  55.5799942   7.6391854  77.3807831  56.1320801   6.8746099  77.5446701
  54.8286896   7.2932658  76.8990097  16.2987976  69.1091537   4.3393564
  16.0735035  68.7807770   5.2097816  17.2530956  69.1827545   4.3507352
  76.9313049  47.2544594  85.5629883  77.5742035  47.8317680  85.1511383
  76.0901489  47.6849060  85.4099731  75.3500137   4.9644723  22.8801517
  74.3996277   4.9708395  22.9939690  75.4906235   5.3558798  22.0180264
  79.6418076  44.7151718  34.0163193  80.4832230  44.3219376  33.7847633
  79.7220535  45.6296196  33.7450752  43.7361183  49.2592163  50.1391678
  43.4437141  50.0576744  49.6996269  43.1454811  49.1673393  50.8867874
  70.1857910  18.8587322  74.1543655  70.3933563  19.0755310  73.2454453
  69.2936859  18.5134258  74.1205139  12.3239565  52.3626633  13.1760550
  12.3968010  51.6011887  12.6006565  11.4801197  52.7538757  12.9499426
  64.8794937  19.7379265  17.1639366  65.6428299  20.3143425  17.1280022
  64.1328049  20.3202972  17.0241642  19.0465755  47.9797249  33.9262428
  19.1456146  48.8875046  33.6392708  18.7807446  47.5068626  33.1375923
  10.9345531  46.8428116  81.8651352  11.5078564  46.5502014  81.1566620
  11.0637245  47.7905464  81.9018326  60.2611580  40.2348557  82.4736328
  59.6368256  39.6184654  82.0908737  60.1327057  40.1502342  83.4183884
  16.6006451   1.4477171  44.5636292  16.4553928   1.1446332  45.4598846
  15.9131861   1.0210860  44.0521431  16.5867863  41.1324730  19.9116688
  17.5398331  41.1498375  19.9990349  16.2903957  41.9224319  20.3637161
  86.9743881  26.6902561  14.9072418  86.7558365  27.6203556  14.9654083
  86.5571136  26.3963585  14.0974636  25.1671696  58.3964767  36.1105843
  24.8084927  59.1467972  36.5845108  24.4386292  57.7781754  36.0543594
  66.3924255  45.5103302  21.3244667  66.4893723  45.5884399  20.3753967
  66.9912186  46.1664009  21.6811905   9.9876060  37.6468697   4.5446043
   9.8084793  38.5792198   4.4226747  10.4282999  37.5965691   5.3928323
  26.4253407  65.6864014  65.3785858  25.8604584  66.4161072  65.6328812
  26.9170341  66.0151215  64.6259842   6.7455463  43.2988663  65.3755569
   6.6226406  43.9336395  66.0813828   6.0424156  43.4913177  64.7552338
  48.8643494  56.4992828  60.6529617  48.2887230  55.7596931  60.8476257
  48.6024361  56.7825470  59.7769547  56.0691605  47.6334572  71.2044754
  55.4546776  47.1638298  70.6404724  56.9254837  47.4812088  70.8047714
  26.3181286  66.4506989  55.8154640  26.3923492  65.5792618  55.4264717
  27.2234402  66.7392731  55.9310913   8.5098763  21.8726254  53.6118927
   8.6274977  20.9651279  53.8926888   9.1332846  21.9839630  52.8941231
  53.8873901  29.1889877  23.8564930  54.0417976  29.3795280  24.7817421
  53.5661392  28.2873459  23.8479996  84.9543762  15.6522293  54.4559059
  84.8430328  16.0557518  55.3167229  85.1567535  16.3838425  53.8727989
  26.4183350  60.7939339  74.8245316  25.9155655  61.6003189  74.7096481
  25.8328629  60.2139626  75.3114471  49.5579185  68.9027100  29.1635399
  48.6334076  69.1203613  29.2824516  49.8133202  68.4848862  29.9859924
  34.2511063  43.4787865  23.6179523  34.1931839  43.2761269  24.5516567
  33.6996536  42.8203812  23.1952972  30.3783531  42.6961899  29.8575687
  31.2813301  42.5864716  30.1556072  30.2913876  43.6359444  29.6977825
   7.3209009  68.8178101  23.5506763   7.6881266  69.3654099  24.2445850
   6.3909140  69.0438232  23.5340900  63.5318375  67.1507416  20.2364063
  63.8639565  67.9422913  20.6599407  64.3072739  66.6044388  20.1080303
  42.0166626  64.4187546  54.4646492  42.3256874  64.7917023  55.2902679
  42.4107285  63.5469971  54.4332542  63.3436813  23.0851822  82.2865753
  62.9515190  23.4487324  83.0804672  64.2242813  22.8215332  82.5535202
  32.7414742   0.3170806  38.1222534  33.5072823   0.4560691  37.5650749
  32.9900398  -0.4090725  38.6942253  72.6268921  59.7745819  68.5581970
  73.1881180  59.2705688  67.9689331  71.8697968  60.0122604  68.0229034
  16.4361210  24.2355614  41.2516441  17.1093712  24.7249298  41.7243843
  16.3664131  23.4062195  41.7244682  12.9578629  44.7384529   7.0641694
  13.4938602  45.0248718   6.3246408  13.0969400  43.7924538   7.1085930
  46.1192360   4.8678694  60.4743042  45.4258194   4.9976215  61.1212730
  46.7203102   5.5989108  60.6175575  80.5276184  14.6281252  15.1993332
  79.8936234  14.0168238  15.5742912  80.4387817  14.5148487  14.2530203
  56.0752373  37.7852898  19.4504261  56.7839127  37.2511253  19.8091469
  56.3409424  37.9607925  18.5477467  16.7473488  70.1320114  71.8960953
  16.8678970  69.1947937  71.7433624  15.8053980  70.2331772  72.0329361
  46.4481354  17.4708290  30.8126926  46.1488876  18.1894302  31.3697357
  46.9440041  16.9018860  31.4014645  57.2389603  25.7165298  19.3535233
  56.7690125  26.4697208  18.9956341  58.1549492  25.9935913  19.3744068
  51.0073967   7.2779212   4.1340652  51.1168213   6.5313544   4.7230444
  51.5847206   7.9521937   4.4922376  65.3746719  64.3708572  71.6471863
  65.7941895  65.2112503  71.8315201  64.4844513  64.6008224  71.3810196
  58.0949287  51.2639008  62.2187233  57.7691307  51.9714775  61.6624680
  57.8013153  50.4631233  61.7842293  65.1976929  45.1519012  74.0751190
  65.5575256  45.8048592  73.4747849  65.8412476  44.4433327  74.0720596
  42.0864601  65.8057251  78.4488602  42.7998695  65.8432922  79.0859375
  42.4093628  65.2227097  77.7617874  38.7860451  23.5197182  84.3140793
  37.8673706  23.4123592  84.5605392  39.2325706  22.7800598  84.7260895
  54.3408127  53.2702217  15.0812454  53.8795433  52.7936249  15.7714024
  54.4870224  54.1418953  15.4487228  71.8182297  41.0167236  18.1462402
  70.9962463  40.6104393  17.8714542  71.6418381  41.3404312  19.0296059
  25.0454750  71.3464813  25.8672142  25.9913197  71.3454819  25.7202110
  24.8413792  70.4460297  26.1197300  82.6373215  20.0442028  87.7698364
  81.8248749  19.5383987  87.7877045  83.2971268  19.4502888  88.1278229
  82.5840378  51.5004807   5.7029676  81.9131470  50.9717331   6.1348939
  83.3090363  50.8932686   5.5549664  27.8537636  58.3788223  24.1211147
  27.7183914  59.3211098  24.2211037  28.6533146  58.3056870  23.5999603
   6.5345697  39.9836273  30.1079254   6.2752833  39.0650101  30.0362148
   7.1201415  40.1259727  29.3642349  40.4429054  24.4374180  29.2994404
  40.3948708  25.0022869  30.0707035  40.3240471  25.0323486  28.5590591
  76.1782608  53.2598610  38.2481461  75.9865570  53.3258400  39.1836281
  77.0465546  52.8588715  38.2092896  62.6928139  46.0518990   9.2874660
  61.9788551  46.5086708   8.8426600  62.2541962  45.4376984   9.8761959
  16.2972469  70.5110397  14.0805769  15.5932245  70.2999039  13.4673834
  16.6697617  69.6621628  14.3190498  38.9564438  15.4045258  21.2391586
  38.1893158  15.7665749  20.7956886  39.6682892  16.0034199  21.0136929
  14.4545088  70.6569595  10.3960676  13.8642845  69.9394608  10.6264200
  13.8951283  71.4336472  10.3867292  11.1862688   0.9007750  57.8762398
  11.6162491   1.3164139  57.1288490  10.2517042   1.0388541  57.7221107
  55.0942268  16.8745422  80.4391251  54.5136528  17.6219959  80.5822296
  54.5676460  16.2556648  79.9332275  83.8234940   4.3258986  55.3892670
  83.6122360   3.5959721  54.8071938  84.5761566   4.7504492  54.9775810
  66.9745026  55.4918518  82.4650497  67.0412827  56.0927162  83.2071609
  67.6251907  55.8105392  81.8395309  81.9363251  43.2392464  51.7288589
  81.1123581  43.7218857  51.6627655  82.3006821  43.5020180  52.5741005
  74.3504028   6.7127147  71.6118240  74.5655441   6.8036699  70.6835632
  75.0344696   6.1416721  71.9613953   0.3535825  17.2725697  11.1975069
  -0.3834110  17.6452866  10.7136126   0.2203364  17.5647068  12.0992460
   3.5026147  52.2360573  49.7719269   4.3230433  52.6034126  49.4430199
   3.2072403  52.8628845  50.4322853  57.1885948  16.6863537  13.0668106
  57.0977402  17.2305889  12.2846441  57.2640877  15.7935734  12.7299500
  52.3322029  65.2414398   4.2448702  52.2532692  64.5554199   4.9077229
  53.2754707  65.3499603   4.1236401   5.0910735  18.3101044  55.4515495
   4.3365979  18.6569824  55.9276505   5.8485084  18.7096081  55.8792419
  61.5770340  44.3413048  17.2736015  60.7349396  43.8864288  17.2595558
  61.8175011  44.4286270  16.3512230  63.9290543  12.1499090   3.6905644
  63.9751129  12.9724360   4.1779661  64.8025970  11.7690125   3.7804329
   0.1620220  56.1719284  38.3936119   0.1044542  55.4232979  37.7999191
   0.3026650  55.7828293  39.2567787   8.6380110  49.9819183  50.1078415
   9.3592424  49.4478760  49.7748947   8.5470963  49.7176590  51.0233383
  86.7495193  51.8539886  73.1756821  87.3002548  52.5199852  73.5872345
  85.8787918  52.2501831  73.1426926  56.6400719  49.3978539  75.0784073
  57.3168640  50.0732956  75.0341492  56.9180412  48.7382622  74.4428787
  21.5134029  21.9789448  85.5095215  21.7170277  21.3241100  86.1773224
  21.0114861  22.6478691  85.9751968  27.4478302  32.4811211  27.7197571
  27.2676563  32.3908844  26.7840080  28.1450939  33.1351700  27.7674332
  49.4792442   3.8644662  41.1473503  50.3305740   3.9523511  40.7187004
  48.8545494   4.2176895  40.5139313  61.6498108   0.6173335   0.8416932
  61.6113625   1.3369932   0.2117380  60.8680573   0.0963574   0.6581761
  49.1809311  57.4251671  33.5466194  48.5337524  58.1125221  33.3887138
  49.2535057  57.3789635  34.4999466  72.3641205  65.1892776  81.7441101
  71.5684128  64.8779144  81.3126831  72.3543854  66.1369247  81.6095428
  15.5963097  28.2635689   7.3607450  16.5271702  28.0843544   7.4934530
  15.1534796  27.7333279   8.0232983  79.9100800  65.7255783  16.7204170
  79.7606583  66.3098984  17.4637012  80.3344803  64.9569092  17.1015644
  36.8190651  15.9355240  16.5517845  36.4915123  16.7279263  16.1263008
  37.2598228  15.4528980  15.8524723   3.8540449  67.1123276  46.6432266
   2.9725080  67.3801880  46.9027939   3.8127155  66.1567535  46.6057205
  52.3834839  58.5664024  56.4613762  52.8868942  59.1067848  55.8524475
  51.6735611  58.2052803  55.9304962  59.7822266  13.1543102  37.4338837
  59.8420334  12.2796850  37.0495872  60.6921425  13.4219990  37.5628319
  46.3904037  15.6958084  25.3323879  45.8604279  14.9369450  25.5762844
  47.2700996  15.4838943  25.6445732  84.0224533   4.5358810  35.5582848
  84.4668198   3.7836602  35.9493484  84.3492661   4.5662594  34.6591148
  62.0813713  38.8579292  69.3169327  62.1589050  37.9078903  69.4043427
  62.9331741  39.1379356  68.9818802  13.2732449  61.6410713  -0.0510158
  13.5053453  61.4986954   0.8666390  13.6507378  62.4945374  -0.2639103
  26.0795441  50.2301064  66.1721191  25.2742538  49.7147636  66.2185822
  25.9317169  50.8408775  65.4500809  69.9347610   7.4697108  19.8791847
  70.2263489   8.2361927  19.3855133  70.1401443   6.7268610  19.3115387
  15.6173964  34.4515228  47.6978455  15.3138905  34.2987022  46.8029938
  16.4948750  34.0698204  47.7216187   1.4886413  31.3974857  81.6115952
   1.3404157  30.7897301  80.8871002   1.3117245  30.8807716  82.3976822
  63.8563004   5.9099169  84.5188522  64.7353821   5.7562003  84.1726990
  63.6196823   5.0865750  84.9458847  78.6690292  26.9162312  45.1072502
  77.8695374  26.4478512  45.3474007  78.3811417  27.8149414  44.9470139
  23.0044270  70.2481613  28.5161552  23.4486027  70.0567780  27.6901340
  22.7821808  69.3883820  28.8733997  49.0231361   1.1718863  48.9790192
  48.2540588   1.0642582  48.4194031  48.9387245   2.0565934  49.3345490
  56.9686127  52.5054321   2.8292468  57.0913696  52.1930313   3.7256658
  56.9430389  51.7087059   2.2993371  79.5634537   2.7580059  39.0333138
  79.6722031   2.7445936  38.0824051  79.4811630   3.6862717  39.2519073
  61.1887932  28.1211853   8.2383957  61.5271797  27.2323322   8.3464117
  61.1026917  28.4548569   9.1314144  76.1433182  44.9322319  14.5805683
  75.2997437  44.7317429  14.9860554  75.9194412  45.2449532  13.7040329
  77.8526840  57.4796486   2.4037824  77.2518311  57.7750015   1.7196962
  78.7204285  57.7247772   2.0825858   4.2985039  57.0221329  67.8682251
   5.0397000  57.6215401  67.7812271   3.7097037  57.2639732  67.1533432
  56.8817024  31.2094040  78.5431061  57.6101685  31.4420738  79.1188126
  57.2733307  31.1548271  77.6713943  36.9300346  71.1512451   7.2030649
  36.8832970  71.4301605   8.1175346  36.9441299  70.1950531   7.2447209
  42.3153534  52.3596878  10.8376179  41.5923157  52.8772469  11.1919880
  43.0669327  52.9520607  10.8589840   4.5877876  56.0310745  38.4750938
   5.4319725  56.0893250  38.9225197   3.9535341  55.8892784  39.1778374
  62.0114784  10.8991804  89.0942154  62.1599846  10.9277353  88.1490326
  62.2441368  11.7759399  89.3998108   0.5828645  25.1240025  23.3774700
   0.3364162  26.0417824  23.4922504  -0.0330657  24.7903976  22.7251129
  43.9367447  39.3515854   0.3851206  43.1970901  39.0897255   0.9333634
  44.6348419  38.7387581   0.6160665   1.2743876  60.0495224  32.9111023
   2.0499272  59.7260437  33.3695030   1.0597523  59.3574066  32.2856903
  10.8520222  25.1603127  35.8178062  11.6761951  25.0015640  36.2779922
  10.4443874  24.2967682  35.7517815   4.6149240   1.2929974  40.5198441
   5.1136470   0.9100558  39.7981377   3.7296274   1.3964175  40.1708679
   2.5417233  14.8411627  10.0480890   2.4672670  15.7417746   9.7325163
   2.4326386  14.9099274  10.9965639  68.6618958  19.3250618  32.3040009
  68.1115112  19.9483910  31.8299046  68.8255310  19.7442970  33.1488075
  66.4057541  20.5792809  41.1495438  67.3330078  20.7609615  41.3026199
  65.9449539  21.2783184  41.6134834  53.8490181  41.3632393  13.9292088
  53.8014717  40.5758667  13.3869781  52.9863892  41.7682762  13.8395071
  82.3509598  25.5410671  16.5451126  83.2852554  25.3920479  16.3998127
  81.9594345  24.6687660  16.5000401  58.1468086  46.5121346   4.4241099
  57.7601128  45.6388435   4.3603806  58.2727547  46.6503830   5.3628626
  20.4233646  38.2255363  34.8042374  21.2245865  38.3033905  35.3221321
  20.3510418  39.0636063  34.3474693  68.8412094  56.5141563  10.9840889
  68.7950363  56.8283653  10.0811090  68.6012650  57.2738914  11.5146170
   7.7333226  10.3546162  51.1181946   7.4500484  10.0132914  50.2699699
   8.0370340   9.5836105  51.5973015  41.3108597  10.0934649   4.5369339
  40.9060898   9.2682123   4.8040490  41.3045731  10.6307564   5.3290892
  86.6496048   6.0978217  68.9215088  86.4710464   5.7976909  68.0302963
  85.9380341   5.7296634  69.4453049  15.5418892  38.5774994  31.1104774
  15.0064211  38.0173798  31.6724148  15.2405291  39.4658585  31.3008156
  43.7850533  59.0164795  36.3496552  44.4035530  58.9504433  35.6221046
  43.4315376  58.1320229  36.4445152  18.1814156   3.6739807  43.5310707
  17.8743382   3.8356812  42.6389999  17.7108231   2.8876283  43.8075218
  85.3634491  13.5298634  57.5277290  86.0906906  12.9362001  57.3408661
  85.6655121  14.3836327  57.2177811   3.1300678   9.3293371  42.3366699
   3.4773755   8.9378557  43.1381378   3.9064174   9.5514174  41.8226738
  70.7459793  42.5229721  69.9356461  70.4997101  43.0789337  69.1963959
  71.6770935  42.3456192  69.8022003  27.7436123  45.8274193  15.6111803
  27.2006359  45.3260612  15.0028677  27.9419956  46.6382370  15.1427231
  24.9631367  64.0144348   0.8792770  24.6850471  64.0456772   1.7946577
  25.3852215  64.8601532   0.7281832   2.2134671  49.8862801  21.7106533
   2.6916163  49.1025696  21.9815807   2.1112583  49.7891617  20.7638931
  85.9051437  66.7128830  58.2248001  85.8974838  65.7657013  58.0868568
  86.1192551  66.8181915  59.1517830  25.8628845  63.9668541   7.9521117
  25.3012199  64.7256241   8.1103373  25.7686634  63.4307671   8.7394924
  57.3257027  28.2829437  31.9831371  56.4908180  28.2688732  32.4511108
  57.7527275  29.0868111  32.2792397  31.0286350  44.0755196  85.1703033
  30.2060280  44.0582542  84.6811752  30.7631550  44.0117912  86.0877457
  61.3854637   3.6380925  35.1260109  61.8793983   3.4462574  34.3288536
  60.4757576   3.7006459  34.8348846  31.2577686  24.8900585  25.8823452
  32.1066513  25.0794468  25.4826469  30.6625462  25.5326118  25.4962521
  14.5664883  67.1984711  39.5851822  15.2376862  67.5404510  40.1757545
  14.9975452  66.4792023  39.1235771  18.6018543  21.8384037  15.6548786
  17.8926487  21.6554241  16.2711391  18.2763500  21.5188065  14.8133698
   8.8774652  45.2826157  73.6903000   8.8670988  44.3257217  73.6684418
   9.2559862  45.4986343  74.5425262  65.2412643  31.7695446  77.1145859
  64.5977097  31.4971886  77.7687225  65.8852921  32.2766571  77.6088562
  86.2015762  71.7354507  49.5260315  85.8237762  71.6523972  50.4015884
  86.3127670  70.8331223  49.2265739  81.7907867  32.7554970  72.8691483
  81.4173889  33.5700417  73.2057800  81.3148041  32.0650978  73.3306961
  56.7274818  51.2443199   5.5850110  56.9232025  51.3095360   6.5197163
  56.0029335  50.6208191   5.5349512  35.1283875  11.0113564   5.4271579
  34.3206902  10.8812561   5.9240770  35.2188568  11.9620237   5.3617425
  16.0838299  44.8877220  13.2728939  16.9784794  44.5552673  13.2000456
  15.5652838  44.3029900  12.7202349  21.8834801   4.3320651  30.0435524
  21.7060947   5.1579986  30.4936638  21.3866329   4.3924346  29.2276306
   4.2411094  10.0340834   9.4564629   4.1772408  10.9863949   9.3839712
   3.3557978   9.7514181   9.6857138  47.2516556  19.6228447  22.4030895
  47.1543808  18.6768036  22.2945766  48.1064949  19.7294216  22.8203716
  13.9259300  26.5935802   2.3418617  14.2774973  27.4168282   2.0028992
  14.5958681  25.9427700   2.1324327  31.1607494  20.1863403  82.2533493
  32.1086769  20.2504730  82.3697357  30.8028450  20.8667717  82.8235626
  14.5537033  49.9809799  19.8806610  14.8497248  49.9475060  20.7903233
  14.4351912  50.9137688  19.7015247  43.1316528  51.5443077  37.8130493
  42.9446373  51.9403419  36.9619217  42.4754906  50.8535118  37.9051552
  56.4499817  62.6683083  16.5706367  56.5399017  62.1882668  15.7474098
  56.9697075  63.4619408  16.4431095  67.9232864  55.8238297  41.3462296
  68.8580475  55.9127083  41.1603317  67.5973969  56.7235069  41.3709259
  27.4195423  55.1187096   6.3239903  26.6024380  54.7734642   6.6836834
  27.9569683  54.3431435   6.1630511  63.0548630  56.1959076  29.6698494
  63.5240860  55.4287987  29.9978848  62.7468452  55.9351959  28.8018723
  14.8273726  45.9159851  66.5802612  15.7403622  45.7462273  66.3481750
  14.4320984  46.2445946  65.7727966  36.9016380  38.2350540  10.8937721
  36.9019699  38.9969177  11.4732513  36.4725838  38.5418587  10.0950146
  54.3696213  24.0203209  15.6901712  53.5486412  24.1468430  15.2145452
  54.3437347  23.1064682  15.9737778  86.1380768  42.8667946  23.0669613
  85.7887650  43.4083176  22.3591709  86.2240143  43.4669762  23.8076534
   9.4640799  70.5236893  70.2049255  10.0437250  69.7724380  70.0789871
   9.9202633  71.2516174  69.7827301  66.5247955  11.0922384  75.2661591
  65.9137878  11.3721991  74.5846024  66.0093918  11.1115465  76.0725174
  66.7589951  58.6611671  13.1489124  66.5869370  57.7298431  13.0101261
  65.9334717  59.0096970  13.4854603  69.9152908  22.3567104  60.6851006
  69.2563400  22.5086918  60.0076675  69.9657974  21.4038315  60.7606201
  20.3881264   9.7410212  75.6862488  19.8788605  10.0151939  76.4489517
  20.3608685   8.7845373  75.7112961  23.2972145  61.9335899  64.4819183
  23.4536686  62.8211861  64.8042908  22.4191113  61.7163811  64.7949524
  71.2897186  50.4914665  40.0115700  71.5592270  50.2417488  40.8954468
  72.0638046  50.9093742  39.6342278  60.6911469  12.7464342  24.4434643
  60.1441765  11.9661379  24.5339661  61.5024529  12.4258394  24.0494652
  13.9765511  64.6874619  27.8759270  14.0197973  63.7444687  28.0344238
  14.2774038  65.0819702  28.6945152  63.5647316  11.3746319  63.3003387
  62.6263161  11.2023649  63.2233238  63.9817772  10.5634403  63.0100403
   6.9675808  61.5025673  31.7258205   7.0750375  60.6254578  32.0937386
   7.7371726  61.9849548  32.0279198  53.1389122  46.7944527  24.5591030
  54.0754242  46.9538345  24.6764660  52.9014816  46.2169266  25.2845860
  46.0803757  11.4875193  75.5076065  46.1004982  12.2914133  74.9883957
  46.9969978  11.2184954  75.5681534  11.3089685  20.6687336   0.9400442
  11.6163387  19.7868614   0.7301475  10.3593912  20.5786629   1.0201819
  75.7420578  40.3531609  27.8638020  75.5291977  40.3150749  28.7962570
  74.9317703  40.6431885  27.4448071  29.3237362  47.4831200  71.4233475
  30.1132298  47.4988327  71.9643478  29.5909176  47.8875122  70.5979309
  14.1549253  39.1862297   8.3024931  14.2691908  38.9053192   9.2103825
  14.2010593  38.3767624   7.7937055  21.3428822   3.6470780  59.5159264
  21.8549976   4.1277676  58.8656158  21.2071419   4.2748814  60.2256241
  23.3316898  20.3656750  36.2930450  23.9983196  19.6839428  36.3771782
  22.6790390  20.1458149  36.9578285   4.8312135  60.2387505   4.6965461
   4.0406671  60.3036346   5.2323241   5.3680849  59.5821915   5.1403179
   7.6166520  24.9738636   1.7098171   6.8071427  25.4780560   1.7917726
   8.2791395  25.6218014   1.4699848   3.2994168  62.6511497  20.7964554
   3.6654751  61.7994194  21.0347691   4.0173020  63.2683525  20.9376259
  25.7862968  45.2314644   4.1485963  26.4605217  45.0684814   4.8082099
  26.0148754  46.0839081   3.7780197  82.4716034  33.0245743  22.9015236
  83.3248291  32.6282196  23.0779877  82.4051361  33.0348053  21.9466877
  12.0390043  37.7433815  20.5713196  12.0784168  37.1219826  21.2983265
  12.5007753  37.3052483  19.8564491  16.8123322   3.8756404  87.6853943
  17.2020607   3.9743648  86.8167191  17.5258694   4.0736279  88.2919388
  41.6057320  61.0529327  20.4990997  41.4092827  61.0760117  21.4356384
  41.0931969  60.3168182  20.1649303  69.5579910  44.3307152  32.0517654
  69.0738144  43.9470367  32.7829247  70.3581696  44.6748314  32.4486656
  62.7830658  59.1705475  40.1882477  63.1008911  58.3264465  39.8677597
  62.4937592  59.6320686  39.4011459  66.7546158  57.6009979  50.1266174
  65.8442001  57.8964996  50.1189880  66.7036514  56.6633415  49.9410706
  29.8703194  33.8628502  30.0161285  30.2711868  33.6595345  30.8612309
  29.7005730  33.0082626  29.6197681   7.4146004  60.2731857  84.9304352
   8.2940388  60.6005096  85.1193161   6.8462124  61.0351410  85.0426483
  82.6298828  42.0128632  65.2537842  82.9667358  42.1662598  66.1365280
  82.7900620  41.0826874  65.0945816  24.2060871  70.2490997  41.7514420
  23.3775082  69.7809296  41.8539314  24.1671467  70.9501266  42.4020386
  15.1718626  27.3207588  34.3463516  15.1165628  28.2150002  34.0094490
  14.3046198  26.9495907  34.1840057  16.7745571  13.7664137  19.6882038
  17.4913578  13.3611021  20.1762104  15.9839869  13.4967251  20.1556416
  68.3305130  10.1305532  17.0690536  68.2631454  10.2040215  18.0210495
  69.2709808  10.0777540  16.8988628  58.9170609  68.6626129  33.4909744
  59.8110695  68.9461060  33.2996330  59.0181198  67.7867584  33.8636627
   2.4924755  67.5967712  32.6329651   2.0753076  66.7404022  32.5389900
   2.3849473  68.0108337  31.7766819  47.5161896  26.6681232  10.6195011
  48.2048492  26.1029415  10.2694359  47.8489838  26.9518929  11.4709444
  20.5975037  67.4978485   8.9095144  20.8266716  66.6231537   9.2235680
  20.9900436  68.0923386   9.5488272  84.6162720  64.0014420  18.6377220
  84.3834839  63.8853607  19.5588989  85.5362244  63.7416115  18.5885811
  35.1193810  19.6325111  33.4733963  35.4621506  19.3005257  32.6436195
  34.6761665  18.8810635  33.8672485  45.1029816  52.6844482  39.1116753
  44.3138008  52.3314857  38.7007751  45.6289215  51.9129066  39.3222542
  61.7128105  70.1337738  35.2926254  62.2952919  69.6168060  35.8491364
  61.4442368  70.8684769  35.8442688  72.7126617  25.2871513  59.6594238
  72.2850571  25.0589199  60.4848289  73.5348587  24.7971859  59.6721306
  10.8148756  67.1441345  84.9780350  11.7604961  67.0442352  85.0878220
  10.6634369  66.9822311  84.0468597  84.3230667  10.3847475  31.7841854
  84.7932053   9.7429075  32.3163872  83.4349670  10.0343466  31.7153587
  31.2800808  26.2352142  15.2780285  32.1424866  25.8849049  15.5011168
  30.7033978  25.9102955  15.9694748  53.9930649  31.4504166  11.7005558
  54.4204903  30.6585636  11.3741999  53.3089027  31.6357651  11.0572815
  33.0709953   7.9728723  22.3888817  32.7837143   8.2416105  23.2615108
  33.7237968   7.2918000  22.5508118  29.3562546  66.4979172  60.4942093
  29.5448971  67.2250137  59.9009361  29.6416321  65.7189560  60.0167046
  78.1615372  59.9811478  64.7542877  79.0790024  59.8064194  64.9639816
  77.6710129  59.5755157  65.4691849  13.8691359   2.9602268  24.3414936
  13.1734028   2.4527421  24.7594013  13.6320152   2.9734669  23.4142227
  85.5738754  69.3229675   6.5142527  85.1678696  70.0183029   5.9966559
  85.0933304  69.3288727   7.3420634   1.3185279  29.7750492   8.8806992
   0.8616503  29.6063080   8.0566721   1.8948046  29.0192318   8.9941788
  23.3673401  11.6866980   1.9416999  23.5955048  12.5033855   2.3857648
  22.5854149  11.3762007   2.3982248  60.7000694  13.6994123  10.2416019
  61.5178833  14.1866579  10.1415739  60.9574127  12.8860941  10.6757927
   2.6562083  48.7307091  29.0241985   3.3862591  48.2901726  29.4591560
   2.2230425  49.2222748  29.7220268  26.8693981   1.1141930  23.3751335
  26.8212299   1.7537650  22.6645985  26.6634026   1.6162262  24.1636505
   2.8106327  39.8059616  48.9842682   2.8050499  39.7602119  48.0281792
   3.5878282  40.3235474  49.1947517  17.9279308   9.5269823  84.5384598
  18.6628361  10.1351976  84.6173248  18.3364258   8.6790619  84.3641205
  12.4571667  14.5381470  39.8057938  12.5569363  15.2941856  39.2272758
  12.5833406  14.8919487  40.6862106  22.0483704  43.3766556  52.7441139
  21.1352215  43.1189194  52.6177673  22.0078030  44.1075478  53.3608665
  19.5024910  18.7331524  49.5870781  20.2787724  19.1372128  49.1993179
  18.8457737  18.7596397  48.8911934  29.4881916  18.8499184  84.0858383
  30.2177105  19.0387821  83.4956131  28.7898140  19.4385300  83.7994232
  57.5349045  23.4409332  80.7059250  58.2520638  22.8656006  80.9722137
  56.8500481  23.2869301  81.3566895  14.9064255  48.9443130  86.0405426
  15.3585806  48.3327255  85.4593811  14.6147442  48.4050293  86.7756119
  38.4724159   7.2449331  40.6269417  39.1268692   7.5241952  39.9866791
  37.6324196   7.4392209  40.2111397  38.5089188   9.4016600  48.8958969
  38.7450562  10.2360134  48.4905281  38.2912598   9.6278248  49.8001671
  58.1954651  34.7359505  33.4562340  57.8269005  33.8528328  33.4785194
  59.1004524  34.6106567  33.1706963  78.4746933  59.3853493  26.1742649
  77.8502502  59.0948868  26.8390503  79.0609512  59.9813156  26.6404743
  63.1980057   0.0936974  52.3768806  64.1122971   0.3119802  52.5575943
  62.8375397   0.8848240  51.9763641  28.7864189  30.0379658  57.2750130
  28.5984287  29.2184982  57.7325783  27.9906273  30.2215252  56.7757607
  40.9253654  61.9985123  73.9947052  41.6721382  61.9862976  73.3960342
  40.5735283  62.8856201  73.9206772  82.2972336  33.9008865  68.8578949
  83.0118027  33.3163986  69.1108704  82.2244492  34.5189323  69.5851898
  30.5476379  50.6108818  65.6892090  30.1829929  51.4831276  65.8390503
  30.0324097  50.0355148  66.2546463  41.3470764  45.5543442  34.3963852
  41.6831894  44.7390900  34.7687035  41.2250862  45.3607903  33.4669304
  68.0449142  15.7172832   6.8819504  67.8345261  15.3893471   7.7562656
  68.9851685  15.5641708   6.7885585  76.4235611  30.1145649  12.0688677
  75.6606827  29.6997471  11.6661568  76.3008041  29.9806232  13.0086670
  31.4863281  28.1289310  30.5063953  32.1431084  27.7543774  29.9193859
  31.7241440  29.0537262  30.5729523  45.3422203   9.1771564  69.4336243
  45.0678444   8.7140198  70.2251129  46.2925797   9.2538443  69.5182877
  62.9910126  44.0711632  68.9427643  63.2221527  44.9896126  69.0815430
  63.3704529  43.6127663  69.6925201  34.9159012  22.4286213  10.6590195
  35.3412743  21.5846558  10.5073099  33.9812965  22.2239532  10.6882801
  69.3534241   7.8845873  24.4299755  70.1584549   7.9979582  23.9246998
  69.3687515   6.9670596  24.7022629  38.4048080   8.8973017  14.1782522
  38.5995293   9.6291714  13.5928640  39.0110435   8.2072744  13.9088583
  29.6799698   9.9389658  85.7458496  29.0896454  10.3698559  86.3639755
  29.2687511   9.0921526  85.5725327  19.2112503  65.9878159  37.9736176
  19.1254616  65.4542313  37.1835823  20.0598335  66.4205551  37.8793945
  64.7414398  42.6475487  53.8931694  64.6783600  41.7230110  54.1329193
  64.5611877  43.1187630  54.7066193  54.2784958   2.4528599  89.3460541
  53.6460609   2.0866773  88.7278519  55.0188065   2.7200477  88.8012772
  51.4603348  56.5868301  72.5543976  52.0822525  56.5980988  71.8268509
  51.5636711  57.4423523  72.9710922  10.1972837   9.4598818  62.8740959
  10.7640886   8.6905870  62.9302177   9.3164110   9.1204329  63.0324249
  19.6577587  29.0032120  63.1575623  19.7577972  28.4668598  62.3710785
  18.8622818  28.6715679  63.5740471  79.5104370  12.8207836  59.8849602
  78.9841385  12.3476543  59.2404480  80.4029617  12.7804718  59.5414467
  53.0230179   2.2418528  38.2590370  52.4791718   2.6054444  38.9577942
  52.9798279   2.8928177  37.5586014  16.9648113  68.3122253  41.0150223
  16.9962711  68.8619537  40.2320480  17.3806553  68.8411331  41.6958809
  86.2394485  18.3193932  78.9741135  85.9551163  17.6310844  78.3727722
  86.6074524  18.9964828  78.4063568  64.2190857  54.8853874  10.9188042
  63.8527107  54.8720932  10.0345955  64.8362579  54.1538658  10.9333591
  12.5397663   1.8163036  35.1766891  11.9034910   2.1106377  35.8284187
  12.1470213   1.0306189  34.7963142  36.5460930  13.5565710   7.9471207
  36.8565674  14.4603996   8.0012722  35.8734360  13.5747652   7.2663612
  20.5746651  22.4536705  81.0923462  21.0315323  22.6853256  80.2837448
  20.5370274  23.2711849  81.5888138  63.9250717  26.1932507  25.2348385
  63.7474213  27.0014420  24.7536964  64.8089142  26.3110924  25.5829372
  73.3865967   5.6185088  36.1572227  73.0458908   6.5003128  36.3074646
  74.1243744   5.7452164  35.5606842  80.8419037  55.1576729  49.7920570
  79.9100571  54.9617081  49.6946144  80.9943237  55.8960457  49.2023048
  68.3294373  32.3391151  87.6054688  68.3510361  33.1265335  88.1492920
  68.6787949  31.6489811  88.1692886  24.7041912   4.7386270  52.5662117
  24.4343033   4.6419721  51.6529503  25.6438789   4.9151559  52.5208702
  42.0379982  47.6713486   9.0092936  41.2410202  48.2014923   9.0122232
  42.6408844  48.1483879   8.4390383  64.0436096   5.0313663  63.4806404
  64.7534866   5.6700726  63.4145393  63.5203629   5.3309112  64.2240906
  58.5749626  41.6504402  64.5521698  57.7978249  41.4547157  64.0287399
  58.2287445  41.9304085  65.3995056  26.3558998  57.3392220  84.1927719
  25.6819630  57.7618675  84.7251358  26.9494514  58.0496750  83.9494934
  45.3983994   2.8239794  87.6849213  45.9293404   2.1467836  88.1041336
  45.2439194   2.4935687  86.7999344  20.4034538  14.3177395  25.2901058
  19.4765129  14.1673822  25.4755898  20.4049702  14.8607130  24.5018120
  62.3235741  50.1204567  48.1722145  61.5594444  50.6707497  48.3440247
  62.5629807  50.3189201  47.2669373  68.6650543  53.4558411   2.6891968
  68.1239166  54.0848198   2.2119231  69.5607071  53.7721138   2.5708518
   3.5060172  18.1237297  35.0213242   3.5570104  18.3152294  34.0848618
   4.2779298  17.5860596  35.1982231  19.9828606  55.9256516  63.6471786
  19.8427563  56.2263489  62.7493019  20.5842247  55.1859512  63.5609550
  50.3375092  15.5407543  12.0529709  51.1615181  15.7730494  11.6248550
  49.9894257  16.3739338  12.3705902  28.7161446  45.1400261  20.2027054
  28.9454174  44.2538452  20.4826107  29.2697334  45.3005829  19.4385090
  84.6925812   0.6587853  71.4030609  84.3046417   0.4222288  72.2455444
  85.4792404   1.1536900  71.6321259  55.3474846  62.2980614  22.8644905
  56.0386505  62.1376305  23.5069733  55.7193260  62.0018883  22.0336800
  27.8603859  20.0089016  22.5479031  27.5308647  20.0158081  23.4465675
  27.4635658  20.7792873  22.1413651  21.4320755   5.4151616  24.4182339
  22.1997356   5.7823372  24.8565407  20.7663879   6.0994492  24.4878368
  39.2599945  43.8380966  18.2962666  38.3194504  43.7882004  18.4669056
  39.6476402  44.0389061  19.1481094  24.0043221  19.4270630  78.6163788
  23.6397438  18.7488537  79.1850128  23.5750275  19.2880878  77.7722015
  33.4310951   7.5362430  88.5812836  32.5673409   7.1266928  88.5319901
  33.4936485   7.8557563  89.4814148  41.2431145  63.1217575  24.4602051
  40.4963493  63.6520615  24.7383289  42.0079346  63.6612549  24.6607628
  66.0293045  15.8380384  35.5262222  66.4633560  15.9466572  36.3724098
  66.6220474  16.2509747  34.8982353  72.6725769  25.7322826  85.2130280
  72.3172226  25.0415707  84.6536789  73.5028610  25.3786526  85.5320969
  10.9194565  40.0724106  13.2373161  10.2848825  39.9064064  13.9344444
  11.1665611  39.2016258  12.9260235   3.4436090  64.9850693  62.3301926
   2.9724362  64.2476654  61.9423065   4.3043160  64.6295547  62.5516014
   3.9004366  33.3550072  62.8794899   4.1284804  33.7098503  62.0202370
   2.9867156  33.6092262  63.0087891   8.9580975   6.3446584  11.8293066
   9.1496916   5.7100959  11.1387606   8.0194082   6.2479405  11.9897413
  59.5767746  48.4916725   3.5226543  60.3809700  47.9915581   3.6618979
  58.8873138  47.9472580   3.9027760  37.7729111  40.7556000   0.5452829
  37.4531097  40.9505043   1.4261757  38.4714241  40.1152229   0.6803002
  47.6096153   7.5432434  27.9268417  48.2357025   7.8499827  27.2709751
  47.9731598   7.8386459  28.7615891  62.4991226  52.0313339   9.8148174
  62.4278412  52.8871384   9.3920298  62.9530830  51.4844971   9.1736336
   4.1499844  13.8346758  87.9044647   4.9453363  13.9626503  87.3874893
   3.6044464  13.2608223  87.3665924  58.3583870  32.7291718  21.0432339
  58.8866615  33.5114212  21.2021198  57.6559944  33.0277748  20.4655552
  82.3546448  62.6775398  55.4271889  82.6229935  62.5229073  56.3328972
  82.9935837  63.3066292  55.0921593  33.3877182  41.4993553  32.8183899
  33.4385033  42.0771027  32.0569038  32.4847069  41.5849037  33.1241417
  16.7929802  64.7126389  86.1823578  17.2770920  64.3424377  85.4442368
  17.3337727  65.4438248  86.4809265  84.9614182  35.3811798   6.1782017
  84.2783661  34.8831024   6.6271815  85.4799652  35.7668533   6.8843164
   9.5581751  55.3148575  87.3358612  10.4098225  55.5131226  86.9464798
   9.0092115  56.0644341  87.1056366  57.7797356  67.6067581  72.7654343
  58.4891548  68.2042542  73.0019760  57.0305595  68.1786728  72.5984497
  63.5446396  64.0478439  11.6221886  64.3274307  63.5297966  11.4348526
  63.3891830  64.5457230  10.8195820  70.2268372  55.9533615  13.7368259
  70.8200150  55.8825073  12.9889317  70.7538757  55.6792030  14.4873571
  52.5408134  46.9357262  77.5938568  53.0513535  47.4962769  77.0095978
  53.1969872  46.4539757  78.0974274   9.2911539  26.8690968  36.9892731
   9.0363665  26.3161087  37.7278671   9.8255587  26.2990265  36.4364052
   4.0291829  20.8652878  42.1503944   3.3313997  21.3689709  42.5694809
   4.5029578  20.4614735  42.8775139  43.1311302  54.8293877  25.6689930
  43.2693672  53.8823624  25.6526394  43.8994026  55.1757774  26.1228619
   1.7538524  40.1593246  84.4492264   0.8571144  40.1698494  84.7838593
   2.2042379  40.8397484  84.9496307  39.9567451  47.4078712  62.1709862
  39.1346474  47.8916702  62.2505264  40.4898376  47.9373512  61.5779495
   0.3374712  24.1136150  59.8080940   0.4034911  23.5797997  59.0163155
   0.6921462  23.5577621  60.5019722   6.9911480   9.7593842  54.9335442
   7.8808608   9.6801186  54.5895081   6.5221353   9.0138569  54.5587807
  22.5630150  61.8700676  49.1298065  23.3361416  62.3717346  48.8712769
  22.4587860  62.0547256  50.0632248  53.4816017   5.5257344  71.4052811
  53.0702477   6.3891139  71.3653259  53.2198067   5.1748657  72.2565079
  74.6243210  17.8428040  33.0769806  74.4081650  18.6811161  32.6686440
  75.5630798  17.8983364  33.2555008  20.2857380  52.4470177  86.9530716
  21.1171093  52.0114632  87.1410751  20.1492100  53.0338326  87.6968765
  81.7952499  22.9238987  79.3004456  81.2980881  23.5928841  78.8297882
  82.2986679  23.4131336  79.9511795   7.6932273  23.8982697  76.0907898
   8.2859936  24.5382156  76.4849091   6.8705025  24.0085373  76.5674438
  46.7143822  64.6657028  35.2095146  47.3674774  63.9878273  35.3832283
  45.8789597  64.1984863  35.2073898  17.0937939   2.3407435  35.3803215
  17.0123386   2.8482912  36.1877823  16.7615242   2.9228613  34.6969719
  44.7127609  38.0071106   3.1808391  44.5924835  38.9400826   3.3578446
  45.4936638  37.7673874   3.6797972  82.6895523  50.4206200  13.2924576
  82.5928497  49.9268150  14.1067295  82.3777313  49.8239479  12.6120300
  40.6387825  35.3493347  80.5819778  41.0829468  35.0717850  79.7807846
  40.8336220  36.2838440  80.6524048   1.2795762  54.9544144  65.2957306
   0.8293012  55.7979279  65.2513428   1.3421358  54.6680641  64.3845062
  27.6238995  27.2176132  11.4746752  27.7847977  26.3764935  11.0470533
  28.1568775  27.1881905  12.2692194  53.7105789  38.4624023  78.6799164
  53.5681915  37.9699821  77.8715363  53.2966003  37.9311256  79.3600616
  24.4929543  54.9672203  25.8411713  24.5897007  54.0783577  25.4994125
  24.8101864  55.5309525  25.1356220  48.7671814  63.8548470  80.9179840
  48.7209435  63.6563644  81.8532333  47.8565331  63.9919815  80.6569290
  27.0419197  58.4937668  66.7932281  27.9895458  58.5867195  66.8911743
  26.9221992  58.1992035  65.8903885  20.3339233  49.7627220  38.9054413
  19.8178291  49.7051392  38.1013489  20.3375206  48.8705215  39.2521400
  28.2969933  55.0657692  72.7378082  29.2233639  55.0267220  72.9756012
  27.8424664  54.6644897  73.4784927  28.0911407   7.0440354  81.5582581
  27.8944721   6.1745315  81.2096634  28.2486420   7.5828948  80.7829742
  57.7660599  68.4654388  -0.0006233  57.2892265  67.7457733  -0.4140710
  57.9759483  68.1416855   0.8753685  37.6483459  60.7812614  32.9416008
  37.1708221  60.4211121  33.6889305  38.3040657  61.3589211  33.3322029
  60.6349869  16.4356689  24.7512321  61.1607285  17.2351933  24.7269592
  61.1955414  15.7683058  24.3554573  34.6627274  60.9583702  73.8345261
  34.5513268  61.9061699  73.7603989  33.7931213  60.6003227  73.6561508
  33.3282890  62.6924477  56.6206017  33.4746056  63.0292206  57.5045738
  33.8484192  61.8898773  56.5809135  48.3981743  45.4656067   0.7104467
  47.6826820  45.5231743   1.3436844  48.5848351  46.3748512   0.4766504
  44.6859016   9.5630360  28.2960949  45.1935768   9.6194172  27.4865780
  43.8107376   9.2991171  28.0120773  79.5731049  34.2087708  73.8133774
  78.9911118  33.4885979  73.5707397  79.1089554  34.9971008  73.5317078
  85.5286865  46.6617126  84.8105621  86.1566467  46.7808762  84.0980301
  85.3186111  45.7280540  84.7910385  54.5636482  26.4778252  17.4961605
  53.7224007  26.0396004  17.3677483  55.1755409  25.9871254  16.9474926
  84.0485992  29.6427364  57.7250137  84.5287857  29.6619873  56.8971977
  83.1583252  29.9057884  57.4916534  60.0728798   3.4866035  42.9274445
  60.1447334   2.7196062  42.3593025  59.9309006   3.1243861  43.8020134
   1.9930316  18.4183655  82.7677689   1.2030823  18.5235996  82.2375488
   2.4773996  19.2340870  82.6404266  85.1749420  42.2692566  54.3131752
  85.1764069  41.3241272  54.1616402  85.9652634  42.5834732  53.8739815
  54.9239159   4.3077221  26.2636261  54.2781982   5.0143099  26.2602272
  55.1174660   4.1645908  27.1900616  56.7416916  34.9709930  28.8042488
  56.6878471  34.6484528  29.7038593  57.1966820  35.8099594  28.8774357
  51.9927254  60.7940674  76.4575500  52.2449608  61.1199799  77.3214874
  51.6827965  61.5697174  75.9900665  73.2240448  14.2270594  83.9605331
  72.7644730  13.4422379  84.2589951  72.8263550  14.4300766  83.1138611
  84.2188797  69.9120178  30.3347931  83.8943787  70.2137909  31.1832390
  85.1452789  69.7242737  30.4856796  52.3632240   0.2612124  44.6747856
  51.8487892  -0.5266775  44.4992294  52.2811089   0.3954261  45.6189651
  58.7027397   2.8269873  80.0897446  59.3387146   3.3869855  80.5349121
  57.8553429   3.2304308  80.2778473   7.3966017  26.5897007  55.5661316
   6.9858913  25.7324638  55.6787987   7.5859632  26.6432991  54.6293793
  44.4462204  66.7141266  32.4027214  43.6380577  67.2006302  32.2402000
  44.5412369  66.7188950  33.3551826  58.6481667  46.0203934  46.3189201
  58.8837509  45.6248436  47.1581306  58.1584206  45.3371353  45.8611679
  18.2341976  12.1186132  11.8221302  18.7147293  11.2910004  11.8026848
  18.9154663  12.7908306  11.8373117  15.7608614   7.1693816  29.4809475
  15.2135696   7.0246844  30.2528057  15.1944227   6.9500508  28.7411690
   8.8767624  49.2411194  80.1936111   9.4826488  49.4678650  79.4881134
   9.3803282  49.3800583  80.9956970  77.8450394   3.5274129  81.0187302
  77.3229752   4.3166833  81.1627274  78.7449722   3.8454034  80.9463501
  67.0067673   3.9018686  63.0814056  67.6461105   4.2785091  63.6860619
  66.3823471   3.4464631  63.6461601  13.9018621  24.8939705  21.2718105
  14.0265522  25.0990906  20.3451996  13.4972754  25.6800175  21.6387882
  61.2172508   5.4847207   0.4835986  60.7990494   5.0507193   1.2272264
  62.0862656   5.7255707   0.8045831  70.6558075  43.3900604  48.8352470
  71.2037582  43.9958649  48.3362579  71.2766876  42.8715858  49.3470345
  12.0555067  26.7344742  51.8410072  12.5751019  26.3541756  51.1327515
  12.1122980  27.6793766  51.6990051  83.7974472   6.2032366  18.3203964
  83.4734726   5.3091092  18.2117367  83.7532501   6.5823388  17.4425812
  61.0436783  27.0723305  37.7030411  61.0148544  28.0142345  37.8710251
  60.8819122  26.9916153  36.7630692  83.9494400  56.2438965  28.0792942
  84.0043488  55.8928413  27.1904888  84.3585510  55.5739975  28.6271057
  55.0583839  66.4021606  11.1510239  54.4438133  66.2316208  10.4372673
  55.1961365  65.5468063  11.5579929  37.8734627   8.1474018  23.8144398
  37.5711441   7.4914165  24.4425468  38.6331406   7.7443366  23.3941269
  81.5650558  17.4222298  38.7579536  80.6795502  17.7132244  38.5401840
  82.1042099  18.2080650  38.6684494  15.3250971  42.4256401  88.0414352
  15.3068810  43.0175133  87.2893829  16.2056713  42.5251465  88.4032669
  68.6896515  53.1780357  32.7932701  68.7813187  53.1656075  33.7459869
  68.5720901  52.2592430  32.5519562  49.0466232   2.6312761   6.3445296
  48.5488281   3.4485393   6.3218837  49.1590042   2.3937011   5.4241166
  37.1172752  24.6775894  82.0552139  36.7883148  24.0491848  81.4124680
  37.1013947  24.2015190  82.8854752  69.2635574  31.2713223  57.1862183
  69.4127579  31.0332241  58.1012497  68.5121231  30.7413559  56.9202919
  11.4368010  39.6073914  70.1900940  11.0339079  39.2514725  69.3981171
  11.5622644  40.5367088  69.9981079  62.4898758  39.4252701  10.2014771
  62.8340416  38.9492645   9.4457006  62.9602127  40.2589111  10.1939592
  86.5734787  45.3251991  74.1996307  86.7517166  45.5293274  73.2815933
  85.7191620  45.7211914  74.3715439  86.4513092  44.7650642  81.6700287
  86.6612091  44.0059013  81.1261139  87.3011169  45.0852623  81.9725723
  62.3422775  39.0204010  74.7980728  62.5110588  38.7591476  73.8928146
  62.2085609  39.9671478  74.7531662  69.9321442  25.3898087   7.9377747
  69.4713135  24.8067608   8.5410328  69.3143311  25.5286236   7.2199521
  29.4022427  34.2518463  26.7553616  29.3631001  34.4418983  25.8180370
  30.2981625  33.9479179  26.9009132  57.9730949  17.5755100  30.2568436
  57.1781425  17.0526447  30.1524754  58.5258141  17.3211365  29.5179062
  77.6255341  51.4879646  22.7597599  76.7153549  51.2509422  22.9375896
  77.5799561  52.3878517  22.4367161  20.1019478  12.4966583  20.1891403
  20.3400440  12.9015579  19.3551159  20.6114483  11.6867790  20.2162991
  28.1054211  23.8097687  81.9616470  27.9070568  24.6445255  81.5373077
  29.0163784  23.8946400  82.2430420  21.0321178  34.8994827  20.0120201
  21.9140701  35.2456093  19.8756847  20.4552116  35.5484657  19.6092415
  66.3871231  36.2440262  28.6306419  66.3883743  35.6833496  29.4064445
  66.5435104  35.6441345  27.9013271  13.7254686  63.1275940  40.4910965
  13.2294073  63.5593338  39.7955704  13.7407227  62.2048454  40.2370567
  83.9266891  69.5189285  78.1909637  83.8504715  69.4401932  77.2400589
  83.2194977  68.9726181  78.5339813  29.4673882   4.0988226  76.7610779
  30.1919689   4.7055898  76.6092529  29.7325344   3.5972605  77.5320282
  27.3464031  68.8620377   0.7671937  26.6014996  69.3993378   0.4976431
  27.8151665  68.6769791  -0.0465906  83.2992706  60.3591690  79.7950211
  82.8704071  60.9983788  80.3639832  83.0375214  59.5094070  80.1494522
  58.5702209  47.8155899  77.5650024  58.6423340  48.7316055  77.8332291
  58.3896637  47.8545380  76.6257935  74.8785095   1.4425735   6.1901922
  74.7782669   0.6032131   6.6392546  74.1520309   1.4693305   5.5675001
  17.9398880  64.5417709  25.4423122  17.6458015  64.8029861  26.3149586
  18.3001995  65.3425446  25.0613136  68.4171066  19.5456219  61.2298317
  68.2827377  20.0125504  60.4051170  67.6707840  18.9494858  61.2919044
   5.4242015  69.8856125   8.3159647   5.3659768  70.1036148   7.3857408
   4.5141582  69.8454514   8.6099710  85.4090042  22.3829784  77.5701218
  85.4345016  22.2143860  78.5120087  85.6231995  23.3122158  77.4872437
  58.1065712  19.9644737  31.1442604  58.2573204  19.9228554  32.0885963
  58.1953621  19.0588131  30.8473969  13.0150766  29.3070316  81.7627945
  13.6602144  28.6902714  82.1086731  13.2655277  29.4270096  80.8467636
  32.6603050  31.1920204  16.6185837  32.8911247  30.2681179  16.7153091
  32.2819061  31.2538090  15.7415266  42.4914093  12.1286240  79.2563934
  43.0006599  12.6907806  78.6725464  43.1406212  11.5539999  79.6620560
  11.5057077  49.0759850  64.4287338  10.9802361  48.3217049  64.1619492
  12.2691622  48.6947060  64.8623199  62.2949600  12.4407663  74.5764313
  61.4142036  12.3537474  74.2118378  62.1526718  12.6279488  75.5043030
   5.5695796  47.3808479  51.6900749   4.7904377  47.7354774  52.1183357
   5.7104449  47.9539490  50.9364548  66.1696701  62.2124062  25.0467587
  66.7861023  62.5661430  25.6879444  65.3108902  62.5011864  25.3555069
  15.5398521  25.7225227  79.3180084  14.9738140  26.2278271  78.7344818
  14.9353065  25.1987610  79.8437729   6.2454448   5.6368146  26.2315559
   6.3618913   4.8166122  26.7110767   5.5383954   6.0864778  26.6942825
   5.9699244  55.9247360  84.6695938   5.8560977  56.5678177  85.3693924
   6.0552249  55.0873489  85.1253815  24.2279167  21.0439224  24.2324314
  23.9195595  20.2735348  24.7095566  24.2587967  21.7373600  24.8915386
  17.1551685  47.7429352  58.7835922  16.4479084  47.1472397  58.5362892
  16.8106041  48.6156082  58.5939865  55.5841255  66.9283447  24.9288158
  55.3418732  66.7690201  24.0165863  55.9513092  66.0965118  25.2279110
  66.8380737  38.7585373  83.4554749  67.6878433  38.3622360  83.6479950
  66.2114105  38.0419502  83.5555878  55.3348808  69.1327820  11.6781530
  54.5918198  69.7310944  11.7563505  54.9366035  68.2693710  11.5679970
  42.2693672  12.6216764  35.4517517  42.1778603  12.4650478  36.3916054
  41.4511108  13.0494967  35.1994438  14.1331244  40.0336113  23.7235565
  14.1169548  39.0879936  23.8711185  14.7135544  40.3724861  24.4050961
  48.9858742   7.2698278  30.5216694  49.6623611   7.9442573  30.4605045
  48.3138809   7.6549454  31.0841141  22.9561939  29.6440563  23.5655899
  23.3942356  30.4878139  23.4541416  23.6453762  29.0551395  23.8728924
  67.7314758  23.9477177  16.4756355  68.4846497  24.5325813  16.3926144
  68.0146561  23.1323242  16.0619030   4.0954771  54.7936287  62.5274849
   4.3614354  53.9009857  62.7481384   3.1442156  54.7437859  62.4334145
  18.2447624  38.6835785  31.5246830  18.1471767  38.2811623  32.3876839
  17.3819542  38.5944443  31.1199017  53.7990837  30.1374912  35.4579239
  53.9642334  30.0892296  36.3995323  53.2175941  30.8908272  35.3550491
  47.3940926  68.6647034  58.3379593  46.5857773  69.0427704  57.9916611
  47.1830444  67.7429123  58.4862480  30.3468876  51.2304802  54.2481079
  30.3480148  52.1818085  54.1422844  29.4462891  51.0177841  54.4928741
  55.6424866  51.1282692  33.3972282  55.0607033  51.7187691  32.9186134
  55.6238136  51.4516754  34.2979469  50.2330322  22.7445393  89.0468445
  50.7801514  22.1758194  89.5885544  50.1129494  22.2563000  88.2323303
  56.3389473   4.7276049  12.0629978  55.8834915   5.0793819  12.8278790
  56.8550262   3.9980934  12.4060802  49.8524323  13.0027714   5.4707413
  50.5338135  13.4562416   4.9744372  49.0339432  13.2678413   5.0511603
  66.7985077  20.1026611  35.6622772  66.1484604  20.2683372  34.9794769
  67.6364059  20.3177643  35.2525330  31.8502808   6.1200557  61.8510170
  30.9880085   6.3933702  61.5379410  32.0087891   5.2825074  61.4155617
  14.9010839  63.1467438  87.3213425  15.0983200  63.2810745  88.2483139
  15.6255360  63.5680275  86.8588257  72.9298782  55.1603432  60.7582359
  72.7776337  55.9841194  61.2213211  73.8828964  55.0866280  60.7076073
  73.8225250  53.3664513  44.5354881  73.5950546  53.6969986  43.6664467
  74.7480469  53.5867577  44.6408424  10.1013918  68.2982788  11.0246134
  10.0602036  68.9174957  10.2958431   9.5916567  68.7131577  11.7205162
  63.7614288  39.4574203  51.2441444  63.7877922  40.1275558  50.5611687
  64.0778275  39.9034996  52.0297279  38.3611450  15.0138645  10.4795542
  38.3600731  15.6788397   9.7910500  39.1862068  14.5441504  10.3575916
   4.9220252  44.0400124   1.9426949   5.3146038  44.1993484   2.8010223
   4.6189084  44.9009666   1.6544080  14.9227505  18.4597359  70.1276932
  15.0581503  17.9677505  70.9375381  14.5193338  19.2803783  70.4105911
  13.2728691  71.0583954  78.7949982  12.9099045  71.6476288  78.1337204
  13.8474865  71.6141434  79.3214874  52.4666252  59.9057159  82.9898071
  52.7954559  60.5160179  82.3297806  51.6136360  60.2605438  83.2402878
  85.3640137  35.9383659  15.9088449  84.6515503  35.5012665  16.3752918
  85.9357300  36.2699051  16.6012726  27.7760067  22.8015156   9.1441240
  28.5178204  22.8208981   9.7487469  27.0374527  22.5129795   9.6803293
   3.8287511  70.4907684  46.5417213   3.1118875  70.8888397  46.0478821
   4.1507511  69.7905197  45.9740944  85.9042740  65.4341736  14.9855881
  86.2497635  64.6645508  15.4378557  85.0000610  65.2019196  14.7741842
  61.4354935  30.6124516  66.4132462  60.9917450  30.6803703  65.5678406
  62.2222900  30.0989609  66.2301865  20.2364616  67.0785217  64.2523575
  20.8143673  67.2409134  63.5067787  20.2497025  66.1278381  64.3630447
  38.8758125  15.1371679  70.0675507  38.6386871  14.6089878  69.3052979
  38.0761223  15.6160507  70.2852631  38.8269463  17.8379822  14.9654942
  39.4888306  18.1268215  15.5937567  39.2940674  17.2376099  14.3844776
  45.7643661  64.1787033  62.7775612  45.6721115  63.9151306  63.6931229
  45.4165916  63.4391518  62.2792130  86.2757721  31.8458614  77.7954330
  86.8772278  31.1041489  77.8613510  85.4067993  31.4601898  77.9066544
  43.9880753   3.6533372  74.3043594  43.0615501   3.6982942  74.5405045
  43.9910316   3.3119020  73.4101334  57.2263298  11.3590355  42.3952713
  56.7617760  10.7102089  41.8666458  57.9904747  11.5941076  41.8689079
  79.9419327  61.6982651  71.0867691  80.5590057  61.0126038  70.8311920
  80.2099457  62.4634781  70.5780029  77.9326706  58.3996353  84.7631149
  78.4874573  57.6203918  84.7281570  78.4673538  59.0919495  84.3744736
  83.8753891  19.8946228  38.1140442  84.0527191  19.4581680  38.9472885
  83.8835144  20.8280067  38.3260841  60.7324753   7.8449016  72.3222427
  60.8081627   8.2313261  71.4497910  60.0695114   7.1613736  72.2247620
  51.8649559  70.1254196  68.7308121  52.5606918  70.2906265  68.0944977
  52.2894478  69.6199188  69.4239960  34.6123886   2.8472397  80.1930389
  35.4259682   3.1220248  79.7701721  34.5452156   1.9124266  79.9984970
  14.3380575   9.1370449  42.8162842  13.3859835   9.2171831  42.7582703
  14.6644287  10.0168018  42.6272316  69.9843674  61.8118629   1.6768758
  69.2642517  62.4424362   1.6704708  70.4478912  61.9859581   2.4960613
  41.2636032  71.2235947  87.5935516  40.4849739  70.8924408  88.0411072
  41.0098190  72.0926514  87.2828064  40.9376183   2.9989772  48.0906601
  41.1926498   2.1100051  48.3374748  40.0278206   3.0756679  48.3781013
  53.5787964  70.0503311  80.1177826  53.8175011  70.6140518  79.3819351
  53.2134857  70.6488495  80.7693634  32.7268867  62.4220772  63.3109589
  32.3194885  62.7676811  62.5167198  32.1218300  61.7458687  63.6157227
  47.7715797  34.1618538   9.7348003  46.9981995  34.6151581  10.0704012
  47.7976837  33.3390465  10.2232018  23.2477932  22.3677616  14.5549765
  22.5690117  22.0326214  15.1407833  23.1474438  21.8541451  13.7535028
  77.4619675   8.0377979  32.3632088  76.8208466   8.4061527  31.7553368
  77.1873474   7.1281500  32.4787788  47.3041954  60.2281876  48.1892281
  46.9545784  59.4039574  48.5278244  46.6983757  60.8956261  48.5113144
  27.5080090  40.9809380  83.2199936  27.4223061  40.4824486  82.4073486
  26.6496181  40.9082031  83.6372528  35.5471802  11.7652960  83.4837723
  36.2629509  12.0124683  82.8982773  34.7532578  12.0069904  83.0068054
  76.4296875  29.7146225  53.8172798  76.6783295  28.8215904  54.0558205
  77.2370911  30.1076012  53.4857788  64.6051102  53.7803917  29.6454487
  64.4142075  52.8657722  29.4374561  65.2116852  53.7363548  30.3846130
   9.3865509  67.4308624  72.4821854  10.0362492  68.1295929  72.5589905
   9.4482660  66.9543610  73.3100586  46.6491394  11.3274155   4.1809206
  47.0418243  10.9073715   4.9461632  45.8989906  10.7743492   3.9626868
  73.2531586  67.2744827  64.1123047  72.4716797  67.7818985  64.3315048
  73.9296265  67.9329147  63.9539223  32.3579445   4.4229755  12.6792765
  33.2248383   4.0173254  12.6923666  31.9656944   4.1234221  11.8591299
  23.0791779  70.2672882  21.5151978  23.2346687  70.5005417  20.5999680
  23.1038704  71.1022034  21.9826736  73.5246964  67.3134308  21.6649780
  73.3265152  66.5979156  21.0608330  72.7841721  67.3269653  22.2713451
  70.8049850  63.7057266  12.3942728  70.0171661  64.0220184  12.8364649
  71.3255920  64.4939270  12.2395573  66.3628769  63.5816116  18.8592911
  66.9205933  62.8037186  18.8675346  66.3139801  63.8314896  17.9365768
  52.0363045  69.8537674  74.9655762  51.3382263  69.2401733  75.1945190
  51.6873627  70.7129288  75.2028809  70.5844040  16.7119579  64.9606781
  70.7253647  17.0374680  65.8497314  70.9193802  17.4076614  64.3949738
  21.4227810  21.9747734   9.2330961  21.2564201  22.5213528  10.0010843
  21.2777824  21.0798149   9.5401115  35.9091988   8.7410717  58.0805397
  35.3733673   7.9585462  57.9510498  36.4180870   8.8191195  57.2735825
  46.6426201   5.6695995   9.4140348  46.2444839   6.5386972   9.4629021
  47.0102615   5.5252013  10.2859411  82.1460190  51.1494293  83.2703476
  82.9701462  50.7188950  83.0429764  82.3834457  51.7748604  83.9549637
   9.3131323   2.8577995  42.4379044   9.2268715   2.9245927  43.3888702
  10.2004519   3.1670818  42.2555885  50.8667564  50.8437424  51.3068161
  51.7752686  50.6910515  51.0469666  50.8403511  51.7682190  51.5535469
   1.6090509  17.0402451  36.4940834   2.1173532  17.4487324  35.7933731
   0.9643149  17.7035351  36.7402420  47.3823776  55.5041161  42.4592323
  47.7240753  55.5500603  41.5662804  46.5483055  55.9721832  42.4208946
  26.2101536  55.5120125  14.1769505  26.1286564  56.4647369  14.1332712
  25.3864136  55.2187653  14.5664272  71.4232483  34.2890930  35.0571861
  72.0588226  34.9371300  35.3610229  70.9800720  34.7142181  34.3229523
   6.7202930   9.5719252  57.6862564   7.6006231   9.6568928  58.0523605
   6.8111825   9.8538713  56.7760506  36.2274933  57.8483391  77.6642609
  36.8346443  57.1094780  77.7052689  35.3753433  57.4704514  77.8816757
  73.6562805  22.9835587  51.8116264  74.2643967  22.5134220  51.2411919
  73.5717545  23.8485470  51.4105263  33.0740585   2.3647184  15.3280506
  33.4038963   1.6111119  15.8174524  33.0180092   2.0569277  14.4234209
  51.0505104  40.3760147   1.2164979  51.4417763  40.7452049   0.4247658
  51.4036713  40.9087639   1.9290202  83.6190643  71.0918884  87.2936478
  84.3375168  71.5556946  86.8636017  84.0507507  70.4319077  87.8361511
   4.3132949  35.3960381  79.0011444   3.3728733  35.5555687  79.0810776
   4.4004312  34.4444656  79.0572968   7.0087543  42.1314011  57.3166428
   7.8424826  42.0274162  57.7752457   6.3466511  41.8993912  57.9678116
  58.2808075  58.9200096  24.5742435  57.5007896  58.5492859  24.1614857
  58.4557953  59.7207298  24.0798187  53.6597328  15.5721130  69.8904343
  52.8168449  15.4239216  70.3191681  53.4324303  15.9336214  69.0337677
  20.0404568  20.2095318  28.4950924  20.8841839  20.5428219  28.8005028
  20.0389977  20.3872337  27.5545330  16.1413021  45.3555145  32.4250107
  16.9020309  45.9195137  32.2856293  15.5242100  45.6120071  31.7397060
  40.6491318  52.2688713  21.8982468  40.8566704  53.1286240  22.2642860
  41.2333870  52.1818504  21.1450481  42.0647316   3.1511769  82.2446594
  42.3572884   2.2724426  82.4864578  41.9424362   3.6013548  83.0804901
  28.9528885  43.5884552  83.5928497  28.6302319  42.6908569  83.6731033
  28.2041912  44.0832329  83.2598572  70.8201828  66.8791275  14.3476925
  69.9073563  66.5912476  14.3581190  71.1794434  66.5664062  15.1779709
  34.3696136   0.6754147   6.8435626  33.9061241   0.2788545   7.5812278
  35.2221031   0.2402061   6.8344440  50.4440002  28.7171803  23.2917194
  50.8240166  28.4447880  24.1269569  50.4222908  29.6729736  23.3388214
  86.0611496   2.5018165  45.1742859  86.9093323   2.9365592  45.0859108
  85.4496689   3.2091355  45.3793030  61.2955513  11.3930311  81.8738785
  61.8257141  10.5970764  81.9140472  61.8846931  12.0882559  82.1668091
   2.3793018   9.1633234  26.5207481   1.7235479   8.7716198  27.0976257
   1.8806603   9.7576389  25.9600544  59.9685097  64.1442108  52.2088547
  59.6614494  63.4862785  52.8326073  60.9189224  64.0318832  52.1906967
  61.9875984   7.0197363  24.0962543  62.7842674   6.9944186  23.5662479
  62.2962532   6.9245420  24.9973106  26.9657803   7.6381917  23.5459042
  26.6037273   7.3062248  24.3674545  27.3880672   6.8780499  23.1457920
  58.6295929  69.3094482  86.8362427  57.9419060  69.7750092  86.3602524
  58.2091637  69.0260620  87.6481323  79.2463303  25.5943012  10.7418385
  78.3040924  25.7616692  10.7622757  79.5217743  25.6635818  11.6559286
   1.4478573  33.5826340  10.4229832   1.8813509  32.7319298  10.3550539
   1.1148641  33.7528038   9.5418539  68.7314758  10.8582430  69.9748764
  69.2318344  11.0375710  69.1788177  68.5638428   9.9162989  69.9453125
   5.4031067  11.4896488  81.8672714   5.2089062  10.5743818  81.6652679
   6.3591747  11.5347023  81.8789291  76.0753937  45.4937592   4.5437679
  76.2364960  46.3649673   4.1814528  75.8498001  44.9565048   3.7843614
  14.1127100  48.1169510  24.3570881  14.9678383  47.8719330  24.0035992
  14.0010986  47.5558891  25.1245422  59.1606560  42.4194908   0.2642069
  59.8278656  43.0857010   0.0992046  59.5519180  41.6051750  -0.0520792
  19.9511585  57.2782974  88.0131149  19.3310604  57.9386902  88.3222961
  20.6766663  57.3207283  88.6360703  78.7926788  10.6070223  55.5641327
  79.3940887  11.3516273  55.5540886  78.2105865  10.7792616  56.3042221
  79.0564270  16.5755997  82.5723495  79.1915131  16.6583805  81.6283493
  78.2414856  17.0488529  82.7400970   8.3499107  36.9098129  28.7082901
   7.5378304  36.8354568  29.2095165   8.1468840  36.5099640  27.8626328
  40.7750473   1.9610251  28.5773697  40.7898979   2.7565546  28.0452576
  41.6400299   1.5714289  28.4498978   2.2932897  39.5798340   4.0138111
   2.6581497  40.4236450   4.2804389   2.4216652  39.5522270   3.0656605
  66.5350189   6.9774184  63.8740463  66.4649582   6.9613776  64.8285446
  67.3654022   7.4214764  63.7022667  25.3179760  62.4149055  45.1417465
  24.6355324  63.0506935  44.9266281  24.8390293  61.6240654  45.3895569
  76.2341614  58.7188530  63.1314812  76.9775009  59.1084251  63.5918159
  75.9799652  57.9730911  63.6750450  38.2982292  49.5393257  80.1389847
  38.2558937  48.8466110  79.4797516  38.9984283  49.2642517  80.7308350
  11.2003183   7.7198310  34.7828217  12.0372829   7.7729311  34.3214073
  10.6179981   7.2688026  34.1715050  15.6618099  57.5149040  40.1169319
  16.5960274  57.7192078  40.0753441  15.5259371  57.1956406  41.0090332
  18.9596138  55.6277809  36.2816734  18.5353622  55.0261688  36.8934784
  19.7785530  55.8706322  36.7136383  12.6111164  62.6705666  10.6596041
  12.4783745  62.9604645   9.7570696  13.5546827  62.5248604  10.7280455
  37.1356812   0.4118376  24.1024399  36.5835724   0.0416808  24.7911987
  37.4733963  -0.3497033  23.6310196  31.7094784  10.7263584  79.4677582
  32.1286545  10.0441914  79.9923325  31.2572994  11.2764587  80.1074142
  61.5870438  21.3566608  70.2853470  62.4022217  21.7835979  70.0218277
  61.3695107  20.7820015  69.5514069  32.5786819  48.0558624  70.9089203
  32.2593727  47.4375877  71.5661926  33.5114937  48.1500282  71.1018600
  85.6515045  43.0587807  18.0691395  85.4141541  43.9730453  18.2241192
  86.4863129  43.1037674  17.6029797  83.9687119  38.5404739  75.6457901
  84.4725571  37.7268410  75.6262360  84.2004776  38.9853630  74.8305664
   8.7470255  57.9526939   7.0878448   7.8490858  57.8725471   6.7661123
   9.0471087  57.0492783   7.1879597  17.0401878  10.3923960  70.4920959
  16.6366558  10.5335035  71.3485260  16.3808270  10.6890926  69.8648453
  11.9858389  67.4721909  30.8460121  12.3535414  68.1515961  31.4111977
  11.8840094  67.8979721  29.9947948  74.0979538  56.0470123  36.2465286
  75.0233688  56.0615578  36.0023689  73.6576233  55.6536446  35.4931335
  33.4471436  22.3515549  35.0684547  33.4702682  21.5505848  34.5448685
  32.5790634  22.7199898  34.9043579  20.1314545  42.9156036  31.2348042
  20.3244743  43.6931152  31.7586823  19.8465157  43.2613983  30.3889523
  59.7394257  60.5887756  47.4680939  58.8038177  60.4542465  47.3172035
  59.8110046  61.5084343  47.7237129  70.5664902  31.9835949   3.2237358
  70.8844147  32.7728958   2.7853734  71.2174149  31.8083706   3.9033127
  50.6953392   6.4805179  75.9086609  50.0642166   5.7620215  75.9496460
  50.4359245   6.9834247  75.1366348  67.8755264   7.8920460  44.0609589
  68.7186508   8.1931448  44.3996429  67.8702469   6.9506493  44.2340965
  27.3770714  11.0919819   9.1447716  27.5315285  11.9026108   9.6298037
  28.2152100  10.6307096   9.1761169  68.3592453  42.0975838  48.8446083
  69.2722168  42.3851242  48.8513260  67.8529129  42.9060822  48.9232788
  60.6237564  58.1291428  84.5875320  60.0726891  57.5736389  84.0361938
  60.0067673  58.7022781  85.0425797  80.4266205  32.2973137  48.0333862
  79.7737427  31.7627697  47.5814552  81.2638855  32.0144844  47.6656532
  18.2379055  44.3824120  15.8782749  17.9887791  45.1511726  16.3912773
  17.4479656  43.8422394  15.8572416  25.8968449   8.7656078  73.2462234
  26.7608776   8.6201735  73.6316147  25.4634190   7.9139647  73.3016891
  58.5860062  35.8984566  19.8135147  59.4269638  35.6251678  19.4470005
  58.7924919  36.6748734  20.3338737  70.1303024  38.8686752   4.9280505
  70.8480988  39.4603958   5.1535974  70.5451431  38.0101738   4.8436642
  13.9394608  68.9912796  13.0962152  13.6198301  68.4441986  12.3787384
  14.5602598  68.4332657  13.5646801  64.1678543  61.4830666  56.1891174
  65.0199127  61.5329132  55.7558212  64.3760376  61.3166046  57.1084557
  72.3396149  11.4238157  23.4496021  72.3579712  11.6478357  24.3800373
  73.2608871  11.3282013  23.2080421   0.5605572  55.8057365  55.5146217
   0.6718368  56.7165413  55.7871666   0.1920089  55.3692284  56.2826462
   9.4322643  28.8244572  27.5223427  10.2444038  29.2758160  27.7524242
   9.6027918  28.4503117  26.6579552  35.0794983   4.5618458  50.2151184
  35.5609016   4.6356921  51.0391541  35.4382057   5.2581716  49.6649437
  75.6081619  33.0821877  50.3314171  76.0786591  32.2523880  50.4107361
  74.7092056  32.8287392  50.1219521  68.2332993  39.0138168  49.7800560
  68.7942657  39.1707764  49.0205040  67.5902252  38.3739243  49.4747200
  13.3962717   3.8338788  48.5691872  13.7600737   4.6238642  48.9689407
  13.7833319   3.8082342  47.6941109  74.6448441  70.0263748  19.0378895
  75.4319839  69.5774231  19.3462391  74.1579514  70.2315750  19.8360538
  68.7189178  51.8161125  25.6551552  68.5646057  51.8965263  24.7139053
  69.0321503  52.6805916  25.9212246  68.8004532  26.3408585  23.5662251
  68.3057251  26.5604115  22.7767506  69.4483719  25.7004242  23.2724953
  66.8106766  21.9618816  38.0214577  66.7563934  21.2180958  37.4214020
  67.4150467  21.6740360  38.7056427  75.0312347  33.4150505  39.0558205
  74.1036530  33.2559776  39.2305145  75.3578873  33.8288918  39.8547363
  73.8073807  13.2550497  67.4808655  73.0334854  13.7924862  67.6495972
  74.4579620  13.8710651  67.1439590   2.3899186   6.2975626  83.0566330
   1.8480302   6.0846672  82.2968521   2.9202509   5.5136709  83.1997833
  76.0632477  55.0604057  84.0568695  75.1200790  55.1915398  84.1541977
  76.1638260  54.6845665  83.1823044  -0.1409778  55.6887932  16.1903229
   0.7322860  55.6663284  15.7989950  -0.2833917  54.7976952  16.5095310
  70.7510986  71.1090698  14.5430393  70.6448822  71.9176865  14.0419464
  70.0729065  70.5255737  14.2027254  67.4850616  54.3805885  45.9878883
  67.1323395  55.1280022  46.4707794  68.4127045  54.3597221  46.2229996
   5.0543180  13.9951744  33.7140923   5.9357581  13.7582073  33.4257507
   4.8004394  13.2915678  34.3113480  29.4858532  43.0770340  25.9265480
  29.7614746  43.6444817  25.2066402  29.5892525  43.6169357  26.7101593
  64.4230118   1.0523405  29.6021996  64.4402542   1.8110998  30.1854839
  64.3678970   0.2992385  30.1904449  15.8504839  23.5730057  61.3627777
  16.4823112  22.8766861  61.5421257  15.6019211  23.4410686  60.4478798
  39.5982895  65.0525208  69.4103012  39.9885979  64.4883194  68.7427902
  38.6599770  64.8703918  69.3590469  46.0913162   9.6693773  25.8266544
  46.9047089   9.9580641  26.2405205  46.3762894   9.1578360  25.0694561
  33.5945740  34.8807945  17.3836269  33.9393234  34.6510124  18.2465172
  32.8142548  35.4033165  17.5688419  35.3831062  45.0104752  87.1442261
  36.3294945  44.8730164  87.1852798  35.2463188  45.4930878  86.3289948
  87.0114746  29.3675194  76.8778000  87.1141129  29.9496231  76.1249008
  86.3607407  28.7244148  76.5963745  67.5547638  55.4890213   1.0728589
  66.6176605  55.6272469   0.9351490  67.9225922  56.3714485   1.1203506
  27.5809002  12.1009064  35.5323715  27.6676426  12.2013197  34.5844154
  27.0916176  12.8748331  35.8114281  75.8380356  13.5686321  18.0850582
  76.1922684  14.3143139  18.5695267  75.0397186  13.9049644  17.6778755
  75.5831451  56.3683777  57.3148842  75.7590637  57.0687981  57.9431343
  75.2652435  55.6410637  57.8498459   4.4206085  43.4758873  49.4479980
   5.0373945  44.1214943  49.7929611   4.9616442  42.7132378  49.2433624
  10.4677076  50.8218575  53.2026215  11.1877480  50.5172195  52.6503792
  10.2534513  50.0690804  53.7536697  60.3725586  71.2726440  85.8852768
  59.8195305  70.7888794  86.4987640  59.7575645  71.7891464  85.3644791
  70.5768509  36.4484558   8.5964594  70.7839890  37.1831703   9.1739731
  69.6537552  36.2619820   8.7678022   7.7934771   6.5373969  20.8216591
   7.6891460   5.7650127  20.2659893   6.9642677   7.0078330  20.7360268
  64.9161301  16.6756973  32.4048500  64.6236649  16.7710781  33.3112717
  64.7051697  17.5148640  31.9955502  85.7263184  12.3614264  33.9821129
  85.1673813  13.1371651  34.0273666  85.2942200  11.7215443  34.5478630
  58.2961922  20.8869629   7.0889158  58.3454132  21.0513134   8.0306158
  57.6752434  21.5390091   6.7641196  10.0839958  45.9203148  21.0104504
  10.3290377  45.0475998  21.3179474  10.3180780  46.5032234  21.7327061
  44.9114571  12.6525393  83.4654541  44.8033218  12.2492895  84.3268051
  44.0181694  12.7709093  83.1425629  66.3566742   7.3977661  24.9042339
  66.9848022   6.6802402  24.8214931  66.6942444   7.9296913  25.6248817
  37.9974785  16.4784431  42.6900597  37.9729996  15.5252857  42.6056671
  38.9294815  16.6904945  42.7413673  48.2548141  12.4852047  24.0960426
  48.2679405  13.1135464  24.8180161  49.0613327  12.6605234  23.6112499
  25.5494328  64.7148666  30.7528019  26.4502850  65.0382614  30.7422485
  25.3404713  64.6183548  31.6819153  12.1453238  66.9858856  38.4443703
  13.0361795  66.9143829  38.7871475  12.2283554  67.5535583  37.6781578
  40.5766106  26.8769684   5.5600791  40.7415619  26.7028694   4.6334109
  39.7987709  26.3586750   5.7664008  10.1194868  31.8946724  38.9791794
   9.2992582  32.2980614  38.6950417  10.5336123  31.5976677  38.1689186
  49.2606888  38.6092224  70.0298843  50.0049553  38.9299088  70.5392609
  49.2297096  39.1826286  69.2640686   4.5807114  60.2186470  47.0956192
   3.9206922  60.9029083  47.2069321   4.1403289  59.4142113  47.3698120
  39.7433281  17.5396252  85.1716232  40.0600281  17.9660072  84.3752975
  39.7497520  18.2318325  85.8327103  85.3326111  15.1419506  67.9880524
  84.5834503  15.3658714  68.5401764  84.9689026  14.5720634  67.3104248
   0.9977677  46.5438499  82.9235458   1.9545469  46.5446320  82.8951797
   0.7449635  47.3648529  82.5013199  56.8478355  52.9173737  77.7252045
  57.5198364  52.2481689  77.8548584  56.0197296  52.4469414  77.8209457
  17.4226418  35.3285294  11.0390072  17.8939419  36.1545525  11.1476030
  17.2483139  35.2739754  10.0993977  63.9683304  15.1152802  24.0331345
  63.4142075  15.5392075  23.3777981  64.2380753  15.8260899  24.6147022
  14.1693344  64.9531708  42.4418716  14.1269369  64.1756516  41.8851852
  13.6322336  65.6024399  41.9877777   0.8972440  59.9031410  66.6899261
   0.5017180  60.7601433  66.5307541   1.6307912  59.8602409  66.0764923
  51.3237038  24.7750015  24.5507774  50.3972969  25.0034523  24.4745216
  51.3277550  23.9497452  25.0357151  27.2512417  22.0029659  16.3600941
  27.6326656  21.7735081  17.2075005  26.3076229  22.0225086  16.5195732
  18.7559013   8.9115725  80.0305939  17.9042511   9.3449640  80.0862274
  18.7094784   8.2082195  80.6781769  23.2595348  66.9700241  18.1432896
  22.5228252  67.5012054  18.4455109  22.8864403  66.4067535  17.4652386
  84.1486282  31.6644402  15.5805502  84.8078766  32.0597572  15.0101576
  83.3886108  31.5337658  15.0135107  34.8354034  69.7777786  33.3349533
  35.2391396  70.2270203  32.5923805  33.9663353  69.5286713  33.0204697
  12.3633261  42.6497536  87.9160843  12.7699261  42.3401260  88.7254257
  11.4260855  42.5083580  88.0495758   3.4752994  21.3796635  37.4124413
   2.6997981  21.7820969  37.8034363   4.1596274  21.4868412  38.0730782
  67.1722641  38.5569725  41.1771736  66.5517349  37.9915352  41.6370087
  67.2414780  38.1749458  40.3022461   9.9509878  11.2219391  13.0657282
  10.3171577  11.0555477  13.9343281   9.0371504  11.4536343  13.2314091
  79.9669189  18.7453423  30.6842995  80.0887756  19.2948627  29.9100838
  80.8460693  18.6489964  31.0504112   9.9142408  44.5812683  58.0117416
   8.9830341  44.7838058  57.9219360   9.9335289  43.7415237  58.4707451
  10.7152863  17.2319202  25.9493752   9.9380665  17.7550774  26.1455059
  10.4739294  16.3406162  26.2014732  69.0803909  41.7700348  39.1796608
  68.1852493  41.7097816  38.8460121  68.9762344  41.9637260  40.1112556
  47.0251045  58.2970047  61.5970573  46.8336220  57.8714409  62.4327965
  47.9718513  58.2030449  61.4918060  86.6236343  57.9649544  27.9936295
  86.8883362  57.1872902  27.5022984  85.7636871  57.7419281  28.3499603
  67.9069061  58.8408470  16.0380058  67.8617859  57.9044647  15.8446589
  68.1228561  59.2484627  15.1992865  38.0294838   8.3324432  85.1739578
  37.9189758   9.0213194  85.8292999  38.1679001   8.8035212  84.3522797
  72.2927246   4.4580412  76.8463669  72.1833649   3.6110649  77.2786865
  71.4573898   4.9054914  76.9813690  36.4362946  60.3219261  76.0413895
  36.2955589  59.4964294  76.5050430  35.8632774  60.2677650  75.2765656
  78.8962021  38.8714066  82.4860764  79.1265182  38.5774536  81.6047211
  79.6271973  38.5839233  83.0331039  80.5436096  18.1544056  87.4278107
  80.3303375  18.1343098  86.4948883  80.4503555  17.2459049  87.7144470
  68.8675308  25.0932217  60.1073456  69.1215057  25.5616379  60.9025269
  69.2864151  24.2365112  60.1899033   0.1260690  55.5380783  31.2079372
   0.7385293  55.0996094  30.6172867  -0.6892621  55.0449829  31.1166992
  20.7741280  12.2896070  71.8080063  20.8239937  12.3487997  72.7620773
  20.2610855  13.0544157  71.5470734  77.3241577  50.8213387  44.5784988
  77.9860687  50.2667122  44.1655960  76.4893494  50.4305191  44.3204422
  12.2136583  26.3109798  16.6392441  11.9954653  25.7891388  15.8670359
  11.3729668  26.4630241  17.0709286  23.8412418  35.4889145  31.1568832
  24.4054146  35.6843834  31.9050369  24.4165649  35.0478210  30.5318470
  41.5804939  22.2152100  36.5299301  41.8168640  21.3695183  36.1489220
  40.6477699  22.3121128  36.3379288  81.0701447  34.4562645  76.3407288
  81.7272110  33.7602882  76.3513336  81.1712418  34.8680496  75.4825668
   1.9338139  70.8266449  83.8471298   1.4679689  71.6045761  84.1538010
   2.3858593  70.4965363  84.6236038  86.3588257   4.5057306  57.7363892
  85.8757706   4.9400125  57.0333328  87.2468719   4.8565211  57.6690025
  15.3199072   9.7558098  21.2176056  14.6780910   9.0458937  21.1996403
  15.9023008   9.5708675  20.4808235  14.5172529  34.4453659  37.8069801
  14.2007647  34.6995239  36.9401093  15.2540960  35.0328751  37.9746895
  27.7065735  44.9923897  81.6132736  27.9985886  45.8987579  81.5160370
  27.5945320  44.6792450  80.7157135  47.7735405  55.0208473  37.3442726
  47.5750656  54.5930595  36.5113029  47.6391106  54.3385010  38.0019684
  76.2702103  41.1810951  53.1966286  76.9992905  40.8985405  53.7487450
  76.4130096  40.7324600  52.3632202  36.9278870  66.3800125  63.9500351
  36.4520874  65.6913986  64.4144287  36.2516937  66.8531418  63.4651184
  39.2180634   8.6068745  60.3429489  39.2555466   8.7077961  59.3918228
  38.4862709   8.0080347  60.4916115  72.9826202  49.5632362  81.1432343
  73.2784271  50.4330406  80.8745728  73.7716522  49.0221443  81.1135178
  55.9168167  23.4083347  20.1445961  54.9661026  23.4920387  20.0713253
  56.2538948  24.2631245  19.8763714  59.1180153  35.2636261  75.3514481
  59.4191170  36.1713486  75.3915634  58.7842484  35.0829353  76.2301788
  50.7969704  51.3348351  48.0130234  51.4034119  51.1244926  48.7231064
  51.1297722  52.1551437  47.6489258  45.5154343  16.9217834  34.6920738
  45.6748505  15.9785328  34.6589355  44.7512550  17.0157051  35.2607918
  26.2883453  62.9946671  66.5740967  26.6519756  63.2814407  67.4118118
  25.9849796  63.8006248  66.1562042  67.2068863  12.5373011  86.8482437
  67.6400757  13.2997236  87.2320404  66.6254959  12.9026337  86.1813583
  71.4646301  17.1628761  48.1277657  70.7637405  16.8488178  48.6990356
  71.8090897  17.9363174  48.5742722  19.8607025  68.0923920   6.3500195
  19.8069668  68.0851822   7.3056827  19.3020878  68.8228302   6.0842242
  15.0702686  56.3962975  31.5901356  14.6325865  55.6455498  31.9914398
  15.0379286  56.2181053  30.6502228  46.7332993   5.2176943  48.9037209
  47.0859833   4.3519301  48.6980515  46.5635834   5.1896787  49.8453369
  17.7077198  68.4220657  60.0359116  17.7173729  69.0535736  60.7551689
  18.4408112  68.6828079  59.4783936   6.4526515  46.1219788  63.0770302
   6.1728396  47.0305519  63.1885376   6.5442085  45.7883110  63.9695053
  44.9395103  64.4244385  19.8969936  45.7884293  64.0340424  19.6892567
  44.7709389  64.1633835  20.8023472   7.1660852  41.1772804  45.2380676
   7.8772783  41.6824455  45.6320801   6.4416757  41.7988815  45.1668129
  57.8796005  10.8433962  49.8365173  58.6800346  11.0893288  49.3727837
  57.1866226  10.9330540  49.1823196  70.7549362  40.2116470  84.0723114
  71.4439545  40.7892418  84.4007492  70.4821548  40.6100883  83.2458344
  12.0548058  26.7099552  22.6934490  12.1423960  26.9950485  23.6029987
  11.1111956  26.6194687  22.5606232  85.2041168  32.2174911  49.4513588
  85.4755325  32.0914383  48.5421371  85.7059937  31.5676880  49.9434090
  65.8708801  50.3125839  11.7492418  66.4012222  50.1562157  12.5305977
  66.1863022  49.6705246  11.1132412  76.8486099   3.7754753  55.9871254
  76.4083405   4.6157870  56.1147041  77.0945511   3.4975481  56.8694496
  84.5498123   3.9412069  65.8780899  84.1700363   3.9626150  64.9997101
  85.0582199   3.1304717  65.8995209  58.9481392  67.2089462  39.3970070
  59.3987808  67.4227371  38.5800323  58.0281258  67.4068375  39.2219353
  30.6142464  53.5819931  22.8293495  31.3096504  53.0273209  22.4758186
  29.8433723  53.0149727  22.8511333  25.8891048   9.8946400  11.7153034
  26.5779877  10.4302416  12.1087551  26.3540497   9.3037586  11.1229191
  84.6608047  55.3243484  11.9022894  83.8446655  54.9817886  11.5378685
  85.0846558  54.5627937  12.2980366  50.9923592  35.0413818  66.3916473
  51.5922050  34.8223343  65.6786041  51.0584412  35.9925156  66.4765778
  30.7426739  40.4879799  28.2690678  30.2118816  39.8739243  28.7764397
  30.6822948  41.3123589  28.7517586   0.5893260  62.4612846  14.0677080
   0.5137292  62.4831390  15.0216675   1.2614815  61.8018379  13.8957539
  41.1874580  54.6525764  41.6792221  41.6625633  54.0766869  41.0801735
  40.2707520  54.5666504  41.4174957  36.4294128  69.8158035  77.2849274
  37.1905441  69.2626419  77.4607849  35.9468117  69.8289871  78.1114578
  68.2927017  67.5970612  49.9901581  68.9498291  68.2926025  49.9650383
  68.6509552  66.9509583  50.5987968  80.9556046  60.7897682  87.8336334
  80.6466370  61.1474571  88.6660004  80.8536072  61.5096054  87.2110062
   9.2764769  55.7427521  48.2664909  10.0919571  55.5627785  47.7986908
   9.4475927  55.4583244  49.1642952  60.2439384  19.8015709  38.6086960
  59.7815933  19.2260799  39.2180214  61.1094475  19.9191532  39.0002289
  31.8329487   2.6084015  46.6027565  32.5950127   3.1856611  46.5552216
  31.6205578   2.5684161  47.5352364   7.9439697  54.3173714  34.9335899
   8.2822409  55.1896858  35.1357651   8.3478622  54.0921707  34.0955048
   8.2783680  47.6120262  13.5517483   8.5334673  46.8605232  14.0869141
   7.7915001  48.1782570  14.1505575  19.8451061  53.7254448  42.5807419
  20.1628189  54.3839569  43.1985245  19.8685150  52.9045944  43.0725670
   2.8210609  60.9287682  14.3971233   3.0526354  60.3243256  13.6919613
   2.5530922  60.3617630  15.1202612  70.7825089  25.8451290  73.2686615
  71.3479156  26.2044373  72.5849609  71.3815384  25.3887901  73.8595505
  17.6675358  66.0437088  75.1847839  16.8311882  66.4468918  75.4175949
  18.3147507  66.5143890  75.7099533   7.1275153  47.6469231  42.5475426
   7.0162048  47.2337952  41.6912918   6.3280754  48.1583099  42.6724815
  70.3742218  29.3799152  36.8343277  70.8066254  30.0888863  36.3582840
  71.0354538  28.6899796  36.8890190  19.0528736  45.9184685  49.2401695
  19.7487946  45.2665291  49.3232307  19.3590183  46.5092583  48.5520782
  23.3800335   8.5960512   1.3926995  24.1824951   8.1074781   1.2094434
  23.6778278   9.3836784   1.8478851  53.7688904  57.9363251  66.8593140
  54.1709557  57.5179634  66.0980301  53.2796326  57.2341080  67.2879715
  40.7481117  25.1557541   2.8941481  40.0148277  24.8324986   2.3706646
  41.3017845  25.6225910   2.2682543  46.4936295  59.8477364   9.8082724
  47.1871529  59.7009163  10.4514685  46.5713272  59.1125565   9.2002382
   5.8618698  24.1306267  39.9464722   5.8510180  23.1767387  39.8676567
   5.5374613  24.3016052  40.8306427  64.6338654  36.1454353  57.2254066
  65.4188385  35.6935883  57.5350494  64.9649048  36.9365616  56.8002434
  19.4420147  55.0600624  14.2903357  19.4711075  54.7277260  13.3931532
  18.6049461  54.7481804  14.6342554  16.9556046  48.4079895  64.5862961
  16.3963795  47.8569908  65.1339340  17.2576466  47.8251419  63.8896713
  36.6973877  60.9991035  69.2223434  37.3375893  60.9933434  69.9339218
  36.7589722  61.8795547  68.8518753  56.1954613  36.0840721  41.7216415
  57.0505333  36.0623627  41.2919769  55.5658340  35.9884567  41.0070343
  27.7297268  44.5711632  30.3671112  27.0651798  45.0496597  29.8714771
  28.5165997  44.6228561  29.8245354  20.0651875  56.7600708   5.0343394
  20.1644878  56.3760376   5.9054818  20.9615631  56.9236069   4.7410831
  66.8514328  67.0951614  66.6488724  67.6451111  66.6476593  66.3555298
  66.9230118  67.9757996  66.2806473  77.8500824  65.0440140  30.9786663
  76.9909439  65.0479584  30.5566502  77.7563629  64.4300003  31.7069759
  36.5607758  47.7831573  10.5130234  36.9694061  48.6447983  10.5956116
  35.9929771  47.8598557   9.7462406  25.6436291  17.2876148  63.3304825
  25.1808414  18.0945759  63.5560303  24.9686394  16.6093903  63.3555908
  26.1637535  34.3910713  21.3392448  26.9786644  34.8030586  21.6263275
  26.3415432  33.4516029  21.3842010  31.8489723  49.6999969  26.8314857
  31.0828056  50.2489548  26.6645393  31.8836346  49.1033592  26.0837879
  46.1970291  46.1338463   2.3106589  45.3170776  46.3058167   2.6458397
  46.6595306  46.9654732   2.4141955  73.6320801   8.8990574  55.8226089
  74.1655045   8.1049786  55.8561974  73.3747406   8.9760399  54.9038696
  84.3007431  26.6051121  10.1084309  84.2705612  26.6106968  11.0651388
  84.7397995  27.4238338   9.8778677  33.2124252   4.8522859  27.2388287
  32.4936256   5.3834615  26.8961754  33.5087967   4.3375211  26.4882202
   2.4101040  19.5607700  53.6291504   1.6309011  19.8498821  53.1542931
   2.2492812  19.8230782  54.5355492  15.5023832  42.3451996  52.5399132
  15.6969461  41.5406075  53.0205460  16.3540745  42.7660294  52.4226227
  18.4317646  59.3554230  66.8174973  19.0603142  59.1312981  67.5037384
  18.7601967  58.9093056  66.0368958   2.1054206  64.8319855  22.2896538
   2.2626085  65.6115570  21.7569313   2.5729761  64.1321106  21.8337975
  72.8940964  45.2197533   4.3276634  73.3268356  44.7121582   3.6411409
  72.3878326  44.5737076   4.8201575  14.6281033  10.3243322  30.5994701
  14.2265072   9.4867077  30.8304195  15.1720495  10.1270065  29.8369637
  24.4838428  58.2379532  32.3362694  24.1861153  58.4496422  31.4515209
  23.7549973  58.4933548  32.9017677  32.3760719  46.5977135  77.3343201
  32.8426247  45.8441505  77.6958542  32.3005180  46.4066467  76.3994370
  19.0177670  59.6848412   3.8683426  19.8201923  60.0628510   3.5085452
  19.2909737  58.8410454   4.2283387  62.4683723  43.2316093  41.8994751
  62.2796822  44.1696968  41.8745461  62.0578079  42.9261322  42.7083931
  54.7685890  48.7061844  20.2499466  54.5495911  48.2149811  19.4581203
  55.5868111  49.1541481  20.0352917   1.3433299  42.0844765  43.9114227
   1.8763653  42.8013344  43.5675888   0.4624836  42.4527016  43.9803581
   1.7004447  46.9955139  58.3302841   1.7522420  47.2015495  59.2636108
   2.4068649  46.3663063  58.1843414  80.6898499  16.2884789  33.6369514
  80.9559631  16.9807549  33.0318336  80.2216949  15.6584272  33.0891380
   3.7823060  59.4452477  66.0304794   3.7533011  60.3570671  65.7406998
   3.8372362  58.9381485  65.2204971  56.4723473  17.7258530   8.1004944
  56.6819992  17.0905342   7.4159160  56.8748016  18.5413609   7.8018141
  67.8892746  47.6433449  22.4961700  68.5848541  48.2922020  22.3894539
  68.1650162  47.1179504  23.2472744  84.8728409  50.1104355  58.5396500
  84.0576782  50.5782661  58.3583298  84.7893906  49.8279724  59.4504089
  66.5419159  48.1964684  88.0697708  65.8091583  48.7789459  87.8697281
  66.2434845  47.6859245  88.8224411  84.2217712  67.2763138  31.2395325
  84.9081650  66.8123093  30.7601528  83.9048080  67.9373627  30.6240864
  61.9333115  52.1389771  71.3429184  61.6490059  51.4418411  70.7518158
  62.8445854  51.9258232  71.5438690  45.4810753  66.7545090  73.4380569
  46.0581093  66.7392120  74.2016220  45.4246101  65.8396759  73.1621552
  54.7382011  44.9328308  87.6948090  55.1738358  44.1664009  87.3219299
  53.8422470  44.8849487  87.3613358  32.4055595  30.2241344  83.5170441
  32.5711670  31.1561642  83.6589127  31.5776863  30.0567036  83.9673996
  37.5077515  68.4941101   8.1930962  36.7903824  68.4797974   8.8266668
  37.7824707  67.5799637   8.1216516  35.7972565  71.2652588  68.1005707
  36.4153023  70.8582993  67.4934158  34.9799194  70.7850189  67.9680634
  43.0582886  29.3442879  19.5800934  42.6435738  28.7547588  20.2099323
  43.1566620  28.8169842  18.7873096  47.0091362   5.8772774  15.9533224
  46.0688095   5.9752064  15.8035707  47.2094994   4.9926133  15.6476164
  53.9490509   7.8841653   5.6234794  53.8701172   8.7648449   5.2568660
  53.3009567   7.8588042   6.3274398  60.9858704  64.4493484  35.5273438
  60.4875832  64.9982376  34.9218216  60.5952835  63.5799141  35.4392548
  16.6446133  33.3174782  87.2950897  17.2973976  32.6420097  87.1111145
  16.0397549  32.9044876  87.9113846  18.3933640  66.5065842  54.4570808
  17.5820866  66.0023651  54.3952026  18.7936726  66.2165909  55.2767677
   2.9365067  38.7047844  60.3608398   2.9827268  38.0656204  59.6498070
   2.4976890  38.2394943  61.0730057  61.8035965  24.4931316  83.9727783
  60.9944077  24.7979393  83.5622406  61.5782471  23.6388702  84.3411331
  51.6062012  55.6994629  39.0648575  50.7892227  56.1323051  39.3126869
  51.9672318  55.3781662  39.8910904  66.6354523  21.3128738  47.5482597
  66.7847977  21.4004269  46.6068459  67.1856613  21.9899540  47.9420433
  51.9525986  22.7917156  82.2880554  51.2215958  22.9909611  81.7031097
  51.6850433  23.1473694  83.1354980  62.6081543  33.3037872  25.6920834
  63.2088661  32.6010551  25.4440060  62.3567619  33.7082520  24.8617573
  80.4201660  55.8245888  70.9868698  81.0561218  55.6329956  71.6761398
  80.9536591  56.0439262  70.2229919  67.2622757  70.7842178  20.9723492
  66.5886154  71.1998825  21.5105228  68.0485916  71.3079376  21.1261311
  84.0845184  61.5736771  69.0187988  83.5425873  61.7243538  68.2443085
  84.7452469  60.9441681  68.7300262  74.1990356  27.9949589  16.9100266
  73.8268127  28.8721523  17.0006275  74.6622238  28.0166397  16.0726357
  51.3509140  71.2999954  21.5335026  51.4178658  70.6308365  20.8523426
  52.2552757  71.5690536  21.6946430  62.6388206   3.8273854  52.8821182
  63.4708519   4.2766800  52.7334824  62.8063240   3.2544878  53.6304245
  23.2439137   2.4562423  56.1317749  22.3673401   2.0722692  56.1521759
  23.1358318   3.3210831  56.5275040  35.4985161  60.0608521  51.2602844
  35.0576477  60.8742218  51.5058441  36.3263550  60.0827751  51.7403145
  81.0453873  14.3937969  45.6734543  80.3450317  14.8743858  46.1147881
  81.7058868  15.0585327  45.4782600  10.8365698  27.6395683  72.1197205
  10.1073713  27.9443741  72.6597137  11.3655844  27.1046104  72.7114944
  20.6814594  67.4111328  68.8673096  21.3973408  67.1961594  68.2693710
  21.1101418  67.8313217  69.6128998  22.0492897   0.4581254  16.8950615
  22.0264626   1.3590721  16.5725613  22.4649391  -0.0381964  16.1899853
  44.5456696  62.3967628  80.4673004  43.7367783  62.4847870  79.9631424
  44.7594185  61.4651222  80.4164276  43.2208405  63.8451843  73.3231430
  44.1750679  63.8625298  73.3964539  43.0510406  63.9331589  72.3852463
  40.3943062  66.3687515  66.5024948  40.7691689  67.1567535  66.1090927
  39.4947624  66.6139145  66.7191772  46.1729393  63.5002022  82.6525116
  45.4881058  63.2653847  82.0263367  45.9359779  63.0323334  83.4532471
   0.9569449  50.4374161  60.1558113   0.4169701  49.9425354  60.7720528
   1.4293691  49.7683525  59.6604347  59.9065552  58.9210091  29.1455975
  59.2395630  59.1592674  28.5017128  60.4033813  58.2180939  28.7269020
  84.0350647  66.6237106  62.3858490  84.9686813  66.4190521  62.3338737
  83.6814194  66.3451614  61.5411110  75.1310272  17.3542233  58.0282478
  75.7987595  16.7266521  58.3048630  74.3126450  16.8582115  58.0496445
   7.3868585  71.6972580  71.6757812   6.7193747  71.7604294  70.9926224
   8.0629969  71.1343384  71.2986908   8.3956108  35.3796844   3.6022904
   8.8993034  35.9766388   4.1556153   8.9662304  35.2086487   2.8530421
  14.0987177  56.0015106  75.6494827  13.3640776  56.3775444  76.1343918
  14.4122410  55.2878914  76.2050781  44.1752625  62.0927734  61.7388687
  43.4726601  62.3240204  62.3464088  44.3544159  61.1700821  61.9198952
  67.2501068  64.7315521  60.7438622  67.8338699  64.7082367  59.9856377
  67.3236465  65.6265106  61.0753326  33.4921837  64.8017502  58.2595940
  33.6287498  65.0534668  57.3462372  33.4881973  65.6305618  58.7384262
  36.9986801   8.7564306  31.2633476  36.3012466   8.9119987  30.6264706
  36.7525215   7.9371381  31.6927643  48.8317642  45.0397682  39.2775879
  47.9249725  45.0986862  38.9767799  49.3547897  45.2533112  38.5048828
  47.5695801  49.2333755  85.2375565  47.9363174  48.4231529  85.5914993
  48.3041039  49.6532364  84.7898712  76.5638962   2.8425999   7.8279209
  75.8875504   2.6264248   7.1860056  77.1866455   2.1177487   7.7730298
  79.5878906  44.7409477  50.3767815  78.7337112  44.8782616  49.9672012
  80.1461945  44.4251328  49.6662979  26.9887123  71.0391464  33.3580666
  26.4413586  71.5045319  32.7255707  27.8825645  71.3057709  33.1431847
  55.3903198   2.4799139  40.1985016  56.3178291   2.6336274  40.0186882
  55.1891136   1.6647830  39.7388153  68.1437836  43.2824059  22.3753681
  68.8091888  43.9001465  22.0722733  67.3117981  43.6866875  22.1292267
  39.7214394  48.4341927  86.5865631  39.7474022  48.6708641  85.6594467
  39.8645515  47.4878044  86.5962677   1.3311017   5.5015645  24.7578621
   1.2592806   4.5476437  24.7245617   1.8949609   5.7252946  24.0174313
  80.2552338  60.8050766  55.5498734  80.1088104  60.6199341  54.6222343
  81.0099564  61.3937302  55.5604019  56.3439674  30.2188339   8.3450422
  56.1797714  31.0069675   8.8628426  56.6843033  30.5459366   7.5123305
  72.5501633  58.7595482  73.2323074  71.7043610  58.3451157  73.0617447
  72.7332916  59.2649536  72.4403076  24.1544819  13.9188166   3.3510690
  24.1903763  14.4804602   2.5767951  24.1207447  14.5287294   4.0880222
  25.6905575  29.8008690  75.3080215  25.3479843  30.1524792  76.1297531
  25.0332031  29.1641808  75.0274124   7.0514202  40.2462082  65.4423065
   7.1044111  40.7375526  64.6225510   7.8639574  39.7410851  65.4717407
  79.6402817  59.0023079  81.8304825  80.0859985  59.5973740  82.4333649
  80.1048889  58.1710358  81.9272156  22.6386147  23.2237549   1.7449977
  22.0519276  22.4686718   1.7016369  23.0991383  23.1217289   2.5779083
  62.6444244  35.6755104  64.1733093  63.0560799  34.9611130  64.6595230
  62.6940384  36.4270554  64.7640305  22.5998631  20.0929775   3.1439996
  22.1056805  20.7991810   3.5602844  22.1593266  19.9542770   2.3055952
  41.2129517  37.3706512  12.6513462  41.6211472  36.7889786  12.0100489
  41.9456100  37.8429260  13.0468206  77.4891815  57.1118126  51.8805771
  76.5441208  57.1441727  52.0290260  77.7462234  56.2343597  52.1638412
  18.7219563  70.5630875   4.8115263  18.5512352  71.5035858   4.7611055
  19.6213741  70.4658127   4.4987664   4.6295056  48.5560646  23.2638874
   5.0664034  48.3634644  22.4342747   5.3114090  48.9502144  23.8078384
  71.5409470  47.3534698  65.4650269  72.4597168  47.6213913  65.4828262
  71.5264511  46.5854225  64.8939514  31.6836681  25.7718525  79.1254120
  31.6028824  25.7952709  80.0789032  32.5187531  26.2035503  78.9451218
  74.8444824  16.1611328  73.2859116  74.4723053  15.7942247  74.0878525
  75.5110245  15.5278530  73.0196228  82.9859619  16.2304573  84.2194366
  83.4865799  16.9198589  84.6557159  83.1480255  16.3705997  83.2865295
  20.1133080  33.4248810  25.4176426  20.7322025  32.8046913  25.8030872
  19.4188938  32.8755531  25.0539665  12.1930246  18.1741486  -0.0135789
  12.1163950  17.6850624   0.8056613  12.7580547  17.6321011  -0.5641755
  78.5568390  43.5153999  29.2859344  79.1398849  42.7907486  29.5121593
  78.7357178  44.1825676  29.9485950  71.0219803  52.0715866  85.1198273
  70.3845978  51.4018707  85.3677292  71.3225327  52.4360428  85.9523392
  84.0370483  19.4046612  55.2607841  83.1313553  19.7143860  55.2566452
  84.2666016  19.3233395  54.3350792   7.0321097  22.2604446  34.0288506
   6.4299202  21.5264721  34.1508560   6.7345090  22.6830444  33.2231979
  32.9213295   1.0011078  42.4648705  33.5144043   0.7948357  43.1873283
  33.4627876   1.4848952  41.8411713  79.8428192  34.1491051  67.2561035
  80.3430481  33.7241631  66.5593796  80.4818649  34.2983627  67.9529343
  41.2685127   3.6075408  62.9443703  40.7926559   2.8057475  63.1609726
  41.8912544   3.7179825  63.6628647  43.1262054  51.3685951  48.4729385
  42.7993546  52.1601906  48.0454140  43.3668213  50.7882843  47.7507362
  40.0666428  17.0893192  81.9087753  39.3718109  16.7611961  81.3380051
  39.7717896  17.9624672  82.1674271  78.5821991   5.9364562  85.8143768
  77.7483978   5.9880362  85.3470917  78.4293976   6.4131384  86.6302567
  48.7314148  60.3786736  87.6953735  48.0497932  59.7138443  87.7935181
  49.3007240  60.2518654  88.4543457  81.2008438  36.7462425  86.5752182
  80.8239288  36.4948578  87.4184113  81.8776703  37.3858833  86.7965698
  57.6292114  25.8579159  41.6531105  57.9875259  24.9703999  41.6656418
  58.3665237  26.4102345  41.3932152  76.9770050  11.8199167  67.2698364
  76.9430466  12.6167145  66.7405014  77.1283646  12.1314440  68.1621780
  76.2386475  13.3420048  51.6332092  75.8718109  12.6646461  52.2014084
  77.0381927  13.6215067  52.0791130  76.6256409   8.9539852  58.7414742
  76.5403214   8.6766109  59.6536217  76.8171387   8.1474924  58.2627983
  36.5653572  64.2961426  19.3525505  35.6935883  64.5879974  19.6191425
  36.4112167  63.7618523  18.5734463  17.5528259  27.9394302  87.6950912
  17.3210869  27.1431370  88.1730499  17.4588223  27.7011166  86.7728119
  48.9012566  29.5880661  68.6212921  49.4012794  29.0091972  68.0458603
  47.9934540  29.4830379  68.3365173  63.4409599  17.5401039  34.8307648
  64.1844864  17.8538189  35.3455353  62.8727455  18.3050346  34.7399521
  85.2838745  61.0253868  52.3092728  86.0614471  60.4756241  52.2124519
  85.2770081  61.5711746  51.5229530  56.9125557  71.6151810   7.4600291
  57.6255264  71.5343628   6.8264923  57.1780281  71.0580826   8.1917343
  82.9887848   0.9218183  51.0297165  82.6026001   1.0977137  50.1717186
  83.0514145   1.7819333  51.4450607  70.1020355   4.0460205   7.0301585
  69.8297653   3.6559856   7.8608036  71.0586166   4.0270643   7.0588098
  35.9980888   9.9120531  22.8037796  35.3242874   9.4311161  22.3232365
  36.6741943   9.2594366  22.9860096  25.7250919  62.8900452  81.9473495
  26.1407604  62.6377563  81.1228485  25.1797180  63.6431198  81.7200317
  27.1026344  15.8465214  15.3044872  26.2390900  15.4395838  15.2343121
  27.2352219  15.9663811  16.2448521  84.1289062  16.7212124  64.8783417
  84.0412369  15.8886080  65.3423691  84.3547821  16.4731598  63.9818611
   0.4181078  24.4515038  30.4078827   1.3000737  24.4089756  30.0383434
   0.3871188  23.7309608  31.0372391  48.4924545  13.4284182  34.8945160
  48.8551674  13.4291201  35.7803307  48.8415985  12.6325455  34.4933701
   0.0608810  12.1059790  50.6521530  -0.1011324  12.8166370  51.2725945
   1.0119842  12.0937700  50.5449829   4.1941066  71.2401505  76.0379562
   3.3450632  71.1152954  75.6139679   4.3564553  72.1814651  75.9763794
  15.6472425  28.7977066  37.2263718  15.8605881  27.9318256  36.8785667
  14.7107553  28.8998833  37.0567131  83.5888596   9.2981548  76.6114502
  84.2604980   9.2723198  75.9299393  83.4596024   8.3815823  76.8552170
  10.8004026  43.9139023  40.9867287  10.2072535  44.2257156  40.3032265
  11.5865498  44.4503593  40.8846588  17.7690487  27.5393677  59.3149948
  18.1316013  26.7444382  58.9240074  17.0616875  27.2275200  59.8794632
  12.9877634  49.8640785  42.5843430  12.2834911  50.0622330  41.9671173
  13.5711575  49.2782021  42.1020203  23.7831917  58.5041618  84.9858398
  22.9729900  58.1133118  85.3130188  23.6329193  59.4479141  85.0404053
  15.8531942   9.0921631  80.4511185  15.2866249   8.4423132  80.0352707
  15.6687260   9.0072079  81.3865204  22.9467468   8.6512165  43.6000023
  23.3165493   7.9236908  43.0998154  23.7017803   9.1939487  43.8271599
  29.5150242   9.7528429  47.1686897  29.3882828  10.6930399  47.0414200
  30.4258423   9.6700144  47.4511452  19.1848850   9.6833029  40.5939484
  19.6960583   8.9148922  40.3400192  18.3470249   9.3267593  40.8890724
  55.1803551  45.2594337  77.1460037  55.0895805  45.6179428  78.0288773
  56.0789833  44.9315033  77.1118851  60.6918373  56.5322189  42.1936569
  60.4769745  56.2414780  41.3073540  61.4971848  56.0627861  42.4110832
  33.2840462  46.5176430  37.8778801  32.6541443  45.8084717  38.0064507
  34.0790215  46.2142982  38.3163147  42.1194420  16.8807449  27.8013000
  41.7339401  16.1119156  27.3811550  42.2965927  17.4843655  27.0798492
  45.6346207  49.5290756   9.9903040  46.2652817  50.0992432   9.5505199
  45.3477364  48.9197006   9.3101673  53.8646545  37.7354851  27.9647255
  53.7045441  36.8350830  28.2473450  53.4643898  37.7888794  27.0968742
  11.5927963   4.2079329  51.3165512  11.2428894   3.6547768  52.0149879
  12.5419016   4.1002822  51.3785324   1.7222102  38.2026825   1.4146472
   1.4652057  38.6395569   0.6026618   2.4790440  37.6698151   1.1707448
  11.1807184  35.4975624  33.3166542  10.8390932  34.9434433  34.0184212
  11.3592882  36.3372993  33.7399597  48.7150116  42.8849258  84.0618668
  47.7725639  42.9545059  83.9096069  49.0657463  42.5419807  83.2399139
  23.8992844  56.1062851  57.9228859  23.5144768  56.7637253  57.3432922
  24.4163494  56.6125641  58.5494270  74.0025711  19.7053051  40.1888313
  73.7934036  18.9556866  40.7461052  74.9536667  19.6699486  40.0868568
  20.5557861  18.7154884  32.3953476  20.2988377  17.9962730  32.9723549
  21.4830570  18.5593872  32.2163734  42.3929329   2.4890580  34.7145538
  41.5139694   2.2028265  34.9630013  42.2459183   3.2078819  34.0998077
  64.5033569  32.4368095  33.8624191  65.1631165  31.9619198  33.3570137
  63.8832169  32.7558136  33.2067566   0.4684980   5.0483642   4.3342071
   1.2103611   5.5456672   4.6785331   0.7455870   4.7807050   3.4579582
  44.0685310  18.7905197  87.3821716  44.2796860  19.1465168  88.2452545
  44.8316269  18.2623806  87.1476898  50.3562622  14.9144793  18.7309685
  49.9137726  15.7517662  18.5917454  50.9008255  14.7989798  17.9522896
   0.1275352  66.7857590  75.0188751  -0.0307739  65.8468246  74.9209900
   0.0759679  67.1315231  74.1278000  85.6985321  58.7092628  71.1418915
  86.4006195  59.2617073  70.7982178  86.1447372  57.9232483  71.4570312
  75.4947891  24.9933548  18.4203701  74.5630188  25.1807308  18.3066463
  75.6800919  24.3041515  17.7824879  21.2251148  39.5699196  46.9637566
  21.9849453  39.1577225  47.3748322  21.3274040  40.5027618  47.1523628
  55.7741547  12.2970018   3.9696007  55.6639175  13.1994934   3.6702876
  56.5163078  12.3337431   4.5730023  77.9868698  22.4715881  77.6420288
  78.2251663  23.1855431  78.2333908  77.0534515  22.6010857  77.4741287
   4.0928888  50.4117546  74.6269836   4.3264775  50.0037956  73.7931747
   4.8106985  50.1801643  75.2163391  45.1368904  46.4491577  47.5397644
  45.5861473  46.7739258  48.3201027  44.9286880  47.2371788  47.0378647
  71.9995804  28.3055191  59.6546593  72.1616287  27.3758240  59.8147774
  72.4131317  28.7514973  60.3937912  46.1233749   6.4821405  25.5797539
  45.5737076   5.9002490  26.1046352  46.4988708   7.0932202  26.2136440
   3.2908535  11.8283291  17.0232239   2.8043096  12.5819721  17.3571835
   2.9692850  11.0883198  17.5382118  37.9096756  41.4388123  32.7551880
  37.3033562  40.8232536  33.1671333  38.7646332  41.2153206  33.1230583
   7.3104963  45.7538643  34.5437126   6.6065130  46.3259850  34.8491898
   7.0706725  45.5393982  33.6422005  20.5133266  70.5232773  34.5014915
  20.0386925  69.6969528  34.4112663  20.4744930  70.7208481  35.4372749
  24.3147736  27.3678436  14.4096346  25.2258587  27.0771618  14.4503908
  23.8731594  26.8687305  15.0967255  83.0031662  34.5682373  40.4316063
  83.7932892  35.0602951  40.6548004  82.3953018  35.2289543  40.0996666
  70.7175522  46.2146645  42.5319214  71.4432831  46.7294197  42.8848801
  70.0957184  46.1490326  43.2566605  77.7295074  25.1267319  30.0156841
  77.7987747  25.9560986  29.5428371  77.3119659  25.3581848  30.8453350
  39.2379608   6.2382655  36.3561974  38.2920990   6.2852449  36.4953766
  39.3517227   6.4151416  35.4223862  47.2833824  20.7404213   9.7359190
  47.6791420  21.2495174   9.0285110  46.4981232  21.2327900   9.9750280
   0.6428031  54.0945854  75.0922394   1.1426444  54.4048691  75.8472977
   0.3062233  54.8921013  74.6836853  27.3006687  32.6837502   4.7073264
  28.1351929  32.6964455   4.2386675  27.4301872  32.0466690   5.4098816
  32.1925163  31.9068279  13.9109735  32.7335815  32.6425400  13.6242580
  32.7369003  31.1347542  13.7567596  35.0571251  58.5145302  59.7340088
  35.3405495  58.7763748  60.6099854  35.7848778  58.7609711  59.1631546
  66.4710693   1.4983187   1.2820115  66.5094833   0.6286204   1.6799828
  65.8378448   1.4080932   0.5698902  59.9187126  49.4313622  50.4546280
  60.3298149  49.0295258  51.2199783  59.8210449  48.7125435  49.8301353
  38.8378448  65.1324921  34.4426155  39.4293861  65.5759583  35.0506096
  37.9737358  65.4913559  34.6445198  16.9663391  53.9382172  19.2610016
  17.4954681  53.4333115  19.8785172  16.3180904  54.3818855  19.8079605
  81.0305405  32.8664589  38.9840889  81.1998444  33.1993179  38.1027412
  81.7776260  32.2987518  39.1733170  22.2397537  41.2882919  74.1483765
  22.8969021  40.6694908  74.4669266  21.5467358  40.7363014  73.7860641
  75.2774429  22.3009186   9.1598091  74.8151169  21.5463524   8.7949648
  75.1606216  22.9916935   8.5075712   8.2687416  42.1194038  15.2883139
   8.4473391  41.1949310  15.1160135   9.0836649  42.4552574  15.6615868
  24.0683975  56.2509575  46.7466660  24.6675186  55.6690559  46.2790375
  23.2475071  55.7610130  46.7948837  67.8224106  17.0746937  34.0833321
  68.5159073  16.9670029  34.7342529  68.1502838  17.7541485  33.4942093
  11.6753759  20.8285713  42.8048248  11.7258043  20.0992928  42.1868935
  11.0632858  20.5304947  43.4776764  43.8234367  38.8646622  75.0810242
  44.5776520  39.1266403  74.5530472  43.4484100  39.6897583  75.3889236
  68.3983231  68.8763885  28.3536854  69.3538513  68.8671188  28.2978935
  68.1770935  69.7923737  28.5217800  79.9527283  63.9331169  57.3082771
  80.6400757  63.5467949  56.7655602  80.1166458  64.8753052  57.2676392
  77.2004166  66.6368790  78.2072754  76.5569382  67.3115311  77.9904480
  77.3913422  66.2106323  77.3717575  45.6517868  41.7045898  20.0060577
  45.9454308  40.8401794  20.2938004  46.4458847  42.2390442  20.0044785
  82.7943268  51.6793709  29.1302299  83.0627213  50.7607040  29.1459084
  82.9099121  51.9471397  28.2185440   5.2662878  29.6189728   8.0833225
   5.1455131  29.4097958   9.0095463   4.9884157  28.8282356   7.6209884
  23.3932800   1.6904404  22.2695827  22.7421112   2.3908949  22.2298908
  23.7860451   1.7774863  23.1381397  30.8790531   5.6960444  46.4646416
  31.7191124   6.0877962  46.7035179  30.9329967   4.7971954  46.7892838
  77.9638901  62.8465385  29.0254517  78.0215988  62.2714729  29.7884731
  78.5128784  63.5978966  29.2497425  76.8153763  24.3681927  54.0872841
  76.0872574  23.8008804  53.8338623  77.2820892  23.8726826  54.7602501
  19.5334549  65.3865738  11.4244604  19.1584454  65.2563629  12.2954626
  18.8334656  65.1345444  10.8221893  85.3823853  21.6785774  61.5857201
  86.2893982  21.9583111  61.4620018  85.0079727  21.6834049  60.7047997
  61.4182129  17.3136978  43.2820320  60.7473221  16.6319256  43.3183975
  62.2462006  16.8339691  43.2590218  13.4254866  16.9381275  25.2486668
  13.7896824  16.6612053  26.0894451  12.4797363  16.9636250  25.3940563
  85.4626999  55.7791138  79.0472946  86.3007202  55.9030495  79.4929276
  85.0751801  55.0149803  79.4740906   5.4199719  62.4796600  44.7015800
   4.6898685  62.8124237  45.2235451   6.0831428  62.2339554  45.3466110
  11.5400896  28.6759071  30.4879150  11.2608900  28.0076103  31.1137409
  12.4809999  28.7668209  30.6384315  67.8518066  46.4481926  67.2875137
  67.2863083  46.8292236  66.6157608  68.6852188  46.9084206  67.1882706
  16.3758831  66.4216919  63.5571251  16.1399117  65.6299896  63.0736427
  16.7345238  66.0994034  64.3840103  28.1061573  49.9999504   0.1689878
  27.4170322  49.8459969  -0.4772600  28.0906563  50.9458313   0.3149369
   5.5425467   0.1190272  58.8900375   5.6218967   1.0418272  59.1316490
   5.5796165   0.1178282  57.9335556  83.4662018  38.4447479   5.0208249
  84.4137039  38.5607414   5.0916948  83.2885437  38.4933968   4.0815163
  11.8101521  52.9836998  58.4932785  11.4950838  52.4766426  57.7450447
  12.7635202  52.9117355  58.4470062  39.5124054   1.0100193  31.2173328
  40.2119827   0.5897761  31.7175541  39.9248238   1.2567649  30.3895283
  78.0088425  42.2547340  69.8298798  77.3972702  41.5704536  70.1018524
  78.6703110  41.7935829  69.3140869  65.2645187  33.5374718  20.3832340
  65.8385849  32.9641685  19.8752956  64.3892517  33.1701012  20.2600155
  59.2126312  18.4761105  80.9008179  58.7318802  18.4410725  81.7277908
  58.6731834  17.9754715  80.2887726   1.7868266   8.4004049  85.9476700
   2.4275737   8.9882345  85.5475006   1.7406824   7.6539774  85.3502121
  37.7449760  64.1961212  10.1457510  36.9439087  63.6897774  10.2804117
  37.7203140  64.8688812  10.8262081  73.9659729  15.2891464  45.7966156
  73.8436508  14.6997538  46.5408516  74.2718811  14.7214413  45.0892563
  39.1319695   0.4292391  50.0454330  39.6452103   0.2053814  50.8217735
  38.8990707   1.3493580  50.1694107  22.6312885   4.6707287  57.3696671
  23.1762505   5.2982569  57.8444901  21.8655319   5.1764112  57.0973930
  79.9165497  58.7062416  41.6531067  79.3482971  58.3853683  42.3533669
  80.0140076  59.6412735  41.8332443  72.6304703  14.6769152  48.2527428
  72.8832855  14.8469439  49.1601601  72.3838043  15.5351372  47.9080009
  28.6007309  12.7244778  56.1791801  28.1954956  13.4622459  56.6349335
  29.3331203  13.1120386  55.6999779  22.8929176  20.8733578  12.3180122
  22.3631592  21.6440411  12.1139650  22.7673779  20.2911835  11.5686493
  75.2516098  33.6269264  28.1525822  74.4259949  33.5219040  27.6797504
  75.1746979  33.0373116  28.9026966  83.8611221  34.3686295  54.2029648
  84.0826950  33.4777641  53.9318657  84.5592957  34.6150017  54.8096657
  57.7796936  39.2951469  36.0266113  57.7795448  38.4968224  35.4984894
  57.7938004  40.0061646  35.3859215  42.2263336  30.7896137  81.2613297
  42.1528778  30.4479618  80.3702011  42.0579948  30.0327682  81.8226471
  73.1054153  32.8474312  84.5850754  72.2305527  33.2358093  84.5821838
  73.4701385  33.0723305  83.7291336  65.3056412  42.9244881  41.0918922
  64.4113998  43.1180382  41.3731422  65.8494568  43.1604424  41.8434410
  39.1802139  37.8575783  20.0253410  38.5719604  37.8592300  19.2862492
  38.7495956  38.3938103  20.6911182  41.7958298  52.2490578   8.1794090
  41.8969116  51.9924316   9.0960102  42.6920853  52.3457108   7.8575120
  73.5067139  51.7986221  38.8351326  73.8316193  51.2625580  38.1117401
  74.2185974  52.4120483  39.0172195  35.2195244  14.6546841   0.8817621
  35.4271202  14.2862043   0.0230660  34.2633286  14.6411142   0.9234070
  37.0872383   6.7761717  59.7262917  36.8794212   7.4707232  59.1012764
  36.3432159   6.7653017  60.3284073  13.1973925  57.5628166  38.6827316
  12.4203014  57.3050232  39.1786194  13.9156351  57.4977417  39.3121147
  65.3182983   6.5352650  73.7347260  65.9076309   6.5766482  72.9815903
  65.8918915   6.3473778  74.4776382  72.5757446  39.5398026  11.0242004
  72.8040009  38.6161537  10.9193287  72.5723419  39.6796608  11.9711218
  51.1141891  45.5739937  22.5284061  51.4688110  46.3039474  23.0359917
  50.2253342  45.8484955  22.3029747  73.5471649  35.1500130  31.5048313
  74.2926483  34.7299042  31.9337769  73.9292603  35.8866501  31.0277557
  28.4501972  32.5758438  22.9123974  29.1675911  32.6766357  22.2867622
  27.8519516  31.9572887  22.4932022  52.4785271  50.6279640  31.6851368
  52.2804985  49.6936913  31.7495861  53.3675766  50.7087364  32.0305328
  73.3816757  45.1464005  50.7230949  73.6409683  44.5560493  51.4305458
  73.8825607  45.9462776  50.8829269  13.9924116  69.2764893  72.5077438
  13.1149368  69.5053940  72.8141327  13.8488865  68.8663254  71.6548691
  55.5691261  25.1743832   1.7299528  55.2654953  25.8709583   1.1478671
  56.4230423  25.4762764   2.0396569  70.2423782  56.2054100  48.4681892
  70.3314133  56.3370438  49.4121056  70.0901489  57.0828705  48.1173019
   6.8205662   8.7998571  28.6902599   6.2696161   9.4865313  29.0659790
   6.5187840   8.7189026  27.7854919  35.6975632   5.2613101  55.3308563
  36.4940071   5.1993198  55.8581772  35.4872017   4.3546834  55.1072350
  73.7003021  54.3844643   6.4570780  73.6683273  53.7350349   7.1595373
  74.6340714  54.5475769   6.3240161  19.3492470  47.1025658  40.3609085
  19.9481678  46.9426422  41.0902596  19.2671032  46.2529526  39.9277344
  51.8475113   0.6837814  52.6576729  51.8645859   1.5011154  52.1597710
  52.3791809   0.8644117  53.4328728  36.0847931  29.0179729   8.5285521
  36.4154167  28.9786320   9.4259777  35.3239670  28.4371338   8.5279217
   0.8471615  17.3916435  17.7670212   1.3599929  17.7648106  18.4839458
  -0.0585888  17.6196346  17.9764671  16.5995293   9.0512772  19.1620502
  16.6853161   9.4156046  18.2810631  16.7299843   8.1101627  19.0457935
  65.7182999  25.1632957  74.8070374  66.6612396  25.2572975  74.6719513
  65.6036835  24.2496185  75.0683670  30.3790283  62.0603867  21.0457859
  30.8947735  62.7422981  20.6153965  30.4482536  62.2609367  21.9791775
  51.9851151  68.3834839  82.3838654  52.8755112  68.6030655  82.6581116
  51.6752930  67.7670517  83.0473862  74.5050430  62.8613853  33.9348679
  74.6910248  62.8402786  34.8735886  75.3641052  62.9518356  33.5224762
  14.9426422  29.3990250  72.2296906  14.8211832  28.5549622  71.7949066
  14.0626669  29.7726421  72.2774963  66.8266373  37.7960777  31.7726440
  66.6456528  37.0089340  31.2589550  66.3292313  37.6739807  32.5812912
  56.5951385   9.9888344   2.7511241  56.3617744   9.3328600   3.4079876
  56.2652245  10.8133469   3.1082871  15.8282242  40.8577003   5.4420748
  16.5277042  41.2754478   4.9396319  16.2714252  40.1788330   5.9509406
   0.6445717  32.4380455  21.9893303   0.5606546  31.6256886  22.4885960
  -0.1381563  32.4628410  21.4389172  71.9537811  10.0237226  68.5294266
  71.9418335  10.2595863  69.4570312  72.5017853   9.2399759  68.4886169
  19.5071049  65.6531448  72.8713837  18.7509518  65.5781708  73.4534836
  19.7112236  64.7506180  72.6264343  77.9280853   5.4341803  15.3833036
  78.0825577   5.7018147  14.4773560  78.5605316   4.7322745  15.5368471
  10.2797079  51.0211868   9.6592522   9.4759321  51.3820229  10.0333824
  10.2556725  51.2857590   8.7396574  85.5111465  22.3064098  15.7830639
  85.6188126  21.7935600  14.9820480  85.5091858  21.6560593  16.4853973
  10.2686396  16.3580399  29.8365993   9.9412165  17.0290871  29.2376671
  10.3908091  15.5846119  29.2860413  29.8511257  60.9897461  86.6517029
  30.7063847  60.5641251  86.5916367  29.7366047  61.4180069  85.8033524
  60.5175896  49.0205803  65.8194504  61.4234657  49.1685410  65.5479202
  60.5875435  48.4574966  66.5903397   5.2157707  66.5667572  19.9264774
   5.4142642  67.4843216  19.7396202   5.4422870  66.1036530  19.1199703
  41.2221909  55.2878418  81.7262573  40.4929810  54.6931572  81.5506439
  41.7610626  54.8234558  82.3667221  22.3123302  10.8921499  61.0160255
  21.9840126  10.8799610  60.1169739  22.4678593   9.9714699  61.2267113
  28.0443306  66.3692703  25.7008266  28.0035610  67.0858688  26.3341198
  28.9496002  66.0614853  25.7453651  54.4469261  47.5017586  34.7404556
  54.0730476  47.9138260  35.5193329  54.0375786  46.6371498  34.7070389
   5.9568758  71.3385696  69.6351089   5.3136716  71.7613449  69.0660934
   5.6195555  70.4515610  69.7602768  78.6653748  21.7884827  38.3258400
  78.3971405  22.7057037  38.3805084  78.5541382  21.5610199  37.4027367
  65.9448166  45.9079437  69.1194153  66.7280502  46.0387192  68.5849228
  65.2290955  45.8533211  68.4861755   3.5483766  27.8367882  70.1335144
   4.2880683  28.2474594  70.5812149   3.2734499  28.4829063  69.4829941
   7.6486087  17.5656338  45.2461777   7.1786981  16.9474506  45.8058777
   7.6388502  18.3877335  45.7363701  41.6045799   8.5586309  29.1232605
  42.4310875   8.1231556  28.9147415  40.9317169   7.9790964  28.7660122
  82.2389526  54.4514198  21.2619286  81.4922638  54.3749466  20.6679230
  82.2983856  53.5941353  21.6835461  15.9087505  63.9884224  73.8809433
  16.7121754  63.8981743  74.3933868  15.6921644  64.9191055  73.9370270
  50.7394333   7.3043499  70.5097809  50.6631737   7.8089004  69.6999359
  51.2844810   7.8469753  71.0796127  24.7485867   5.0002742  22.5970001
  24.3982830   4.1338110  22.8037872  24.1096573   5.6109099  22.9645920
  22.6106167  45.8921661  78.3455887  21.7424431  45.4891815  78.3561249
  22.9586582  45.7342110  79.2231750   1.5418007   2.0637577  80.0448914
   2.3505924   2.5254300  79.8236542   1.5259058   1.3114845  79.4532318
  69.3917694  66.6339569  24.5950966  68.5237350  66.2506332  24.7208347
  69.2419052  67.5790634  24.6183643  83.7666473  53.1512146   7.3632646
  83.0567780  53.7879257   7.4464269  83.4586334  52.5344734   6.6991954
  58.1816063  10.6627789  38.3516350  57.8090324  11.0541410  39.1417351
  58.2229156   9.7261972  38.5448685  69.9019089  69.7900314  66.5487366
  69.9853592  70.0673523  67.4610748  69.0648880  69.3269196  66.5147858
  52.8709831  62.7750397  13.8360186  52.1717606  62.1249237  13.9043550
  52.8389053  63.0664062  12.9248066  30.5925999  69.6228180  67.9987717
  31.2457466  70.0942841  68.5158310  29.7773018  69.7283096  68.4890747
  33.8336792  55.5390434  11.8677549  32.9769402  55.7684898  12.2277317
  33.6390381  55.1526909  11.0138941  43.5940704   3.8251681  48.5254059
  43.7847061   3.6054881  49.4373436  42.7341347   3.4384148  48.3606033
  26.7870293   5.0184379  26.3449249  26.8040848   5.6811461  27.0354023
  27.0944653   4.2191157  26.7724743  11.3498602  40.8559418  43.9012680
  11.2925453  40.5693932  44.8127708  10.8188086  41.6515617  43.8664780
  77.3811798  65.9453812  14.8604918  77.8846741  65.2389908  14.4558573
  77.0001144  65.5493927  15.6442118  36.7930870   8.9850740   8.6940861
  37.4909821   9.6391888   8.7302055  36.1188393   9.3213625   9.2844524
  80.2943726  50.7147827  17.0791702  81.1689453  51.0718460  17.2336502
  80.4400482  49.9661484  16.5007591  10.7418108  55.9869957  72.1672058
  11.2408953  56.6979065  71.7650223  10.5962915  56.2762604  73.0679703
  17.5605030  43.1341438   5.1532583  18.2520027  42.7544899   5.6954026
  17.1479340  43.7896729   5.7156644  80.0411835  13.5510406  12.4876585
  80.9207382  13.4863672  12.8597269  80.1805038  13.5427265  11.5406876
   9.2549639  41.8892174  58.5389328   9.2453947  41.6717186  59.4710464
  10.1710043  41.7905922  58.2793694  74.0974274  47.6498833  49.6929016
  74.0174789  48.0429916  50.5619850  73.5150375  48.1707344  49.1399384
   2.3026698  47.0084305  71.8901596   1.9119048  47.7158012  71.3771667
   1.7184033  46.2626114  71.7537079  43.7472916  16.5749798  29.9981518
  44.4567833  17.2077179  30.1099415  43.1954269  16.9524727  29.3131886
   3.3448799  54.5390358  71.2928848   3.0866499  55.4132690  71.5848846
   3.1671069  54.5384293  70.3523407  39.3154335  48.6010284  19.6665115
  38.7390251  48.1762238  20.3017483  39.2161903  48.0819473  18.8684273
  49.3750343  40.8248901  12.9570856  49.8998260  40.1161690  12.5848751
  49.6239853  40.8474541  13.8810692  42.8077774  68.3198395  50.1285172
  43.7304649  68.1678619  49.9241066  42.3895683  68.4366531  49.2754707
  23.9908772   3.7167375  79.8245621  23.3548946   4.4307818  79.8681564
  24.6962318   3.9880452  80.4120178  50.0195808  70.1007004  43.9789467
  50.4845238  69.7742767  43.2085495  49.4809723  70.8190384  43.6471100
  61.3108673   0.8838978  36.5844879  61.7598534   1.3376600  35.8712273
  60.5622025   1.4435563  36.7906876  64.9716034  20.2685642  76.4778366
  64.1115189  20.3532619  76.8893051  65.3935852  19.5510445  76.9504166
  23.8958664   9.8860998  19.7123795  23.4467697   9.3862152  19.0307198
  23.2438030   9.9844370  20.4061909  40.6397514   8.0046988  53.7258301
  41.1816177   8.5042868  53.1150703  39.8053589   7.8936577  53.2700958
  64.8691864  45.1676254  33.3726425  64.7561722  44.7422867  34.2226715
  64.8933563  46.1030502  33.5742149  10.4536848  38.8604012   9.6912079
  10.8470564  37.9939690   9.7950621   9.5259218  38.7270660   9.8853960
  37.7010002  63.9994240  21.9473877  37.5899620  64.0163498  20.9967995
  37.7849007  63.0704231  22.1622200  82.5628204  40.3465576  70.4361343
  83.0660019  40.1093979  71.2151031  82.0379562  39.5694237  70.2442627
  46.1243629  68.9769135   2.0949965  45.9285431  68.2164688   1.5476217
  46.9309807  68.7409058   2.5531409  62.7888184  29.2844753  32.7449837
  62.9650803  28.4870148  32.2457657  63.6462631  29.6974659  32.8472519
  69.7921524  10.8600740  22.1143761  70.4275055  10.6964417  22.8113556
  69.6668472  11.8090029  22.1224480   0.4999987  69.6836090  48.4835091
   1.3490579  69.9571304  48.8306618   0.7023458  68.9432373  47.9115486
  69.7125778  52.2715874  76.6774979  70.2060165  51.4523735  76.7179184
  69.9787674  52.6709061  75.8492889  71.5192871  60.7195549  30.0509415
  71.0642471  61.4266243  30.5083485  72.4462814  60.9485321  30.1179619
  49.0151482  55.0307884   1.0024732  49.5152855  54.4731445   1.5984020
  48.2041016  54.5471497   0.8458700  64.8422470  42.3809547  76.3963928
  64.8937454  41.5376167  76.8462372  64.2058563  42.2400246  75.6954041
  64.5514679  48.7733231  57.7144966  63.8839951  48.1729088  58.0464859
  64.4503098  48.7416077  56.7631874  50.3361015  53.6835747  69.8719254
  50.7873497  53.6852913  70.7160873  50.3128090  52.7618904  69.6146622
  20.9563618  58.1083221  48.6162758  20.1893539  58.2205467  48.0547256
  20.7293797  58.5656204  49.4259605  49.5257835   0.9525478  54.8066483
  48.9484520   0.9286187  54.0435295  50.0166016   0.1320059  54.7614784
  80.5380249  40.3344650  78.4278488  80.8004761  41.1201744  78.9074402
  80.6188507  39.6259346  79.0663528  74.5220490  58.0087967  21.7461967
  74.3047104  58.5804901  22.4825134  73.8751144  58.2262421  21.0750542
  10.0254040   8.2572002  82.0702209  10.3638153   7.8547368  81.2703857
   9.1612606   7.8631721  82.1895065  35.6535339  45.6584549  39.4665680
  36.3112679  46.2844391  39.1636581  36.1600533  44.8978462  39.7514229
  23.7659264  32.3736038  37.0194283  23.9658852  31.8351460  37.7851410
  23.1455193  33.0273781  37.3417740  22.7031288   4.4030404  40.9863739
  22.8425369   4.6272955  40.0663147  22.4949150   3.4688148  40.9762993
  76.6473923  63.8002014  10.1328411  76.4876862  64.6260757   9.6760521
  75.8690033  63.6719284  10.6749592  16.0261040  29.8339977  14.8877640
  15.7720537  30.7496433  14.7725124  15.2514601  29.4160271  15.2638760
  10.6631603  68.3586349   6.3946967  10.8369284  68.9257736   7.1459546
   9.7919035  67.9993820   6.5622616  36.4288712  15.4426384  32.5319061
  35.6723747  14.9346933  32.8250542  36.6704750  15.0500278  31.6930294
  73.3390579  16.4636345  30.2190666  73.7539291  17.2617817  29.8918400
  72.9223938  16.0771828  29.4488201  12.1274061  45.8604813  59.6936531
  11.4572859  45.7802353  59.0148811  12.0929985  45.0274467  60.1638641
   3.4396553  14.7800064  56.2125664   4.1236868  14.1885128  55.8987694
   3.9151559  15.5422430  56.5429077  53.9310799   1.0662019  16.6944237
  53.8153419   1.2308855  15.7586279  53.1204109   0.6342859  16.9636707
   8.3406801  25.5161991  39.0129814   7.4135613  25.3925915  39.2164612
   8.7675295  25.5762653  39.8676262  63.4179955  66.3478851  15.9943600
  63.1673431  67.2001190  16.3508759  63.4248543  65.7637024  16.7525902
  78.7218323   4.1906996  20.5185432  78.6277542   3.2385473  20.5466080
  78.5486984   4.4750390  21.4159889  78.1803970  40.3964081   3.8213768
  79.0850830  40.5726280   4.0796890  77.8531876  39.7948685   4.4901910
  37.7061310  54.7577782  17.7643337  36.8673172  54.3021851  17.6932030
  38.3613548  54.0814247  17.5926800  45.7430382   8.3686209  74.0700836
  45.8819618   7.4216847  74.0544510  45.6624146   8.5835552  74.9993515
   5.0467405  66.3898315  59.3155975   5.2750964  67.2960052  59.1083946
   4.1758146  66.2697525  58.9370499  81.4437485  34.2367630  60.5763321
  81.6683502  34.1591301  59.6491013  80.6786652  34.8118210  60.5901146
  23.5367546  60.0216255  29.6019230  23.1689148  59.5754204  28.8391476
  24.4796486  59.8704071  29.5362434  14.0877514  19.6991768   4.3378739
  13.2094584  19.3556652   4.5016804  14.5792303  18.9496937   4.0017838
  19.0772476  33.1278725  20.3649502  19.9142609  33.5781326  20.2513447
  19.2300377  32.2478409  20.0208111  14.8113079  51.8722382  77.7277451
  14.4206152  50.9984131  77.7326126  14.0990219  52.4515610  77.4570770
   0.3195905  44.2466888  31.1157703   0.1711305  45.1225471  31.4722271
  -0.3240414  44.1621208  30.4123363  45.4708595  59.6278458  66.6274109
  45.2447166  60.4068413  67.1355972  46.3573952  59.7984200  66.3093109
  34.9736023  11.0087500   0.6255760  34.0954666  10.9553175   1.0027364
  35.5609436  10.9770899   1.3807312  31.3862247  51.9349556  78.6372147
  32.0971642  51.8223343  79.2681808  30.5990982  52.0178070  79.1755447
  84.1426697  53.8187752  80.7789688  84.2701721  53.9645767  81.7163696
  84.8285522  53.1961174  80.5379486   2.7111471   6.3419328  31.8174915
   2.2771068   6.6235123  32.6228218   3.5103440   5.9074926  32.1154480
  50.5321236   6.9085279  57.3298340  49.7131805   7.1398673  57.7680664
  50.9082756   6.2171621  57.8745880  19.6579571  59.9205589  84.7334213
  20.3680191  59.3661232  85.0569077  20.0677032  60.4680252  84.0636292
  74.3935776  40.7591400  12.8519363  74.9863510  40.4436417  12.1698008
  74.0811691  41.6032295  12.5261393  33.4423676  64.0414124  86.3632202
  33.8579826  64.8453598  86.0515137  32.6685104  63.9413528  85.8088074
  69.3584900  10.2700462   7.7329469  68.7088470   9.8291759   7.1853766
  69.6948929   9.5816965   8.3067408  16.3234673  15.0201292  70.7818298
  17.2384224  15.2422523  70.9543076  15.8238878  15.7223473  71.1984100
   1.6604375   3.5613718  65.5535278   1.1933295   2.8104501  65.1872482
   2.5830190   3.3805668  65.3735657  76.4255905  21.2350769  22.0838928
  75.8887634  20.5549622  22.4907036  76.3549728  21.9828377  22.6772709
   7.6545753  23.6774292  57.2415581   7.1398487  24.0674000  57.9481049
   7.0075760  23.4373417  56.5782471  63.2878761  47.8083801  16.6682148
  63.8040161  47.0244217  16.4805069  63.4735756  48.3980560  15.9374390
  82.5458145  51.6318588  36.1963463  82.2767334  50.9134102  35.6239281
  82.7524872  52.3500710  35.5982742   8.9896393  59.3724709  82.6352158
   9.0599937  59.7441940  83.5144806   9.1927748  58.4442253  82.7506561
  12.2944098  65.9020615  72.9852982  11.4966259  65.5180435  73.3490295
  12.3851862  65.4946060  72.1239166  50.7518501   3.9701965  14.1936131
  51.0331917   3.9673049  13.2786970  51.4873962   3.5871222  14.6715879
  80.7733841  30.4576664   8.7697563  80.8164825  29.7400951   9.4017887
  81.6641769  30.8069534   8.7428408  47.7487564   0.3084009   6.9384131
  48.0512428   1.2165382   6.9429216  47.3905296   0.1796302   6.0601635
  69.3721771   3.8003485  42.7524109  68.7177658   3.8002355  42.0538597
  69.5575867   2.8740988  42.9070625  55.8505478  44.0677872  40.1096153
  55.0379677  44.5015602  40.3699722  56.4952278  44.3602295  40.7539024
  68.9813232  58.9436073   3.9722757  68.3856964  58.2299080   4.2005091
  68.4234161  59.5940895   3.5458522  57.7139893  25.8737335   3.0823524
  58.0660858  26.6908779   2.7294581  57.9526062  25.8906155   4.0091801
  24.1953964  69.1088943  67.7123718  23.3885098  69.6101913  67.8301315
  24.6884460  69.2555466  68.5196075  13.3203907  70.9562683  23.8910255
  14.0287151  71.0189972  23.2502670  13.5578518  70.2074966  24.4380112
  23.4170418  59.1720848  53.7158699  24.2493324  58.7625961  53.4795609
  22.7726784  58.7503281  53.1474075  40.8297005   8.1884871  62.7831421
  40.9486809   9.0856161  63.0949631  40.3734131   8.2840319  61.9471359
  77.3630371  61.9724998  14.9561377  78.2103348  61.5535240  15.1070757
  76.7606888  61.2452126  14.7997284  25.7971897  68.7353821  20.8407116
  25.0848274  68.9000168  20.2229176  26.0349960  67.8199310  20.6936455
  66.9816132  64.0324936  38.8650208  67.3932724  63.8317490  39.7055397
  66.3756714  64.7474289  39.0597839  63.1026421  24.9165306  65.3571854
  62.4693108  25.5991020  65.5790329  62.9703407  24.7618980  64.4218674
  60.0602722  66.6870041  46.0031471  59.3003807  67.2571487  45.8859711
  60.3288345  66.8293762  46.9108009  26.1434536  52.2523613   1.8351279
  27.0401764  52.4401817   1.5579182  26.2112045  52.0992355   2.7775688
  56.4268265  48.6162834  62.1285439  57.2639923  48.3392105  62.5008507
  55.8384094  48.6770325  62.8810806  14.1354980  46.4897346  19.7604961
  14.8006248  47.1510849  19.9514275  14.4461765  45.7018547  20.2065411
  56.0255356  14.8052473  30.8638706  55.2725258  14.6478786  31.4334698
  56.7668228  14.8869038  31.4639168  51.3420029  71.4485245  17.6490135
  50.6254196  71.8426590  18.1464005  51.4619751  70.5853424  18.0449314
  18.1589241  59.3644295  88.7366333  17.5939426  59.4922600  89.4986649
  17.5541153  59.3075714  87.9969025  12.9079313  24.7383118  37.4606781
  13.7358160  24.2793541  37.3185654  13.0526762  25.2531090  38.2545700
  43.0867920  52.4408493  19.5658455  43.8683128  51.8882561  19.5757618
  43.3007278  53.1473656  18.9565010  52.7913322  43.0727959  22.1464863
  52.0815086  42.5250549  22.4816856  52.4345894  43.9609566  22.1584110
  49.3257370  44.0776901  29.9298000  48.6563110  43.8485565  30.5744705
  49.5639954  43.2435989  29.5251293  61.0855408  61.5204010  26.1749573
  61.7822952  62.1630096  26.0414753  61.5449944  60.7144089  26.4105568
  30.0915833   3.8770320  23.7230682  29.2696648   4.3657994  23.6807823
  30.3258743   3.7227848  22.8078918  84.5032196  56.1184387  22.5179939
  83.5651474  55.9822159  22.3849430  84.8112717  56.4882317  21.6905937
  39.5172691   5.3730674  62.3099442  40.1475677   4.7010789  62.5695305
  39.6951904   5.5224137  61.3813591  43.7979050  18.6039314  83.7065811
  43.9338417  19.2573891  84.3926926  44.0109024  17.7696819  84.1247864
  35.6986885  35.9264336  79.4035492  35.5872002  35.2172928  78.7703629
  35.6674461  36.7250137  78.8767471  47.2847557  38.3030968  20.0209541
  47.6798630  37.5142937  19.6495857  47.1252556  38.8693428  19.2658672
  61.4491577  59.8133049  22.3361034  60.9795341  60.6251144  22.5275536
  61.9444351  59.6291847  23.1342468  24.1081791  37.7765198  20.6336880
  24.7580872  38.2106133  20.0810413  23.2851658  38.2205544  20.4294491
  27.5716114  14.5625706  58.0815010  27.3635521  15.0323200  58.8891373
  27.3491173  15.1775999  57.3825951  51.4434814   2.8539491  69.7525864
  52.3755760   2.9113786  69.5425186  51.1033478   3.7307642  69.5744400
   9.9812298  38.7352600  31.7327385  10.4539328  39.5590057  31.6134586
  10.4558353  38.2858582  32.4320374  42.8873367  64.3276825  -0.3419790
  42.4835091  64.9590683   0.2534253  42.9160118  63.5117416   0.1576689
  46.1095085  50.0785255  72.0845795  46.1110954  50.8445015  72.6586075
  46.8926735  49.5890541  72.3361740  55.5328140  53.3914452   0.3253789
  55.5331726  54.3475075   0.3719935  55.5796890  53.1071243   1.2381753
  54.0143738  52.3824768  79.7889404  54.3880463  52.5122566  80.6605835
  54.2658768  51.4900932  79.5509720  27.6601982  63.8200760  45.7038918
  26.9765301  63.1890144  45.4789619  27.3550301  64.6470032  45.3306770
  77.3581238  19.6308479  72.5106430  77.1183014  20.4146099  73.0050430
  78.2744827  19.4747066  72.7389679  64.9445038  21.2355938  66.5671997
  65.1450424  20.6561489  67.3022232  64.0428391  21.5166531  66.7228699
  37.5843010  29.0938797  82.4221725  37.8156319  30.0226669  82.4136658
  37.0816727  28.9648628  81.6178360  64.0688782  29.2770443  18.6903343
  63.3449707  29.5857716  18.1454754  63.7669601  28.4372025  19.0363712
  24.5069199  28.1473370  86.6080704  24.3309822  27.2491455  86.8883057
  24.4280891  28.6675129  87.4077148  38.0862160  54.0244179  75.2750244
  37.4117203  54.6558380  75.0248413  38.4109573  54.3420601  76.1175690
  25.4788513  34.8956375  72.6496277  25.1433220  35.0184402  73.5376434
  24.7021580  34.7019920  72.1247635  62.6254196  51.5732193  39.1407509
  63.3581924  51.1400795  39.5785446  62.0365143  51.8251610  39.8520508
   1.2160583  29.1843109  86.6611786   1.1652204  28.2547760  86.4384460
   0.5398016  29.3083534  87.3271561  22.5995274  66.5933304  42.4248619
  21.9240379  67.2418747  42.2265244  22.1426010  65.7529907  42.3891296
  61.1019249  48.9060249  36.2527046  60.4238281  49.1146126  36.8952827
  61.1915741  47.9541817  36.2995071  30.9734077   6.3815379  78.9107971
  30.1394711   5.9537959  79.1052704  31.6350307   5.7924528  79.2733765
  79.5970001  20.5141163  10.3367243  79.1672440  21.3601475  10.2111397
  79.8315277  20.2310734   9.4529171  70.5731430  39.3081932  69.3869247
  70.6951065  38.8791428  68.5400085  69.6308365  39.2578430  69.5474319
   6.4449830  37.2878151  53.8565025   7.3781848  37.4326591  54.0126648
   6.3958564  36.3978996  53.5074120  86.1969528  41.9542809  37.5954208
  85.2473602  41.8839798  37.6932526  86.5464935  41.6684113  38.4394150
  16.8987179  42.5436668  42.7302055  17.1290970  41.7319069  42.2783165
  16.6145954  42.2614746  43.5996170  62.9102173  27.1409912  48.8157196
  63.5752525  27.4554539  48.2032890  62.5040894  27.9373417  49.1579475
  46.6592865  68.3460999  26.9209614  47.5010490  68.7483749  26.7068501
  46.7894135  67.9664307  27.7899570  54.5381775  68.8878174  18.5042629
  54.2052803  68.1293945  18.0244694  53.9550476  68.9685822  19.2590275
  55.3525887  63.7494431  77.3577423  55.9670334  64.2566757  77.8882217
  55.3175507  64.2142563  76.5217056  18.1180058  37.9019737  71.1511765
  19.0382023  37.6389923  71.1688919  18.0289497  38.4077110  70.3433838
   9.8303146  55.5842857   2.7046874  10.0618458  56.4815063   2.4646394
   9.0174046  55.6717110   3.2024484  55.5757294  49.9421158  26.8392353
  56.1528854  50.6795502  27.0375175  55.3438339  50.0603905  25.9181118
  55.0081825   1.9877051  63.4369316  54.5009842   2.0154150  62.6256294
  55.6042862   2.7338414  63.3723373  74.8715134   5.9163785  55.8969154
  74.1790619   5.7542334  56.5375786  74.5994110   5.4263949  55.1209564
   8.1158266  10.1601648  66.5396118   8.3345509   9.2468376  66.7246094
   8.9501820  10.5619345  66.2974014  83.5651703  22.6265316  38.4014091
  83.1959915  23.1615849  37.6988029  83.2514954  23.0386639  39.2063828
  66.4950638  61.4326134  72.4095612  66.4207458  62.2708473  71.9534149
  65.6606903  60.9942474  72.2425385  68.3871231   1.3092561  67.4343414
  68.2618942   2.2281165  67.6715088  69.2916946   1.2629290  67.1247711
  57.0259628  62.4485626  84.2826996  56.5132675  63.1123352  83.8214188
  56.8620262  61.6396523  83.7979050  57.7529373   9.5121727  14.4296560
  57.5527344   9.2290430  15.3218374  58.3381271   8.8354769  14.0892591
   5.9509945  18.9144955  43.0867958   5.2707281  18.2537994  42.9566078
   6.6306453  18.4630852  43.5873299  30.0654125  50.8997345  12.7407866
  30.9437370  50.5881386  12.9591589  30.2062988  51.7678719  12.3630085
  55.8360672  58.7429962  31.3627319  56.7658920  58.8096657  31.5800228
  55.3951530  58.6899414  32.2106781  69.2876740  44.2902222  59.2413521
  70.1373596  44.2040558  58.8091049  69.1590576  45.2345276  59.3306732
  13.9869213  62.0241585  28.6362667  13.8956947  61.1539574  29.0244160
  14.5602102  61.8908157  27.8814201  75.1702805  46.5885086   0.8301173
  74.9305420  46.7357979   1.7450283  74.3682098  46.2626152   0.4218244
  78.2362442  35.3167191  52.3642921  78.8397446  36.0572929  52.3045120
  77.9537735  35.1645393  51.4624710   3.1940658  68.6785431  64.2542038
   3.9273582  68.5316696  63.6567574   3.5601501  68.5245361  65.1251221
  14.3235855  67.7555923  34.1697540  15.0284147  68.1445160  34.6876183
  14.1587515  68.3916473  33.4736977  73.7657318  54.4934769   2.8051994
  73.9302597  55.3231354   2.3570585  74.5787048  54.3102913   3.2761102
  72.6293259  19.8143959  85.7285156  71.8971786  19.2368317  85.5126114
  73.3004456  19.6032143  85.0794983  29.3569107  56.0205269  81.9632721
  28.5862484  56.0826530  81.3989639  29.7736874  56.8795166  81.8949280
   0.2580252  36.6949692  17.9246101   0.9780582  36.0643425  17.9148636
   0.6632969  37.5251160  17.6739273  64.3460388  22.3808842  69.8300476
  64.6915436  21.6440144  69.3261871  64.7971344  22.3274117  70.6725845
  11.6014414   3.8731651  54.2005272  12.4040194   3.4283109  53.9281197
  11.7704210   4.1400871  55.1040955  84.1078568   2.1619096  10.6783705
  84.6550827   2.5136201   9.9761744  83.5186615   1.5489272  10.2386742
  83.0287247  44.4438858  32.8382454  83.0297699  43.6243706  33.3328438
  82.9926147  44.1704025  31.9216557  19.0107708   1.9185495  75.8849335
  18.5787239   1.6829288  75.0639267  19.6032181   1.1878984  76.0620956
   0.2266068  33.5888596   1.1304220  -0.5407893  33.9299774   0.6711024
   0.9725506  33.9428062   0.6461496  33.3861504  33.2253990  32.2727318
  33.6814346  34.1251106  32.1328888  32.4334335  33.2930679  32.3358192
  79.9704590   5.5793428   5.2079926  79.8272552   5.4506936   6.1456356
  80.5269699   6.3563433   5.1550865  59.6859245   7.9250693  82.5967255
  58.8443527   8.2733469  82.3022919  59.5525360   6.9780397  82.6364136
   9.3465748  62.2013435  32.7085876  10.1954880  62.0467453  33.1229286
   8.8868189  62.7828064  33.3141899  83.7779999  54.2903862  18.8016529
  83.3303070  55.0009041  18.3423519  83.3571548  54.2578964  19.6607590
  37.1309166   7.1032910  67.2294540  36.9961014   8.0503922  67.1969452
  37.9865913   6.9690390  66.8219910  69.8003006  14.9939823  61.2300568
  70.1700058  15.0028582  60.3471794  69.0694656  14.3780727  61.1775055
  72.2738342   0.9420277  50.4481773  71.4602585   0.5065600  50.7025146
  72.9009247   0.2284192  50.3309097  45.9957733  70.3018951  68.0807114
  45.3215141  69.6236115  68.1198425  46.6836929  69.9899826  68.6686783
  12.9533758  14.7655144  14.8872318  13.2018986  15.6487427  15.1599493
  13.5284367  14.1888304  15.3901958  70.0058670  51.0924034  72.8835602
  70.1499786  51.4727249  73.7500534  70.5770721  50.3246536  72.8609467
  20.0787601  62.0106773  48.0054703  19.4357510  61.7855797  48.6778564
  20.9054623  62.0895081  48.4814758  58.7448425  32.8308945  25.1459141
  58.6078949  33.6159706  24.6156921  59.4398384  32.3538437  24.6924438
  48.0467873  15.9780617   7.9556885  48.6853256  16.6026955   7.6116920
  47.3740311  15.9249182   7.2768602  59.3723602  17.9426346  40.6109848
  60.0433273  17.4252205  40.1656494  58.5876312  17.3954372  40.5792389
  86.4866257  58.9292793  37.6058655  85.7642059  59.2955246  38.1159668
  86.5755005  58.0318222  37.9266510  84.9606400  58.2505150  65.6490707
  84.0209885  58.2786751  65.4688034  85.0223999  58.2814293  66.6037750
  74.5179062   1.3153706  88.9004440  74.4790421   0.6968200  89.6299057
  74.4014130   0.7732182  88.1202316  42.0241814  16.4330959  23.3010006
  42.3081284  15.7847738  22.6565762  42.7916603  16.9890518  23.4356079
  64.5159683  45.9543114  56.0573235  64.7020721  46.2625771  56.9442101
  64.9101715  46.6140938  55.4867783  51.1689529  66.9894104  27.9178314
  50.6516304  67.7792816  28.0750504  51.9760246  67.1291580  28.4131451
  56.9455414  48.4471664  17.0083828  57.5954590  47.8186798  17.3227787
  57.1066055  49.2368431  17.5248146  37.5926361  69.6482239  14.3699989
  37.0671501  69.4647827  13.5912514  37.2399101  69.0629425  15.0402737
  79.8913651  58.8938942  38.8912849  80.5219650  59.5438766  39.2012787
  79.5693893  58.4733009  39.6885719  33.3479385  55.8659744  55.8934593
  33.3111305  54.9145927  55.9921837  32.6209564  56.1902390  56.4250412
  11.1443110  40.1633530  46.7015648  10.6749334  39.3292160  46.7130775
  11.5885143  40.1999359  47.5486641  62.8323174  27.7436085   3.8692164
  63.2905235  28.4907951   4.2539115  63.2490845  27.6202888   3.0163796
  43.5469780   2.2942657  41.2420692  43.4874916   2.4426534  42.1858253
  42.6850739   2.5402534  40.9061432  70.7956238   6.2086115  26.4505520
  71.3960724   6.8727999  26.1120930  70.6054077   6.4912324  27.3450756
   9.2504864  61.2368813  58.1485214   9.0258322  60.4912109  57.5919800
   8.7397175  61.1024055  58.9468117  56.4299583   4.3334136  19.0165081
  55.7558212   4.8708906  19.4323120  56.0722694   4.1261106  18.1531925
  20.1458206  44.5058861  85.9102859  20.9721012  44.9756699  86.0233917
  20.2498779  43.7094765  86.4309921  35.6557007  61.4382133  41.2142334
  35.1892319  61.0610695  41.9601555  35.3456459  60.9373627  40.4597511
  27.8462029  45.3929100  60.5144463  27.8647766  45.7240028  61.4123688
  28.5367889  45.8802071  60.0651550  15.1206102  28.1908131  19.4007187
  14.4074621  28.5539436  19.9258747  15.5568867  28.9565353  19.0271378
   8.0589914   3.8693502  49.1664925   9.0134192   3.8640182  49.2390976
   7.7865801   3.0258977  49.5278969  81.2566757  32.7292900  78.9855347
  81.4377136  32.6546669  78.0485764  80.4876175  32.1768837  79.1256256
  59.5391045   9.9252005  73.7942581  59.2543221  10.0665379  72.8913956
  60.0394554   9.1097965  73.7627106  35.4878159  27.4306850  85.5091934
  34.9159775  27.6833134  86.2340469  35.4497032  28.1717625  84.9045563
  11.4388676   5.5452933  59.5014153  10.6970024   5.9260817  59.0314484
  12.1728287   5.6205268  58.8916016   1.5428756  20.5219193  11.6902256
   1.9794596  19.8085995  12.1558428   0.7235777  20.1379776  11.3778620
   5.4541121  37.9570732  17.2995529   4.9349227  38.2480354  18.0492287
   4.8077955  37.6358566  16.6708031  41.2639656   2.5411849  22.8256645
  41.8283081   2.5143337  22.0529861  41.5974388   1.8437848  23.3901653
  30.2384510  22.8724174  22.0695229  30.8800735  23.4679260  21.6823235
  29.5653362  23.4483814  22.4320354  84.8237839  53.5309792  23.4827461
  84.3385162  52.7680397  23.1686306  84.5889053  54.2314491  22.8741360
  82.8367538  66.5626755  27.7622509  83.7498474  66.8233109  27.8828983
  82.8523865  65.9796066  27.0032940  73.6853561  36.7595940  40.6923752
  74.1429749  36.4938316  39.8947601  73.0441666  37.4058380  40.3966064
  66.0031815  47.2838898  71.9603271  65.6125336  46.7005386  71.3096848
  66.7288513  47.7049332  71.4995041  49.4558105  70.8144989  85.2745438
  49.0653877  70.9418335  84.4099121  50.1038094  71.5149231  85.3502502
  52.1543961  22.2603703  76.1084824  52.5053406  23.0010662  76.6028976
  51.7696762  22.6553917  75.3260651  44.1691437  55.2610207  67.5774689
  44.8364067  54.6829643  67.2075500  44.6664925  55.9601021  68.0019226
  68.1794128  50.4496422  32.4339867  68.4038925  49.5239449  32.5284729
  67.2756882  50.5097580  32.7436523  78.8084183  54.6112175  23.3900528
  77.9612503  54.7914658  23.7975445  78.6047287  54.4732475  22.4650078
  57.2631874  51.4769859  46.6077995  57.7683144  52.2699318  46.4280319
  57.7597618  51.0263901  47.2908859  33.3470535  52.3334923  41.9833755
  32.8691711  52.9641418  41.4447250  32.7181053  52.0656319  42.6533775
  84.3019333  62.0532570  62.0190163  84.3068085  61.2265205  62.5014191
  85.0414734  61.9827194  61.4154129  28.1495571  11.2954502  17.1374454
  28.5356102  11.3821106  18.0090446  28.7588444  11.7540703  16.5589409
  70.8045349  50.7550507  56.0923615  70.1155014  50.1236763  55.8853874
  70.4737701  51.5887375  55.7580109   3.6054270  59.8381119   8.0590658
   2.9371653  60.0434875   8.7128839   3.1307681  59.8231277   7.2279782
   4.5392203  49.8925323  70.4634171   4.6425152  49.3548126  71.2485352
   3.6037478  49.8497581  70.2651901  65.0049438  47.2448959  81.5043335
  64.3015671  47.5881195  82.0554123  65.8045197  47.6151848  81.8782425
  69.9575729   0.7187867  28.2188931  70.3758774   0.6861371  27.3585548
  70.6040878   0.3393736  28.8141174  50.9608078   4.8512268  25.7669659
  50.0849113   5.0157790  25.4177341  50.9606056   3.9191339  25.9847603
  17.5360985   5.7449222  58.2464561  17.1946659   6.5947957  58.5246086
  17.4922829   5.7704024  57.2905998   4.6464210  59.2076416  80.6446075
   5.5359330  59.3453369  80.3189697   4.7548356  58.6312141  81.4010544
  75.8731689  62.9795380  80.6398163  76.3579407  62.1848412  80.8627014
  76.4900055  63.6917038  80.8088226   1.3874974  30.1300373   0.9269744
   1.2530715  30.6679859   0.1467360   0.5215657  29.7726269   1.1235751
   3.9602251   9.6909647  84.6637039   4.8201332   9.9048071  85.0257339
   4.1278257   9.5109987  83.7386398  59.5807152   6.3381085  85.6506195
  60.4357185   6.7680292  85.6314163  59.4223824   6.1611476  86.5778961
  65.2126617  71.2285309  23.5247192  65.7834244  70.8865051  24.2128162
  65.0552368  72.1390076  23.7746792  76.4900055  59.8457489  40.6324615
  76.7591324  59.3838310  41.4264603  76.1348267  60.6768646  40.9476204
  65.7079086  35.0902710  67.2647476  66.1816483  35.4957695  67.9909592
  66.2816620  35.2099152  66.5079651   6.0043139  47.9537163  32.9915085
   6.6028252  48.5403214  32.5290070   6.1784353  47.0901146  32.6172028
  57.9566803  13.9731846  23.0515823  58.7979965  13.8212147  23.4820709
  57.9258118  14.9198761  22.9135437   5.6125188  31.8438873   4.9194345
   5.5574369  32.3624992   5.7220802   6.0157666  31.0202255   5.1936669
  44.8280869   5.2978473  86.0595169  44.0934944   5.4790659  86.6458282
  45.6057243   5.4921517  86.5827332  41.8854294  34.0046654   2.7124927
  41.6709175  33.5648117   3.5351384  42.8422623  34.0222130   2.6926885
  31.7567215  57.6516609   5.8499122  31.2885971  56.9556503   6.3110642
  31.1262035  57.9806519   5.2092514  61.0399208  32.8747482  73.1289749
  61.5879784  33.0940590  73.8824768  60.4579163  33.6280479  73.0287781
  74.1903229  25.9273319  76.1415710  73.9838486  25.1874256  75.5704803
  73.4272614  26.5013962  76.0751343  16.3569241  65.0661774  35.5996552
  17.2787361  65.2676468  35.4387054  16.2711353  64.1400528  35.3734589
  72.4317780  25.5944920  16.3634071  73.0046921  26.3100986  16.6389179
  72.9482651  24.8027401  16.5137463   1.5400939  12.2481470  70.8796310
   1.7597827  13.1559410  71.0891037   1.9247693  12.1019211  70.0154114
  80.5663834  13.4674606  71.8787155  81.1632690  13.7055159  72.5881500
  80.0770950  14.2700396  71.6979141  73.6836700  16.9368973   6.9852171
  73.0541611  16.6745186   7.6568661  73.6222992  17.8917789   6.9593840
  40.8652153  62.0043259  28.7249813  40.9639130  62.0585175  27.7744274
  41.6078033  61.4734421  29.0130043  38.9143295  21.0522785  76.0745316
  38.6589813  20.9815350  75.1547394  39.5224266  20.3257351  76.2108459
  20.6646118  42.1859207  13.6423836  21.1544933  41.6266594  13.0394955
  21.2640305  42.3319855  14.3742256  74.2072983  51.8683510  56.2878494
  75.0387955  51.7093163  55.8411446  74.0257111  51.0521011  56.7536774
  42.3018951  15.3504305  36.5147705  42.8871078  14.8136501  35.9803314
  42.8211479  15.5748253  37.2869453  73.1488419  43.6486855  21.1162548
  72.3946304  43.4423866  20.5641289  73.2688599  42.8692589  21.6587696
  54.7652969  62.9772911   1.3037219  54.3731842  62.1051407   1.3465527
  55.3784218  63.0005836   2.0384078  64.8291397  16.6381283  86.5337906
  64.1082077  17.1647091  86.8790512  65.3833008  16.4628124  87.2943115
  65.7179108  47.2417030   1.5515543  65.7487564  46.3199005   1.8076072
  66.0643539  47.7125473   2.3095212  78.9323959   3.6875136  10.3140860
  78.5667572   3.6971173   9.4295225  78.3800812   3.0710499  10.7948704
  78.7237320  18.4277954  53.6065140  79.0381165  19.3310776  53.5681152
  78.0648193  18.4328327  54.3008003  34.5171890  32.8431473  15.6604462
  34.3565178  33.4804649  16.3563232  33.8284264  32.1878815  15.7720804
   0.3630157  47.0945549  30.6043816  -0.5044836  46.9728699  30.9902172
   0.7450163  47.8202934  31.0979462  43.7675476  41.7156830  12.1002569
  42.8952217  41.3217773  12.0896196  43.8920898  41.9974251  13.0065355
   9.4618292  15.1714783  88.6623611   9.5513582  15.6645737  89.4778824
   8.5247421  14.9883337  88.5948486  18.5496597  51.5072403  76.3736267
  19.1146049  51.1741066  75.6764221  19.1204681  51.5589714  77.1402664
  29.6481361  21.2977486  31.8175011  30.5390358  21.0023689  31.6296730
  29.4112854  21.8386078  31.0641060   3.6396861  10.8633976  71.9463348
   3.0166097  11.4725876  71.5502319   3.1271687  10.0728722  72.1155243
  45.4606781  55.6062965  51.9612122  44.5293388  55.3932381  51.9025574
  45.8605652  55.1356506  51.2298965  45.4976768  63.6482124  86.8255234
  45.1565895  64.5153732  86.6066208  46.3560791  63.8192787  87.2129745
  85.7705612  22.0056744  44.2261276  85.0440140  21.4937668  43.8707314
  85.7239609  22.8416939  43.7623024  70.5808029   9.0262175  81.8210297
  70.4022064   8.2245131  81.3294907  71.5025635   9.2148132  81.6449280
  30.7768726  16.7568588   6.0814013  31.6062202  17.0412502   5.6972995
  30.9889450  15.9384298   6.5302110  44.4432716  59.1902657  61.5077400
  44.1196938  59.0064697  60.6258392  45.3903427  59.0657921  61.4461517
  51.2106628  64.7395706  55.2003517  50.4534645  64.2194061  55.4692574
  51.6752281  64.9258499  56.0162621  85.1783981  44.8250313  21.6024857
  84.3327332  44.9724197  21.1789742  85.4885178  45.7016449  21.8296490
  28.3650608  40.5819626  21.4451923  27.5934105  40.2044258  21.0229893
  28.5475235  39.9953690  22.1792564  19.3406601  40.4644775  78.5319443
  18.7311687  40.6946182  77.8306656  19.7834682  41.2862549  78.7436981
  65.2283325  51.7826042  80.6317978  65.1857529  50.8300209  80.7155075
  65.0659180  51.9489403  79.7032623  54.7904778  56.8914948  20.9472313
  54.4121590  56.0829773  21.2927876  54.1868668  57.5784073  21.2301407
  10.0233822  63.2407875   1.0421776  10.1339788  62.2945328   0.9494363
  10.1909294  63.5885010   0.1662466   8.1318293   8.0830650  64.2378311
   7.7584171   7.8648152  65.0917435   8.4275999   7.2441673  63.8842773
   5.1574626  34.9928131  67.7600098   4.8927150  34.8633041  66.8493118
   5.5950813  35.8441124  67.7634659  61.1725731  44.3701134  22.5792255
  62.0339127  44.5497475  22.2023163  61.2833786  43.5417747  23.0459270
  57.8111649  22.5116005  13.2436628  57.6565285  21.6137466  13.5372238
  56.9438553  22.9165802  13.2444582  13.5171776  32.2992325  81.9089127
  13.9422045  33.1024971  81.6083374  12.6518860  32.5822830  82.2045212
  44.8192177   4.2932525  22.4502964  44.6437263   3.7460971  23.2158394
  45.5106773   3.8295863  21.9779320  47.2618904  56.0176697  20.3091908
  47.6032372  55.5422630  19.5517597  47.3861122  56.9407539  20.0884762
  20.6102543  11.8123217  29.5565758  19.9954815  11.5855007  28.8588371
  21.4733505  11.6369038  29.1817074  39.6039734  49.8533058  88.9909821
  40.3704491  50.1536331  88.5025711  39.2638435  49.1212921  88.4764938
  11.0587826  47.2602425  15.6602144  10.5030870  47.9666977  15.9893932
  11.4764633  46.8997917  16.4424229   3.9784684   3.9806030  10.8218040
   4.4436255   4.6289482  10.2931185   3.5391493   4.4946394  11.4992971
  45.4600677  45.5602379  30.3901386  45.8433800  46.0658226  31.1068592
  46.1141548  45.5999870  29.6924095  76.2231064  11.2263689  12.9899073
  75.9770813  11.1924849  13.9143295  76.6313477  12.0853987  12.8820391
  49.0303955  56.3623695  44.3672142  48.6788292  55.9488678  43.5787659
  48.2673531  56.4914207  44.9305458   5.5672388  24.7031193  81.7489471
   5.2115812  24.6594296  82.6365509   6.5161958  24.6675587  81.8691483
  16.6379738  46.1739922  17.3201809  15.9016314  46.4228020  17.8788643
  17.3970089  46.5966530  17.7219963  43.8700333  57.6340561  21.7084694
  43.4867973  58.0161552  22.4980049  44.0768967  58.3866119  21.1543045
  80.8809280  39.5361824  20.9819393  81.3196716  39.1133957  21.7201748
  81.1451187  40.4543571  21.0402145  69.8152084  16.6512699   4.4502282
  68.9857407  16.2742290   4.1568751  69.5605850  17.4010811   4.9879837
  14.6090031  64.3491898  20.3748741  15.1519823  65.1036835  20.6032047
  14.8234310  63.6909637  21.0359287  81.4471359  25.8302479  46.1800957
  80.6428833  26.2208996  45.8383293  81.3793793  24.9033680  45.9508934
  57.8980103  58.4099998  71.8785172  58.2119102  59.2300644  72.2595596
  57.2295151  58.6790619  71.2484741  61.2258911  35.0803185  55.3450661
  61.3742714  35.7144089  56.0465965  61.6205521  35.4824905  54.5712852
   7.5903087   3.8131821  40.6459351   8.0703449   3.3408959  41.3261871
   7.0271587   4.4193897  41.1271896  36.1816559  12.7650948  66.4024429
  36.4951591  13.5159607  66.9065781  35.6346550  12.2756519  67.0168304
  30.7613659  28.7836704  27.2918339  30.5557709  27.8656311  27.4683666
  31.6575031  28.8938313  27.6096916  84.6725616  58.8440285  24.5303822
  84.3044586  59.2311516  25.3246536  84.0008392  58.2325859  24.2284470
  14.7953644  44.4982185  47.9679565  14.1182661  45.0565300  47.5857811
  14.3558435  43.6626968  48.1259499  79.5744400  10.6233339  67.4893799
  79.4381104  10.1677542  68.3200989  78.6961517  10.8843842  67.2124329
  37.2653389  38.7315788  85.0839386  36.7223854  39.1612663  85.7448425
  38.1267128  38.6552086  85.4943390  38.7758636  68.5972748  77.4220428
  39.4453125  67.9493256  77.2024231  39.2706451  69.3678970  77.7005463
  70.2134171  68.5553818  16.5189648  70.0898514  68.3269272  15.5976753
  70.9235001  69.1972351  16.5134163  71.8183746  50.3008461  76.8715057
  71.3534241  49.4647408  76.9028854  72.4077301  50.2191772  76.1216888
  71.6246338   1.4506912  70.1209717  72.1635132   1.7632188  70.8477325
  70.8516006   1.0734810  70.5409241  34.9626732  55.1844482  19.8374138
  34.1341667  55.2048225  20.3163662  34.7278404  55.4284973  18.9421349
  25.8053951  59.9579811  47.0789108  24.8803520  59.7974243  47.2653236
  26.0916519  60.5470810  47.7769432  20.5553226  58.5165901  20.4761143
  20.9721375  58.0384712  19.7592449  20.9631939  59.3823013  20.4556866
  22.3305759  28.8577118  26.9982548  22.2336388  29.6965675  26.5475254
  21.7283897  28.9134846  27.7402058  16.3274364  65.3279419  32.5809822
  17.2671909  65.1542969  32.6351967  16.0570431  65.4682007  33.4884224
  68.6939621  35.0191345  83.4037399  68.7157974  35.8902321  83.7998962
  68.2427826  35.1467705  82.5692444  13.7880182  13.6394978  54.8190231
  13.5219870  13.8927116  53.9350853  13.0858269  13.9641552  55.3827209
  82.5436478  28.8384418  40.4710388  82.2081604  28.9383240  39.5801353
  81.8148499  29.1028156  41.0324554   3.2666416  24.1616402  17.7620659
   3.0145721  25.0682259  17.5865803   3.9696000  23.9832840  17.1373501
  62.9626579  31.7636356  41.0850983  63.4766541  30.9903412  40.8526039
  62.0807076  31.4265594  41.2425156   5.0920372  60.8887253  74.7117767
   5.5927796  60.0945969  74.8984528   4.6982398  61.1264381  75.5512085
  65.2346420  24.8694592  37.2183800  64.9275131  24.2378883  37.8687820
  66.1198196  25.0958710  37.5037422  86.1065979   3.9036195  79.9509430
  85.6383820   3.1623354  79.5668793  87.0088272   3.5966752  80.0403900
  30.7956676  20.4977303   2.9491067  30.4739017  19.8955002   2.2782726
  30.0046825  20.8941650   3.3143656  73.1381760  65.3719177  16.3582649
  73.7419662  64.6828308  16.0810719  73.6943436  66.0151443  16.7977695
  72.2326050  57.9307861  70.3210907  73.0707321  57.4696732  70.3549500
  72.3704224  58.6317024  69.6839447  74.2554321  44.0500259  56.4901657
  74.8129120  44.2141113  55.7295609  74.8666000  43.8190804  57.1897163
  83.4059601  54.7297401  85.3192215  83.1293716  53.8401642  85.5391846
  83.9716949  54.6224899  84.5545807  57.2992363  54.3622627  73.5094376
  58.0100136  54.8710747  73.1193924  56.5014420  54.7522087  73.1520920
   9.7537794  62.4460564  51.2294960   9.5671787  62.0955009  50.3585663
   8.9391909  62.3228798  51.7168427  47.0931931  30.3941574  20.8608418
  47.1079559  29.4586678  21.0630169  46.2226524  30.5459843  20.4929581
  74.1328659  24.9208202   8.1143522  73.1822815  24.9056873   8.2256308
  74.4304199  25.6240597   8.6915436  36.7132645  32.1443787  18.5888023
  36.7219353  32.9838715  18.1290054  37.2588120  31.5708599  18.0505791
  25.4449081   0.7669320  82.8697662  25.6460648  -0.0787584  82.4690475
  26.2860527   1.2226059  82.9024658  37.4226074  67.9023819  70.2918320
  37.1398048  67.3308792  71.0057220  37.3404007  68.7875519  70.6467361
  64.8889923  42.2887802  34.4146118  64.3046722  42.9885597  34.7063484
  65.6213531  42.7453117  34.0005341  63.8026581  49.1763229  21.3523006
  64.2892227  48.9550362  20.5582485  62.9623756  48.7292938  21.2507076
  47.7091408   2.3219888  69.5165100  48.0643463   1.5105246  69.1537628
  48.0041542   3.0035880  68.9126740  68.6071472  49.8212700  89.0741653
  67.8859177  49.2629166  88.7838058  69.0251312  50.1132317  88.2640533
  47.2173347  23.5068359  14.8207245  46.6199188  23.3948956  15.5601797
  48.0217056  23.0656128  15.0937519  57.2859726   7.1265125  26.2414169
  57.8327332   7.3830380  26.9840336  56.5015526   7.6689987  26.3228416
  80.1899414  44.2555542   6.0023499  80.5783310  44.6473312   6.7845855
  80.1935196  44.9602356   5.3545527   6.2881045  25.8873539  77.7262497
   5.7707314  26.3021793  77.0359802   7.0319571  26.4759521  77.8545761
  43.0121841  61.7285767  26.2305698  43.2600861  62.6525116  26.2640858
  42.4337654  61.6632042  25.4707069  20.3136005  60.6598930  74.1824570
  20.0269051  60.3754997  75.0503006  20.5198727  61.5883179  74.2906723
   0.5316646  11.9081249  73.3526535   1.3261997  12.1226234  73.8414688
   0.7774324  12.0213003  72.4344940   8.5404663   9.2335806  16.0302544
   8.5608387   8.2909861  16.1955795   8.3995152   9.6249619  16.8923359
  13.5780401  48.5359917  65.9860153  13.3570480  47.9897881  66.7403793
  14.0424557  49.2846603  66.3602371  20.0285625  60.8405800  45.5655937
  19.6223602  60.0408096  45.8996582  20.3213902  61.3058243  46.3491974
  45.9934349  49.2712860  12.7159004  46.0976181  49.3679047  11.7693052
  46.7112122  49.7827568  13.0892992  59.4813118   7.3796825  23.3233490
  58.7967720   7.4105000  23.9916973  60.3003616   7.4079971  23.8179073
  72.2298813  15.8713684  19.2812195  71.3421631  15.7559528  18.9422932
  72.1796265  15.5753050  20.1900940  52.4481392  26.0585251  10.5129156
  51.6332092  26.3812580  10.1282549  53.1139526  26.2382069   9.8491077
  19.7033520  49.6873398  29.6891613  18.7508202  49.6105881  29.6341591
  19.8858204  50.5919724  29.4350491  76.0941925  50.3724594  14.6715908
  76.9910507  50.7034340  14.7199526  76.1073761  49.5682335  15.1905146
  27.6971722  41.1350136  30.9860134  26.8510075  41.3642845  31.3702965
  28.2204113  41.9325714  31.0657158  59.3117981  55.8993607  30.3766212
  59.4444733  54.9776230  30.5980339  59.1727829  55.9005852  29.4295712
  30.0586510  68.0229034  85.4244537  30.9165840  67.6091995  85.5195007
  29.9327431  68.0986633  84.4785995  23.6306210  55.5555305  66.3877640
  23.5555496  55.9744072  67.2451706  23.9279194  56.2542915  65.8050308
   0.9552139  51.3908539  63.5523109   1.5393218  51.7752113  64.2060089
   0.8227818  52.0880699  62.9099846  22.1361904  44.7712173  65.6349335
  22.7422295  44.0656662  65.4087753  21.5073948  44.3648682  66.2313614
  15.2504759  20.0934200  28.2612190  16.0534534  20.3610420  28.7082500
  15.4968815  20.0398521  27.3378296  16.9334583   7.6601782  50.6020584
  16.9803619   7.6248279  49.6466637  16.8749256   8.5938711  50.8046036
  68.9303360  70.7569275  59.2767868  69.5288315  71.0136261  58.5752640
  69.1300049  69.8344879  59.4364014  51.0688400  39.5776672  80.5732574
  51.6453972  39.1820450  81.2269363  51.4259872  39.2896233  79.7331924
  61.6387901  58.7859726   2.4538372  61.7747879  59.1480751   1.5782697
  61.0462532  58.0466156   2.3178747  67.0927582  61.7102203  29.2419395
  66.4262085  61.1947937  29.6961212  67.4350510  62.3024101  29.9115505
  65.5618286  11.4611187  69.6837311  65.7225952  11.5393496  70.6240845
  65.8878555  12.2824678  69.3158646  50.3138466   9.3375912   0.8666822
  50.4554901   9.8866348   1.6378623  50.9233971   8.6078558   0.9769759
  34.7203598  12.9666901  73.1664047  34.0648994  13.4356737  73.6827927
  34.5028954  12.0422239  73.2860031   5.9950800  36.7253838  43.5344048
   6.0115614  37.5586777  44.0051346   5.0679803  36.5710640  43.3530121
  85.4735947  41.9305305  57.0470772  85.4755783  42.1682396  56.1198654
  85.6989670  42.7415810  57.5027504  47.9402313  69.6111755  53.8759308
  48.2140732  68.6942520  53.8981209  48.4861641  70.0078278  53.1970634
  69.3527985  22.6142807  20.4985352  68.7899017  22.3362999  21.2211056
  69.0913544  22.0590401  19.7639713  81.2472382  50.8823700  41.3445244
  81.3067551  50.8144913  40.3915939  81.2847061  51.8225098  41.5204849
  65.7047043  36.5906639   5.4482827  66.1140518  35.7280769   5.3803935
  64.9524384  36.5459023   4.8580980  81.9753647  35.5421867  71.0048676
  81.8925934  36.0550117  71.8088531  82.5928192  36.0379257  70.4670715
  62.5424843  69.9864197  60.3611031  62.9893074  69.6291122  61.1285095
  61.8304024  70.5140991  60.7226562  10.8831930  64.4083557  60.3313179
  11.4145298  64.1202545  59.5890846   9.9861021  64.1820908  60.0858307
  61.4490433  50.9536057   5.2455225  61.5076714  51.0110893   4.2918501
  61.7577362  50.0713234   5.4517159  62.9920006  26.0910149  81.4925003
  63.3495865  25.5219650  82.1740799  62.0582542  25.8815060  81.4710999
  54.9380302  63.0398674  68.6983337  54.6315384  62.9361954  67.7974701
  55.7672615  62.5625191  68.7256317  84.0182114  60.1981697  13.4838762
  83.2619934  59.6672897  13.2338209  84.1369019  60.8050842  12.7532597
  11.8279324  59.0472527  16.1077251  11.7247066  59.9863319  16.2617149
  10.9351482  58.7254868  15.9826870  32.0079422  11.0980768  85.0059204
  31.1583652  10.9392653  85.4172897  32.5376472  10.3389215  85.2494888
   0.6197494  63.0099716  70.4178543   0.3347410  62.1103325  70.5780182
  -0.1821350  63.4770889  70.1833038  26.9953289  58.3334961  64.0121384
  26.9278984  59.2805824  64.1334152  27.3907566  58.2304230  63.1465530
   6.4677320  43.6799812  13.6645155   7.0585709  43.2205620  14.2612371
   7.0407500  44.0296478  12.9821558  32.3775520  64.7065582  40.2543106
  32.3947411  63.9218597  40.8022041  31.9274197  65.3614349  40.7879257
  42.9584846  71.4292755  18.9118938  43.6065903  70.7343140  19.0268745
  43.1328735  72.0402451  19.6278114  53.2738953  54.6064301  78.6540909
  53.5358086  53.8642578  79.1989059  53.9906616  54.7086639  78.0279770
  60.7482338  23.2409096   7.7688804  60.2456589  22.8232555   7.0694423
  61.6233253  22.8600750   7.6952758  29.1532650  50.9279633  40.9078598
  29.0115681  50.6926079  41.8247910  29.7344131  50.2453346  40.5724220
  21.6603489  19.8564091   6.2480125  21.3645992  18.9793873   6.0038924
  21.8253040  20.2945824   5.4131312  77.8163376  62.8289452  84.1801453
  78.4287491  62.5314293  83.5073395  77.0033188  62.3619766  83.9873428
  41.8862877   4.9788308  30.6568756  42.3403816   4.2708335  31.1137886
  40.9850464   4.6683531  30.5697060   8.3959341  22.9120674   3.1235015
   7.9513035  23.5601101   2.5770783   8.0591717  23.0707912   4.0053349
  66.6851120  45.6946220   4.9460473  65.9352188  46.2406578   5.1821260
  67.2990646  46.2985649   4.5282588  75.6356964  66.7007294  13.1390190
  75.4553299  66.1711273  12.3623466  76.3633270  66.2529221  13.5705853
  60.1057739  20.2841396  46.1661911  59.5461731  19.5076466  46.1778030
  60.3526878  20.3877048  45.2472038  78.9753494  62.7035408  44.6181183
  78.7348862  63.1969070  45.4023361  78.9518967  61.7875214  44.8948708
  62.9264412  23.0838661  73.5667038  62.0563812  22.9606991  73.1871567
  63.3475380  22.2283497  73.4830551  18.9274731  18.0600166  89.2809601
  18.1526871  18.5697269  89.0440292  19.4545422  18.0401154  88.4821854
  78.6189117  53.2670364  59.6481552  79.4266434  53.7780113  59.5960846
  78.0906296  53.7204056  60.3051186  76.3162231   6.8120551  38.0415802
  77.1427994   6.7939386  37.5592117  75.7625046   7.4149003  37.5453873
  48.3539314  21.8337936  24.3746777  47.7701225  22.4007378  23.8707199
  49.1091881  21.6984444  23.8024025  27.5198631  69.9478760  60.9174690
  27.6347446  69.0852585  60.5188026  27.9436970  69.8748779  61.7726097
  52.7059669  51.0115204  55.2530556  53.1364479  51.1895676  54.4168625
  51.9558754  51.6059837  55.2676468  76.3549423  43.3984299  83.5487900
  76.8119202  42.5599022  83.6141434  76.8631058  43.9918785  84.1017990
  79.1012497  43.2974167  72.2808990  79.1854477  42.8849144  73.1405334
  78.6455612  42.6468849  71.7466736   4.5617585  63.9693069  75.7477036
   4.0582004  64.6046524  76.2566223   4.0206642  63.7967987  74.9771881
  55.4060249  32.9526711  32.8478355  55.0721054  33.6983185  32.3490982
  55.9225464  32.4533997  32.2152481  24.9042206  60.6615715  18.9647598
  24.0477581  60.8580093  19.3443871  25.3105145  61.5183678  18.8341370
  13.3925533  57.7316475  18.2952881  13.2231779  58.0858459  17.4223137
  12.7878838  56.9940147  18.3759403  73.4931335   3.8140421  88.8536377
  72.6364288   3.8458793  89.2794037  73.8601685   2.9700897  89.1168137
  49.8352509  63.8155060  17.8272934  50.0778084  64.6863022  18.1421165
  50.0540504  63.8281517  16.8955212  31.4330940  45.3752403  31.6151352
  32.0352020  46.1006889  31.7807388  30.7337399  45.7602272  31.0870018
  42.2401009  56.8207092  37.2391701  42.6002274  56.3458138  37.9881821
  41.3595200  57.0733299  37.5166359  16.6962547  50.9485512  45.8303528
  16.0266647  50.5567131  45.2696915  17.4825172  50.4287529  45.6635246
  29.3458881  16.0210133  13.6367846  28.4310913  16.1378326  13.8931637
  29.7372208  15.5329552  14.3612766  11.7342634  47.8089447  73.8260040
  12.4529390  47.8027420  73.1937866  10.9452047  47.7135315  73.2926102
  26.7205372  60.8886528  37.2403870  25.7955170  60.8431053  36.9985275
  27.1900139  60.6916504  36.4298248   5.9587207   8.8927069  68.8058090
   5.5937304   8.4404144  69.5663681   5.2022858   9.0696621  68.2465897
  85.9822388  65.1767960  53.1555367  86.7240601  64.7625275  52.7147331
  85.2109375  64.7885361  52.7425117  44.1620522  43.0681000   9.4892292
  44.1359291  42.7199783  10.3804979  43.2535210  43.2989311   9.2955303
  50.4056244  54.1997833  85.3542175  51.2784729  54.1988258  85.7471161
  50.0176926  55.0287323  85.6345444  17.6624947  20.9047642  29.5163994
  18.3692360  20.5698471  28.9645119  17.8494720  20.5509853  30.3859463
  14.9339485   0.0927062  40.0723839  15.0530157   0.2882349  39.1429634
  13.9886875   0.1527926  40.2105980  43.4081535  61.5025063  69.1809998
  44.3287163  61.3545303  68.9644318  43.4316940  62.0249481  69.9827042
  12.9072990  65.4035263  34.8374977  12.6440172  65.2275391  33.9342041
  13.5243082  66.1321640  34.7695084  61.7045937  19.0893688  36.3765221
  60.9649048  19.4881763  36.8348312  61.8883324  18.2893848  36.8689613
  62.0690422  46.7880135   3.5855594  61.9208603  45.9089127   3.2370527
  62.0645561  47.3552208   2.8145308  19.2215900  70.7862167  23.7062740
  19.5201168  70.1032867  24.3068714  18.5570889  70.3572922  23.1671162
   7.9273591  41.1509056  11.7295132   7.6199141  42.0573158  11.7183447
   8.8617249  41.2124519  11.5310087  19.8916245  47.7587166  14.4323721
  19.1537762  48.1917114  14.8617058  19.5677929  47.5450706  13.5573168
  24.7159691   2.2571065  39.4761314  23.8159027   2.1266248  39.7746010
  24.7663326   3.1899817  39.2677116  20.0697403  31.9723873  36.7740402
  20.2519646  31.0381260  36.6731491  20.6061611  32.3948517  36.1032143
  18.0245914  34.4576530  41.6742516  18.1760826  34.1163101  40.7929115
  17.5916615  33.7406731  42.1376534  59.1887703  36.0029678  13.6136122
  58.7575150  35.6502647  14.3919773  59.8922348  35.3812141  13.4270878
  18.9658699  51.4202957  53.6616364  19.4253635  51.5252190  54.4947586
  19.2242508  52.1853065  53.1476021  72.6462250  15.4488716  27.5537910
  71.7860947  15.0358086  27.6297951  72.7281876  15.6621952  26.6242695
   3.5798790   5.9558091  79.5080032   4.3707032   5.9230132  80.0462952
   3.9005713   6.1180506  78.6208420  69.5302963  15.2650509  18.5251656
  69.1823807  14.5842495  17.9492340  68.8903275  15.3291388  19.2340813
  21.0589886  59.1011162  58.1447334  21.7711887  59.2457809  57.5217781
  21.4955635  59.0175476  58.9924660  14.2144728   4.3705816  72.5382462
  14.9639463   4.8069010  72.1330948  13.4654102   4.6366887  72.0050278
   1.3700309  37.3883286  56.2187729   1.2650325  37.2382584  55.2792587
   1.4995406  38.3334656  56.2973518  51.4990349  13.6123304  67.7931747
  51.1247749  13.5924835  66.9123993  52.4439468  13.6678286  67.6507111
  70.1627426  36.5422211  87.8722687  70.7604446  37.1402626  88.3209763
  70.7175217  36.0705452  87.2509995  76.9980011  28.3015308  29.7222462
  77.0221939  29.2453899  29.8796482  77.7019882  27.9497299  30.2671089
   4.5367365   3.8146052  14.9301252   4.1572466   3.0421865  15.3491583
   5.3913255   3.5205047  14.6148243  32.2444077  10.7480907  32.0395355
  32.4488678   9.9525423  31.5480766  32.2930756  10.4816294  32.9576111
  72.3609619  16.0259418  55.2304573  72.6889496  16.7498856  55.7638969
  71.4082642  16.0970097  55.2900085   8.6345434  50.5436783  75.4367371
   8.5801201  51.2304001  74.7721481   8.9918385  50.9842949  76.2077332
  72.0514450  33.0272751  59.6643524  71.3404236  32.4401016  59.4076195
  71.6376343  33.6640396  60.2470436  86.2329102  48.0934105  57.2995682
  86.7351837  47.4907494  57.8479767  85.8401871  48.7093697  57.9181099
   8.5150595  24.6656361  26.4811764   9.0028782  25.3922443  26.0934849
   8.6568441  24.7576256  27.4233360  56.9253387  61.6280708  20.5786324
  56.7395897  61.2488441  19.7196102  57.8809509  61.6515083  20.6285362
  62.4814720  63.3451843  73.1341553  63.3442802  63.2962990  73.5457458
  61.9852715  63.9471512  73.6888199  68.6217270  38.2101860  52.3878632
  68.4723206  37.2788506  52.5507278  68.4850006  38.3136024  51.4461365
  83.9119873  11.2200909  72.0415802  84.4457321  11.9105291  72.4348221
  84.0043411  11.3539047  71.0982895  34.5584755   8.6370497  28.8103199
  34.3268967   9.5637999  28.7491760  33.9767914   8.2031355  28.1861458
  21.3440781  50.3364258   5.3719783  22.1425915  50.0329361   4.9401183
  21.3293037  49.8665123   6.2057610  67.5959549  26.9696503  21.1654205
  66.9052811  27.5851650  21.4110565  67.9652786  27.3328342  20.3604813
  44.8762703   3.6087139  39.1114120  44.1455727   3.0918026  39.4506989
  44.5549431   4.5103488  39.1173401  77.6184540  20.9470100   7.7054391
  77.5059357  21.3669338   8.5582190  78.2372513  21.5104313   7.2408090
  83.5829315  33.1853447  87.2513199  84.1421814  32.9354897  86.5157623
  83.9084930  32.6664124  87.9868088  25.6470947  41.0022469   0.6452900
  25.7265987  41.7997055   1.1687126  25.1100407  41.2600632  -0.1039328
  27.8491039  15.9877691  18.1193771  28.7846222  15.9087029  18.3058872
  27.5230274  15.0881681  18.1443710  59.5748444  11.1183157  86.2022476
  60.4951134  10.8860111  86.3262253  59.1394844  10.2849026  86.0230408
  74.3824997  33.2075310  36.1468964  74.2149734  33.8996925  35.5073013
  74.5877762  33.6744576  36.9568787  55.5487404  14.3572435  74.7734375
  55.5479622  13.6268682  74.1547394  55.0466270  14.0369158  75.5227737
  32.2513199  57.4749031  34.4839897  32.4914246  57.4121780  33.5595207
  31.3370743  57.1929283  34.5136642  56.9755363  20.0535793  21.4893627
  56.4390221  19.2912884  21.2718906  56.3644257  20.7900505  21.4697208
  21.9397793  50.0489502  83.6539078  21.8462868  49.5383759  84.4581451
  22.8229980  49.8483772  83.3441772  65.0347519  15.3859015  11.6115561
  64.9715195  14.7985325  10.8584080  65.9738617  15.5360622  11.7200069
  33.9867210  64.9679871  77.0185471  34.8449669  65.0798721  77.4273529
  34.0146103  65.5311661  76.2450562  76.0019226  17.2134571   2.6240008
  76.2136612  17.1216869   3.5529652  76.2091904  18.1254215   2.4200566
  26.1227264  11.5508242  30.3139706  26.2264690  12.2522097  29.6709099
  25.2050648  11.2895308  30.2374496  24.9861774  39.5855293  85.5340271
  24.7572842  39.4337997  84.6170654  25.7663631  39.0499573  85.6779251
   7.3951855  19.6569595  79.6849213   7.6471677  18.8307400  80.0973511
   7.4479690  19.4815540  78.7454147  42.3086510  21.6615639  89.1053696
  42.8600388  21.8512440  88.3462753  42.2183571  22.5032787  89.5521240
  51.0221062  41.1962013  23.4009495  50.8800583  40.4311943  23.9584560
  50.4107208  41.0794601  22.6737576   5.6204009  52.9923935  65.3868637
   5.7108321  53.3488197  66.2706146   6.1715622  53.5558853  64.8437881
  61.4463425  48.1664047  20.7257137  61.0384254  47.6339722  21.4086132
  60.8234711  48.8767281  20.5717506  76.5033875  22.8987007  66.1016235
  76.0928497  22.4228916  65.3796158  77.4429169  22.8224258  65.9352112
  74.9259338  46.5913353  18.9080887  74.0514450  46.7559509  19.2608109
  75.3252640  45.9844818  19.5313816   7.0043979  60.8296700  66.7090225
   6.3767247  60.1310043  66.5242996   6.7871165  61.1186905  67.5952988
   8.0047007   3.9395163  69.5857086   8.2143288   3.2510343  70.2168045
   7.9970288   3.4937465  68.7386780  12.2276773  54.8279991  28.8771935
  12.4895658  55.6770172  28.5210800  12.0319862  55.0043221  29.7974377
  69.0119171   4.3875780   2.9717338  69.5279388   5.0043602   3.4909008
  68.3220825   4.9229956   2.5797074   6.3666830  66.0711365  23.8811588
   7.1241226  65.6648254  24.3023872   6.6357236  66.9766388  23.7265396
  86.3647690   4.4918313  72.4360504  86.2709198   3.5587425  72.2442932
  87.2765656   4.6897507  72.2223053  33.5965462  23.6124020  48.1884727
  34.0595703  24.1042080  48.8666840  32.7542763  23.3912430  48.5858421
  58.0404625   0.8727753  58.0473671  58.6788292   0.7822541  57.3398895
  58.5322304   1.2741700  58.7637978  66.8986282   6.9116993  71.4461823
  67.4033432   7.5654211  71.9300613  66.3658371   7.4230995  70.8372116
   5.7473021  33.7823448  70.1472015   6.5514083  34.2365265  70.3989258
   5.4780841  34.2059326  69.3321457  43.4138451  55.9587936  29.3700199
  43.4658699  55.3829536  30.1328621  44.2965965  55.9466515  29.0001144
  59.2788315  25.6438961  34.1090584  59.1895065  24.7235985  34.3566551
  60.1258469  25.9075394  34.4686317  77.0439606  60.8981323  81.8684158
  77.7746964  60.8030815  81.2574997  76.7415848  60.0029068  82.0212936
  58.8009758  58.6810341  64.7739563  58.8796043  57.8197861  64.3637085
  59.4128876  59.2343330  64.2885132  26.6047668  32.8797188  25.0358982
  27.3762379  32.5545349  24.5718727  26.5296211  33.7944145  24.7640247
  16.8680172  12.0705233  40.3093987  17.4786854  11.8473034  41.0118828
  16.0017319  11.9281349  40.6908531  81.3242798  51.8742752  88.5001678
  81.7649765  52.4762688  89.0998535  81.7707901  51.0375633  88.6296692
  79.9222641  41.9821510  67.6178665  80.8477402  41.7719421  67.4932022
  79.4544373  41.2388611  67.2372208  17.5059814  64.8742676  70.3297272
  18.1917744  64.2814255  70.6370544  16.8366852  64.2965927  69.9628983
  65.8373108  22.6078377  87.5190964  66.7425613  22.4591732  87.2458725
  65.8985443  22.8051338  88.4537354   0.4841050  67.2500305  44.1160316
  -0.2645652  66.8928680  43.6383705   0.2409959  68.1577225  44.2983322
  23.6768379  11.1063709  41.6965561  23.8819160  10.3503504  41.1464577
  24.0244503  10.8768406  42.5583649  43.2819672  58.2421761  87.8993530
  44.2245750  58.2199364  88.0643463  43.1866264  58.8039665  87.1302414
  63.9405975  11.0049334  43.9310684  63.2340431  10.6711226  44.4838676
  64.7329102  10.6010799  44.2851562  75.1104050  44.5497742  31.3929539
  74.6208496  43.7407608  31.5415020  74.7146072  44.9285393  30.6080227
  78.3855820   2.2392156  25.0221195  79.2904892   2.4227855  25.2744617
  77.8587723   2.7859821  25.6049995  75.7234955  12.6001835  47.6612740
  74.8599548  12.7698793  48.0377388  76.3338089  13.0371084  48.2552834
   2.1039879  39.7672577  42.3600922   1.8679906  40.4405098  42.9982681
   2.1346290  40.2307892  41.5231743  27.8074589  49.0448303  86.2056046
  27.6615105  49.3780212  85.3202209  28.7590408  49.0485802  86.3090973
  65.0260315  43.8196754  11.8138237  65.0205841  44.7545128  12.0194492
  65.8772659  43.5111008  12.1243153  25.2874622  54.6818161  71.9079361
  25.4755402  55.6189003  71.9601822  24.8709621  54.5683937  71.0535965
  71.6670837  53.2816772  78.7010880  72.4886017  52.8792496  78.4193115
  71.0247803  52.9946175  78.0520325  65.5252228  11.7595282  81.3957062
  64.8446960  11.1408396  81.1305008  66.0795441  11.2624846  81.9972992
  80.7780609  65.0265656  31.6473694  81.4257431  65.6348724  31.2914200
  80.0779114  65.0133057  30.9947987  70.1851044  18.0783157  35.4842110
  70.5214233  17.1924419  35.3487587  70.9506989  18.6435337  35.3811226
  69.0369873  17.3138523  46.5863800  68.9447479  17.8916073  45.8288040
  69.8720398  17.5666199  46.9801025  66.7780380  26.8191948  47.2459297
  67.4997101  27.4473515  47.2169647  65.9967346  27.3437710  47.0709534
  21.5909309  10.9786425   3.9554508  21.0753574  11.7134342   4.2878613
  20.9702358  10.2513380   3.9107554  27.3589211  65.7813873  22.7083321
  27.1477795  64.8929062  22.4215393  28.2970543  65.7556839  22.8966846
  31.6399670  37.5608978  29.9264774  31.8954029  37.5133858  29.0052147
  30.8912659  38.1571922  29.9369926  51.6290627  16.2538815  77.0184860
  51.7349663  15.6851664  77.7811050  51.7670784  17.1381016  77.3581009
  64.3959961  39.9363556  38.4921150  63.8182335  40.6978722  38.4419670
  65.0119400  40.1487923  39.1933365  57.9486046  53.8597641  60.7896881
  58.5194817  53.8010025  60.0236053  57.2762413  54.4933777  60.5393105
  40.8192940  57.3736992  84.2860565  40.7046967  58.2459755  83.9089127
  40.7324104  56.7777710  83.5420456  68.9289169  30.7809639  50.4756546
  68.7281189  31.0937138  49.5935555  68.1359177  30.3225307  50.7535362
  77.9230194  50.5921898  47.1505852  77.7274628  50.4700317  46.2215691
  78.2712631  51.4820023  47.2070541  70.3667603  27.2730827  48.8209114
  69.9086151  27.4780331  49.6359787  70.0478897  27.9247780  48.1965332
  49.1515999  61.9064598  49.5677872  48.4548073  61.6622505  48.9586296
  49.0679321  62.8555908  49.6593437  59.3395233   4.3121018  33.3291740
  58.9919662   4.3865228  34.2179337  59.4152031   3.3696740  33.1797256
  65.2134933  50.6942711  39.5758514  65.7273026  50.7017212  40.3834267
  65.2502975  49.7856865  39.2769318  63.9191704   0.5084999  26.7470207
  64.2638626   1.3132561  26.3599987  64.1823044   0.5529968  27.6662674
  61.8771248  42.8039131  35.7036095  61.1298065  42.5754318  35.1508484
  61.9460335  43.7559166  35.6316986  65.3523865  69.4261169  53.1244621
  64.4814301  69.2185059  52.7859917  65.3147125  69.1811447  54.0490150
  55.0332909  27.0551643  88.3779678  55.3715630  27.8587666  87.9829712
  54.3372726  27.3512135  88.9646149  34.5760536  69.3975372  10.2181320
  34.7977524  68.5899277   9.7546167  34.1030693  69.9222717   9.5722427
   0.2162695  62.6103897  16.5828457   0.3549981  63.4303703  17.0567837
   1.0719754  62.1815071  16.5906582  20.5478058   4.1140766  81.1862793
  20.0850468   3.7315731  80.4407730  21.1409359   4.7561517  80.7961884
  33.4213295  63.6913223  25.4346714  34.0810318  63.5074425  24.7659302
  33.8452911  64.3149185  26.0242634  64.1791153  16.9482841  49.2721329
  63.4142342  16.4297657  49.5217857  63.9081573  17.4073353  48.4770927
  28.5887852   1.3273529  47.7546844  28.7441616   1.2772495  46.8115082
  28.8816986   2.2051668  47.9993782  30.4515381  69.3656921   6.8308864
  30.3383446  68.6312180   7.4341841  31.1089573  69.0622635   6.2048168
  70.4779358   0.7846523  10.7176952  70.9406052   1.3787310  10.1267281
  70.0623779   0.1460224  10.1383047  54.6449280  41.6034737  24.4832821
  53.9889450  41.9179535  23.8611717  54.2418518  41.7321663  25.3418846
  12.7768116  27.8121281  25.2853146  12.7391891  28.2833290  26.1176510
  13.6726122  27.4779434  25.2395496  59.5174637  47.9404526  12.1880465
  58.8686600  48.5296631  11.8031826  60.3610420  48.3083611  11.9248829
  12.3644505  11.1839743  36.9983292  12.5164862  12.0579586  36.6387901
  12.6717510  10.5874052  36.3157578  43.7349129  28.7137222  43.3341408
  43.4237976  28.0952263  42.6731567  44.5931892  28.9931602  43.0155334
  30.8145847  26.1294193  28.3093739  30.8496876  25.6203632  27.4995213
  31.7297325  26.2208385  28.5746651  58.8989258  13.8855000  34.5950928
  58.9492378  13.5648813  35.4955940  59.5126152  14.6195707  34.5675735
  35.6738167   2.0528805  22.2356167  34.7557144   1.8400126  22.0682640
  35.9123688   1.5101728  22.9871445  79.5159149  35.4511299  80.9110565
  78.6603317  35.1297722  80.6265564  79.9348297  34.6913223  81.3153305
  16.4690056  71.2157822  87.2240143  16.6213093  70.4212494  86.7123947
  15.8915253  70.9362259  87.9343643  36.3040619  13.5757303  69.9570084
  36.3243523  14.4609222  70.3206787  36.8120613  13.6374254  69.1480789
  62.3464203   7.4359274  63.8270531  62.4459114   7.8369298  62.9636116
  61.4006653   7.3395905  63.9388542  76.9947891  59.1108627  48.3179703
  77.8392487  58.9942131  48.7533035  76.4593964  58.3834839  48.6349945
  52.7374115  24.6247654  77.2613754  53.3859558  25.2165031  76.8799744
  53.2062073  24.1777573  77.9661026  59.0882530  29.7318993  22.6218929
  59.0146217  30.0923996  21.7382374  58.2653389  29.2624073  22.7583714
  56.0364685  18.4262085  34.5333138  56.1877899  18.1111851  33.6421928
  55.2302361  18.9385834  34.4725456  69.9217606   7.7948923  28.3515491
  70.0144501   6.9760823  28.8385715  70.5054550   8.4072905  28.7993221
  74.1551819  59.9063492  23.9296837  73.8188858  60.7978516  24.0211105
  73.5149765  59.3608322  24.3866119  17.9881802  18.7929573   8.9352083
  17.5392437  18.2458687   9.5797100  17.3485394  19.4672813   8.7063446
  26.6631794  30.0648270  86.1313858  25.8489208  29.5907822  86.3001938
  26.7214813  30.7018681  86.8434372   9.7496939  18.3880825   4.9647708
   9.5653172  18.7039471   5.8493419  10.0892782  19.1545048   4.5026989
  82.9005661  60.4076500  35.2954140  82.8674774  59.5491142  35.7173767
  83.8299942  60.6365013  35.2906113  65.0998077   7.5630364  22.4166832
  65.7244186   7.2955217  21.7424965  65.6102753   7.5713496  23.2263680
  14.4132509  45.3894081  15.5073757  14.6165037  45.1398849  14.6058998
  15.2678432  45.5214462  15.9178276  65.9083405   5.0351534   4.7388082
  65.8570786   4.0911312   4.5890517  66.4181061   5.3675365   3.9999664
  79.8925552  50.2493973   4.0898628  79.5617371  51.0627747   3.7087991
  80.3022614  49.7905807   3.3564730  23.9402485   4.0836825  32.4416847
  23.6908054   4.8361282  31.9051819  23.3777924   3.3729987  32.1337814
  57.5845451  66.8234406  81.3818130  56.9450722  67.4518356  81.0465240
  57.4271698  66.0274887  80.8739548  48.1643600  69.3563843  22.6360359
  47.4191246  69.3600082  23.2367401  48.9313316  69.4169312  23.2055225
  30.3641300  26.7079639  83.0257416  29.4662151  26.5345097  82.7430878
  30.6423130  27.4544334  82.4950485  38.3320122  55.9072304  13.0112095
  38.7167816  55.5377808  13.8059988  37.3971100  55.7161217  13.0865211
  15.1181927  33.8932953  80.4497910  15.9563608  34.1103630  80.8579407
  15.3553467  33.4129219  79.6565475   1.4601479  30.6760006  62.5349808
   1.2902488  31.4367924  63.0904617   2.3804719  30.7617989  62.2862358
  48.4435463  22.4591007   7.7721500  47.7323952  22.6477032   7.1598396
  49.2326431  22.4599037   7.2303405  67.6496811  13.4080629  76.7881622
  67.4773941  13.9375677  76.0095901  67.3794403  12.5236998  76.5409698
  41.5594215  67.5910721  11.9636879  40.9189110  67.0961380  12.4745846
  41.9960785  68.1514282  12.6052256  53.2672081  71.3080444  85.7891159
  52.7207870  71.9185028  85.2941437  53.4596405  70.6032715  85.1706467
   4.7219424  27.5843010   6.2889991   5.0014768  26.7135029   6.5714979
   5.1837764  27.7278519   5.4629641  12.9325590  65.1041107  18.2361279
  12.3825636  65.6250687  18.8212280  13.7212334  64.9225845  18.7472782
   3.0848348  70.6031876  86.3579483   3.8762751  71.1174011  86.1984482
   3.0747452  70.4667282  87.3053207  53.3391266   5.6243010  76.1536331
  52.5018806   6.0852437  76.2063599  53.2111969   4.9735179  75.4634476
  67.0797653  11.2098827  71.9771347  67.5723495  11.0565491  71.1708603
  66.6332932  10.3802967  72.1464767   0.8540130  58.3622894  30.9608841
   1.0743926  58.5527878  30.0490856   0.5640721  57.4501038  30.9516659
  78.6035461  46.3430023  64.3648605  79.1712189  46.8305702  64.9617386
  77.9415970  45.9484329  64.9326324  51.4888611   7.6615257  80.5546646
  51.8712883   7.2358656  81.3219910  52.2343559   7.8322840  79.9790649
  30.2283421  65.0012131  66.2802658  29.8104267  64.3540573  65.7121429
  31.1120224  64.6613007  66.4209747  42.6450806  41.2027473  25.1160183
  43.0308380  40.9890594  24.2664509  43.3785019  41.5306282  25.6364212
  81.7744751  24.8718090  75.1216278  82.4446106  24.9606476  75.7993164
  81.0285568  25.3701038  75.4556122   6.9194789  12.0403547  78.2256622
   7.4528470  12.7767019  78.5249023   6.0303907  12.3919106  78.1791611
  83.7489929  64.3349075  45.0643158  82.8886414  64.1098633  45.4184036
  84.1010666  64.9772110  45.6805305   2.1334188  68.8839645  57.7907219
   2.5603995  68.0469360  57.6082344   2.2012467  68.9854813  58.7401047
   7.8464565  15.8858509  77.6201248   7.5069323  15.3051996  78.3011551
   8.3016367  16.5776215  78.1002274  64.0512466  55.1498108  33.4916649
  63.5558205  55.8771973  33.8680763  63.4120560  54.6734581  32.9618073
  57.5709038  17.0432053  79.3200378  56.6629066  17.1202354  79.6130219
  57.6438942  16.1439934  79.0001602  84.7863617  17.7497959  70.7147141
  84.4118195  18.4458408  71.2545929  85.4260025  18.1954269  70.1592789
  50.3497314  63.1116180   1.0953268  51.0801582  62.6669426   0.6652453
  49.7909393  62.4022560   1.4128027  24.7472668  14.3700609  15.8808479
  24.0830746  13.7087765  16.0752277  25.4696655  14.1657257  16.4746647
  61.3097229  69.8223877   5.8229408  61.5681229  70.5836639   6.3424888
  61.3779449  69.0845413   6.4288759  79.9466248  57.5412865   5.4639606
  79.7731323  58.4739532   5.5915060  79.4927368  57.3223343   4.6501589
  74.8219070  25.6718884  63.2718849  74.1722107  25.4224682  62.6146889
  74.3522186  25.6210117  64.1043777  67.7643738   8.9054823   6.0494046
  67.9849091   8.0209656   6.3413424  68.2144241   8.9997969   5.2098842
   6.2559271  16.8530464  60.1739006   6.8398724  17.4189205  60.6789017
   5.9937239  16.1688328  60.7897987  62.6022377   5.0008817  37.4146652
  62.4011497   4.7543006  36.5118942  61.8475189   5.5184126  37.6953697
   6.2652225  58.8358040   2.3905127   5.8754220  58.0255699   2.7188573
   6.7893562  58.5616264   1.6379545  65.0194473  68.7378693   8.3252621
  65.0032806  69.6767120   8.5111189  64.2317123  68.3963394   8.7484217
  54.2552032  47.0012970  39.7367134  55.2113609  47.0016937  39.7813988
  53.9914207  46.2424850  40.2571487  59.3294258  46.3574257   1.5352161
  59.0618782  46.9592018   2.2298498  59.2580032  45.4885406   1.9303957
  64.5247803  58.5552063  69.2123642  64.1518250  59.4224968  69.0544434
  63.8760185  58.1113281  69.7585449   1.4763325  57.9461517  10.9076529
   1.3670869  57.2922859  10.2171783   0.6254916  57.9770050  11.3450880
  75.9651794   5.1573982  30.5658054  75.8137283   5.6440892  29.7556057
  75.7631531   4.2491779  30.3409691  13.3977509  37.7707710  77.1482010
  12.5423079  37.8158569  76.7210999  13.2514420  38.1439743  78.0174255
  67.3850174  30.9034061  23.1585388  67.8034897  31.7606335  23.2377739
  68.0275116  30.2894459  23.5141945  54.0137100  39.9149704  70.5547409
  53.9805298  40.7445259  70.0783310  54.7301025  40.0261993  71.1797562
  46.6238747   9.0251293  65.8501358  47.0551147   9.8795729  65.8639984
  45.7814026   9.1750498  66.2790833  83.1559067  19.1601219  45.7772446
  84.0155411  19.2440128  46.1898346  82.8561325  20.0619373  45.6627960
  23.1546135   8.4040041  83.6035843  22.3994102   7.9914727  83.1843948
  23.2938251   9.2100496  83.1064453  25.6717834  16.0209236  29.4759064
  25.7086239  16.8152409  30.0087643  26.1556797  16.2434044  28.6805592
  70.8635254   4.3713722  85.4260406  71.7967377   4.4098921  85.6354599
  70.5229950   3.6675475  85.9782257  77.8424225  18.8554859  77.5172729
  78.5387344  18.5051060  78.0728073  78.2997131  19.3921528  76.8698959
  71.7741547   1.1296790  61.8416634  72.1781693   0.5575024  62.4940567
  72.1225815   1.9994754  62.0373192  62.9120407  39.9700127  82.8306961
  62.0049744  40.0130653  82.5280304  63.2932892  40.8067207  82.5646057
  25.0096092  68.8088913  38.7732162  25.8862343  68.9772110  39.1188011
  24.4481754  69.4365463  39.2282639  84.2158356  70.2967834  63.9988632
  83.9614944  71.2174377  63.9361382  83.5131149  69.8880539  64.5041885
  31.4029560  22.5635872   8.4996691  30.6969433  21.9174347   8.5159149
  31.9569683  22.3318005   9.2450390  67.2118988  57.2850647  47.1587639
  66.6007156  58.0217133  47.1645775  68.0564575  57.6727448  47.3882256
  69.7143097  66.9107590  34.4408875  69.3470306  66.9621811  33.5584526
  68.9614792  66.7290802  35.0034447  67.9208755  12.7875929   7.4301095
  68.4528580  12.0210781   7.6438532  68.1981964  13.4543562   8.0584011
  27.7142735  66.6436234  51.5564423  27.8694534  66.7461472  50.6174850
  28.1652336  67.3872375  51.9563293   9.2382164  35.7072983  56.8409309
   9.3940258  35.0546417  57.5235672   8.5630398  36.2792206  57.2059975
  50.8584557   3.5139892  19.0971375  51.1051750   4.0804267  19.8282394
  51.2741508   3.9140310  18.3333321   3.6242855  57.7418251  57.6958961
   4.2431812  58.3107681  58.1536102   3.9707849  56.8588028  57.8241043
  28.1806831  64.6992874  34.9107132  29.1303482  64.5799255  34.9216118
  27.8386135  63.8683319  34.5809669  78.3410110  47.9981537  38.0977402
  78.1956863  48.3327141  38.9827156  79.2930298  47.9402733  38.0168953
  29.9618721   9.8393660  60.1867409  30.8335724   9.5894995  59.8802528
  29.6993275  10.5534477  59.6058884  73.8514786  28.2208405   6.4223890
  73.1137772  27.9014206   5.9027805  73.4584656  28.8309116   7.0465546
  33.3997192  27.9504280  11.0849915  32.6190910  27.5270844  10.7277365
  34.1158066  27.3525734  10.8704681  70.9804611   7.4226246  22.3096237
  71.9131165   7.4273129  22.0943165  70.5388565   7.3933978  21.4608803
  50.1835518  59.5482826  17.3832817  50.5116043  60.1295433  18.0693951
  49.2403030  59.7098808  17.3632298  52.2326050  14.7414627  16.5430260
  51.5668373  14.6578674  15.8603840  53.0513687  14.8712034  16.0644608
  78.5868912  -0.0192549  46.1502533  78.4257355   0.9020732  45.9467506
  77.9901428  -0.4993007  45.5760841  31.0759678  71.3591537   2.7291722
  31.5089283  70.5066376   2.6846049  31.4622383  71.7842178   3.4949079
  20.3304348  17.6127949  61.5536995  20.7466068  16.7526436  61.4973869
  20.3177414  17.9322548  60.6514702  14.1665821   5.2671313  58.8388596
  14.9425373   4.8137312  58.5093842  13.6913214   4.5997524  59.3337975
  81.4888458   7.2925735  24.4820499  82.4179382   7.5224028  24.4959068
  81.0598755   8.0528479  24.0893650   9.8479967  68.2564697  38.9788818
  10.7101336  67.8459854  38.9121323  10.0313625  69.1955185  39.0071220
   6.0552058  30.9522362  16.6638813   6.3447423  30.0511837  16.5206776
   6.2843790  31.1355095  17.5749912  24.1601009   0.5897483  64.4550629
  23.9629421   1.0828573  63.6586952  23.3373280   0.1536344  64.6766052
  72.9489594  37.7052307  59.1741524  72.0169678  37.6018333  59.3663292
  73.3668823  37.7534981  60.0339432  51.1502533   3.3946443  61.9176102
  51.2821693   3.5851791  62.8463326  50.9327698   4.2414465  61.5279160
  22.9185104  56.4508324  78.6567841  22.8990269  55.7943954  79.3531570
  23.4443474  56.0501328  77.9645615  73.2315674  19.7305851   5.0976510
  73.3001938  19.6594467   4.1455684  72.8021240  18.9190140   5.3681335
  29.0956059  61.1376266  61.6846695  28.1527748  61.2451782  61.5592346
  29.4879837  61.5452919  60.9126053  50.9338264   6.2928228  88.1789017
  51.6918869   6.5715055  88.6926270  51.1635666   6.5105109  87.2755432
  63.8350029  59.5656967  19.4630947  64.0437241  60.1808319  20.1661453
  63.9276695  58.7019997  19.8651810  13.1401234  37.6795197  36.2284279
  13.3393221  38.5638809  35.9210815  12.5887194  37.3056221  35.5411224
  36.9271278  40.4754639   7.0745549  36.3840332  39.9170876   7.6308794
  36.3109398  41.0932312   6.6809664  77.6942902  19.1549244  19.3922710
  76.9948349  18.7582817  19.9115620  77.8139420  20.0238113  19.7756138
  48.3840828  13.0362558  17.6102314  48.8672791  13.1191454  18.4323502
  47.9923859  12.1637526  17.6495514  86.1564713  33.3970642  14.2847166
  86.0117264  34.3015862  14.5624237  85.6303558  33.3032265  13.4905939
  49.7750359   1.5855303  60.4449883  48.8318558   1.7484221  60.4346733
  50.1370850   2.3070161  60.9593925   9.3432055  58.6977882  19.0258846
   9.2670307  58.6693802  18.0721436   8.9349737  57.8846207  19.3230934
  18.4315510  12.6470203  75.7364960  17.9442635  12.9451447  74.9684448
  17.9493637  11.8789616  76.0427856  86.7559357  58.6302643  83.4030151
  86.0939789  58.9111862  82.7712479  86.3789062  58.8446960  84.2563019
  82.6322861  11.0189686  68.8244934  82.2857513  11.5300455  68.0930939
  83.5821762  11.1137209  68.7541122  74.5336227  54.7857513  67.0633774
  75.4831390  54.9025803  67.0951004  74.3789749  54.3003159  66.2530289
  67.5545578  10.8653049  56.0635872  67.2247696  10.0022078  55.8135147
  67.3318024  10.9473705  56.9908829  80.3217163  42.9847069  82.4949722
  80.5588989  43.9120102  82.5042191  80.1723785  42.7848892  81.5708466
   7.6907959  43.9083824  36.6465073   7.9115996  44.2419319  35.7768974
   8.4595976  43.4035683  36.9117203   6.1493587  39.3917465  58.1343803
   6.0800433  39.7539597  57.2510757   6.5980883  38.5546532  58.0154533
  44.2179260  27.0862389  14.4081488  44.3837242  26.2311287  14.0112467
  45.0853882  27.4807472  14.4981804  83.3537903  24.9347286  21.0836601
  82.8464584  25.7453995  21.0429783  82.8915482  24.3948174  21.7248001
   3.4441469  23.7910595  54.0040016   4.2185011  24.1280251  54.4546242
   3.0622432  24.5583248  53.5777588  42.6598129   4.1448283  17.8960838
  41.9327354   3.9482892  17.3053532  43.3899612   3.6263542  17.5580025
  24.4213047  23.0711346   4.0413704  24.2474442  22.6870975   4.9007421
  24.8349266  23.9125252   4.2342753  49.4561043   5.4600420  72.3123779
  49.9853897   5.9194636  71.6604462  49.3543587   6.0902972  73.0255814
  58.9005890  43.8562317   2.5553083  59.4644775  43.2230644   2.9995577
  58.6521645  43.4238205   1.7382768  61.9527931  32.3139114  31.8218174
  61.5828552  31.8076878  32.5450859  61.5140800  31.9734650  31.0421638
  71.1762543  30.0139751   1.5423204  70.2784882  30.1402321   1.2352271
  71.1703186  30.3425655   2.4413338  10.8539267  70.5350342  22.0077839
  10.5566807  69.6259460  21.9698772  11.6878538  70.4950333  22.4759693
  28.2888794   5.2613988  45.5691795  28.4804153   4.8945813  44.7060509
  29.1379375   5.5573459  45.8974342  75.1792603  47.0709114  57.5905151
  75.1221008  47.8968353  58.0709496  76.0349960  47.1014023  57.1627121
  70.1431274  43.1887550  17.0840187  71.0358353  43.5314102  17.0404682
  70.2014542  42.3178101  16.6912212  52.8556023   8.0357695  37.0650444
  52.8395233   7.1500330  36.7024918  53.6835136   8.4052534  36.7580070
  72.8305817  33.4988976  17.9377518  72.4418945  33.3130760  18.7925167
  72.1165085  33.8816872  17.4280415  21.8824997   9.6411285  14.0297747
  22.2143078  10.0208931  13.2161942  22.5735569   9.0429916  14.3142071
  18.8368015  44.4543648  13.2583132  18.8571205  44.6479607  14.1955118
  19.6448612  43.9673615  13.0967703  76.1455917  28.7321186  69.9805450
  76.9631729  29.2179832  69.8722458  76.0009232  28.3144455  69.1315155
  82.7158127  43.9879074  85.9592285  83.0644150  43.2455940  85.4655838
  83.4776611  44.3579292  86.4052200  85.2202301  15.1013193  30.8763943
  85.6350632  14.4208555  30.3461971  85.8924561  15.3553934  31.5086823
  25.8325214  59.2419662  16.4623814  25.6063004  59.9125633  17.1068611
  25.4687595  58.4325447  16.8211937   1.0172758  16.9755707   5.9371109
   0.9408959  17.1997375   5.0096698   1.6463934  16.2544613   5.9582014
  28.0285416  35.6373558  13.9578991  28.5827332  34.9656525  13.5605116
  28.1569862  35.5272675  14.9000320  30.7316189   9.1367760  13.1554384
  30.0304279   9.2794828  13.7912025  31.4372406   8.7359438  13.6630440
   1.6104401   9.6800804  52.7203140   1.5410035   8.7961855  52.3595619
   2.5281601   9.9198437  52.5917244  26.2091713  59.5749512  44.2573318
  26.0318794  60.1259689  45.0196800  25.6069813  58.8367195  44.3501396
  28.8000221  69.6907730  63.1219025  29.5320530  69.7817764  63.7318878
  28.0363541  69.9844208  63.6187057  77.6923828  65.9170837  80.8914261
  77.6881866  65.9193268  79.9342346  77.2623978  66.7369232  81.1347504
  62.5374832  66.8860321  50.9777946  62.5988312  66.8542023  51.9324989
  63.3861847  66.5655823  50.6724319   4.2050581  56.3757172  23.9342022
   4.9693131  55.9141769  24.2793503   3.6138887  55.6794510  23.6479130
  48.9648323  12.8469534  76.0694885  48.5590134  13.7045164  75.9424896
  49.5491562  12.9669933  76.8180847   0.7070936  67.5817719  72.1557312
   0.5206450  67.6147995  71.2174454   1.5346062  67.1048279  72.2188492
  76.3812943  32.8413544  85.5700684  76.0047836  33.6644325  85.8815460
  75.7569962  32.1716003  85.8491974  82.2378922  49.3357048  24.9116287
  82.9168549  49.5076485  24.2591934  81.4197617  49.5697594  24.4733143
  73.6292419  19.6290951  37.2823486  73.7431564  19.7257309  38.2278214
  73.6265717  18.6830158  37.1368866  10.1997986  26.6723118  25.5777721
  10.9599199  27.2523537  25.5330715   9.9835396  26.4899921  24.6633186
  35.9377403  61.8206024  17.3708630  35.2166672  61.3636742  17.8038769
  36.4806633  61.1210823  17.0073528   2.0572193  52.3751450  13.7541351
   1.7489269  51.5908432  13.3001995   2.9838262  52.4374161  13.5222864
  39.5540924  42.2184792   2.9702120  39.7404633  41.8001862   3.8107662
  39.7456818  41.5435181   2.3190970  17.9701214  30.8923836  86.3442612
  17.3602486  30.2562809  85.9705429  18.7966175  30.7268658  85.8906708
  55.7289581  44.3751030  23.1148529  56.6614418  44.2441711  22.9429054
  55.5302925  43.7713203  23.8305397  36.0764732  28.8261299  23.3751278
  35.7048798  28.3847160  24.1388721  35.8812790  29.7526474  23.5154686
  81.9943390  21.7501602  55.2721176  81.5571289  22.2496872  54.5825157
  82.1697006  22.3931618  55.9591637  29.6260147  38.2432632  86.2188339
  29.9975224  37.7543182  85.4845657  30.0088520  37.8360596  86.9959106
   9.4058037  11.0508595  28.6659431  10.1139669  11.6815796  28.5358334
   9.8078442  10.3385191  29.1631012  34.5644112  63.8931122  69.1808624
  34.5438499  63.3638458  68.3835678  34.4442711  64.7920609  68.8747711
  56.0736694  44.0253944   9.3143883  56.2056046  43.0810966   9.2299366
  55.5224724  44.1217117  10.0910053   3.5314345  52.5340614  83.7742462
   3.7133224  52.7675552  82.8639526   3.0271246  51.7224922  83.7171555
  33.1539726  50.8710289  29.8998489  33.9037628  51.4147606  30.1415176
  32.5597420  50.9365540  30.6473961  29.1756916   0.5830148  70.9009781
  29.2050419   1.2347597  70.2005539  28.2541218   0.5482859  71.1573639
  70.8669128  44.3199081  53.6480560  71.5391235  43.8153114  53.1900597
  70.5903931  44.9814491  53.0139198  55.9335823  38.9816704  32.5234680
  55.2798729  38.4845848  33.0151978  55.4216118  39.5972481  31.9988899
  14.2542191  30.9340477  41.4735069  14.6859198  30.6118488  40.6822739
  13.6915951  31.6450920  41.1667442  77.5949020  70.4554749  30.4426823
  77.2300339  71.1160431  31.0315361  77.8489990  69.7348480  31.0191898
   2.4948881  14.8731356  71.7626877   2.3280809  15.0890446  72.6801758
   3.3545091  15.2524128  71.5798416  24.8897820  40.7497635  56.1867180
  24.3550549  41.2763329  55.5925598  24.7579842  41.1502075  57.0460815
  79.9599915  11.7676897   1.7177314  80.1643753  10.8330317   1.7472810
  79.0899887  11.8101854   1.3208352  59.4983444  44.8891068  79.9062424
  58.7827110  45.3920288  80.2950516  60.2361259  45.4986191  79.8861313
  53.3106956   2.2419808  35.0538483  54.0476685   2.0262430  35.6253052
  52.6190987   1.6339396  35.3150253  28.0228176   7.1501265  27.8576279
  28.8488197   6.8738418  28.2546425  28.2367535   7.9639730  27.4014282
  38.7990723  42.0630226   7.9927897  38.1702805  41.4397697   7.6289110
  39.5642509  41.5311623   8.2115555  22.6009254  11.5814972   8.1734419
  22.6304417  10.9113092   7.4906473  23.0155659  12.3470707   7.7756958
  55.2237129   4.6405997  52.7929802  56.1541214   4.8329639  52.9094620
  55.1690483   3.6860166  52.8378639  11.3098927  27.1595039  82.4157410
  11.9324865  27.8690434  82.2571182  10.7198267  27.5040150  83.0860901
  52.3619690  57.2331276  48.5962944  51.4954300  57.3070641  48.1964531
  52.8916969  57.8889198  48.1429100  83.4847183  37.4815979  60.2450790
  83.2887039  36.9096527  59.5029945  82.6279297  37.7792244  60.5509491
  24.5328102  16.2840900  67.2091827  24.0725307  16.7025318  67.9366989
  23.9235153  16.3451080  66.4734726  44.5364075  70.7797852  70.6442490
  45.4690781  70.9901047  70.6903229  44.1651115  71.4595032  70.0817947
  72.9901276   4.4799290   8.7529345  72.6128159   5.3514304   8.6331158
  73.8757858   4.5513563   8.3969316  80.9208832  61.7225227  52.5019569
  80.3801651  62.5121613  52.4840279  81.1833725  61.5912437  51.5908585
  75.2584839  50.7974701  53.4011993  74.3879166  50.5283699  53.6943474
  75.1988297  50.8017082  52.4458694  79.9765549  64.5050812  62.6941071
  79.5428848  63.7206383  63.0299721  79.4422455  65.2308273  63.0166473
   9.3872862  63.3403358   5.9270687   8.7994061  63.6012039   5.2181416
   8.9863625  63.7037315   6.7166476  78.1035919  53.3920822  80.5362930
  77.9891357  52.7486038  79.8369598  78.0058441  54.2389183  80.1009216
  85.5039978  21.2953873  82.7600174  85.8935623  20.4737511  82.4610367
  85.9468231  21.4832363  83.5875778  33.3951492  48.9188347   0.4610166
  33.5156517  48.8707199   1.4093815  33.7619553  49.7682686   0.2157606
  10.4049425  35.6028442   1.5751120  11.2744637  35.9772606   1.7164493
   9.8631487  36.3474121   1.3137554  35.9093399  32.3261795  22.4551926
  35.8904495  32.0797691  23.3799400  35.0541039  32.7256012  22.2962379
  75.6609955  34.0582237   2.1901793  76.0206299  34.8435402   1.7776622
  74.8331375  34.3471031   2.5741489   2.2270114   9.0141315  79.8398056
   3.0757976   9.3095007  79.5103378   1.8101851   8.5955944  79.0866013
  18.7341213   4.5865178   9.0299425  19.6771469   4.5966167   9.1937485
  18.6489048   4.2383013   8.1424093  13.5667458  48.2288055  49.0283432
  13.5140543  47.4297371  49.5526962  14.3987951  48.1542091  48.5610504
  38.6056099  17.7327728   9.0402946  38.3722610  18.2737675   8.2859030
  38.5617867  18.3306618   9.7865124  34.5980797  14.1666269  61.6973953
  35.5104103  14.4004774  61.8682709  34.2976341  13.7632923  62.5118217
  62.0376549  22.3478470  16.4433937  62.3804779  23.2230263  16.6244087
  61.9107552  21.9568062  17.3078098  37.7391930  57.7108192  31.6619987
  37.6741829  58.6261826  31.9342327  38.6053352  57.6412735  31.2605152
  78.7940979  35.2614517  42.5034256  78.5060654  35.3929520  43.4067421
  78.0959778  34.7437325  42.1023941   1.0953401  36.7054443  14.4578838
   0.8099032  36.3680305  13.6088200   0.3736181  37.2627258  14.7490664
   9.7367115  13.2627611  16.5447826  10.1243744  12.6597710  15.9104700
  10.4783974  13.5738316  17.0637894  48.5590744  42.1557541  75.2133408
  49.0341721  42.8667603  75.6434402  49.2442780  41.5683670  74.8944321
  70.5319977  66.0858765   2.6308904  70.6766281  66.8109283   3.2388537
  69.5806808  65.9839706   2.6016402  85.7539062  36.0839615  68.6141739
  85.9077225  36.6433334  67.8528061  85.9755325  35.2029037  68.3127518
  56.3573418  33.6610909   4.5231128  56.1403351  34.5637856   4.7560983
  56.7252350  33.7230721   3.6416113   7.3118424  39.2197380   6.1197505
   8.2449751  39.4280815   6.0740619   6.9056554  39.7967415   5.4729824
  20.3220730   8.4421673  52.9886093  19.9036808   8.6435423  52.1515732
  20.9249821   7.7260447  52.7888565  57.4978828  32.8317795  69.2317123
  58.3039780  32.4121704  68.9310989  56.8197708  32.1689262  69.1012421
  11.8834476  64.5028992  38.7314339  11.8710003  65.4081879  38.4207535
  11.1319094  64.4416733  39.3210716  72.6065140  64.6347809  87.6785507
  72.5136566  64.1729889  86.8452682  73.3490601  64.2089310  88.1069260
  54.7052994  68.2730637  64.1391907  54.7916718  69.2233810  64.2144699
  54.0881119  68.1449814  63.4188385  71.4791336  21.4087715   2.9736454
  72.2721252  20.8860626   2.8545735  71.6127853  22.1766891   2.4180615
  20.1725349   5.2371778  68.5273743  20.5569439   6.1080394  68.6276779
  20.9249401   4.6515107  68.4430466  64.9915390  10.5087194  67.2132874
  65.0810776  10.7924538  68.1230698  64.6923752  11.2894497  66.7472458
  75.6848297  39.5707893  43.4204559  75.0963440  40.3024483  43.6064377
  76.1948929  39.8600197  42.6638756  61.5314598  68.6389389  42.5481758
  61.8436089  67.9330063  43.1142578  60.6722488  68.3428116  42.2476768
  60.1378479  18.9552364  63.8624115  59.8480644  18.0761909  63.6184158
  60.4009056  18.8748417  64.7792358  84.1059418  11.9984169  85.6309128
  83.3760681  12.3711205  85.1363449  83.8317337  11.1017704  85.8234406
  61.6325722  71.3321991  78.9382172  62.5003548  71.7157822  79.0649261
  61.6388283  70.5419617  79.4783401  25.1237183  36.5986671   7.4572620
  25.4124165  36.1915970   6.6404510  25.5739880  36.1053619   8.1429300
  31.4406586  67.0275803  55.2880669  32.3615379  66.7722549  55.3430290
  30.9582920  66.2063904  55.3839989  66.1012039  70.9923630  81.6675415
  66.2630615  70.3841782  82.3887558  66.9646454  71.1428146  81.2827530
  75.3093872  22.2682896  59.6501312  75.5783234  21.4978561  59.1497955
  74.5157547  21.9914150  60.1080894  79.4925766   0.6816998  16.2624760
  78.7174530   0.1958166  16.5441360  80.1893616   0.0259869  16.2349129
  11.6844206   8.1216021  74.6401291  10.9661198   8.6352510  75.0095062
  11.2521400   7.4063811  74.1734085  24.6821213  69.3844681  88.9188538
  24.8232021  70.1120987  88.3131409  23.9063339  68.9377365  88.5800018
  69.6010590  45.5523758  18.8782120  69.0046082  46.2996979  18.8336353
  69.0264282  44.7868538  18.8763199  50.0510864   9.6618690  63.5242577
  50.0478516  10.2079630  62.7381248  50.3793335   8.8138189  63.2254333
   1.6245261  54.8604965  77.7076035   2.4485371  54.8106003  78.1921082
   0.9519470  54.6558647  78.3572159  55.7151260  47.5436821   6.2916183
  55.9229660  46.6342468   6.5060048  55.7227325  47.5719719   5.3348670
   9.5375586  14.7270288  14.3211575  10.3780270  14.4041748  13.9961796
   9.4314833  14.3035460  15.1730032  35.2122612  68.7718201  21.6503887
  34.5445480  68.9393997  22.3154507  35.8461685  69.4800339  21.7636433
  74.1773834  11.0973301  79.3357620  74.2315063  11.9138613  79.8323288
  75.0223007  11.0311260  78.8908386  78.6992188   1.8839674  42.3403587
  78.7195969   1.1020370  42.8920860  77.8098068   1.9047774  41.9871635
  30.0285645  64.6051331  80.3780136  29.7219486  63.7572060  80.0567093
  30.6154976  64.9232101  79.6920319  26.1377392  19.8615322  86.3397293
  26.3218689  19.5194321  85.4649200  26.6416721  20.6737728  86.3902359
  27.8335800  64.9601517  19.4549370  27.0670357  65.1334229  20.0013962
  28.1918755  64.1413574  19.7976189  72.6142426   8.3473110  36.7141953
  71.8798523   8.8716278  37.0335579  73.3142166   8.5045099  37.3478737
  27.3496819  22.9125881  84.4175720  27.5459080  23.3141384  83.5711212
  26.4042206  23.0208416  84.5205994  19.2308254   4.8464894  52.8540764
  18.3984432   5.1644769  53.2037277  19.0503120   4.6677661  51.9311981
  45.2020226   6.9274259  23.0388775  45.0949707   5.9920893  22.8659115
  45.4126968   6.9759898  23.9713421  45.8714104  52.3258057  69.7902603
  46.1228256  51.4074898  69.8888474  45.6471672  52.4146156  68.8639450
  58.9464989  37.9005547  40.1337204  59.7608032  38.3797874  39.9805031
  58.2565041  38.5472450  39.9856339  49.1982498  42.8453140   1.0067495
  48.8793335  43.7477226   1.0203290  49.5535469  42.7036209   1.8841987
  29.6906013  10.4176607   8.4305849  29.9866982   9.6044149   8.0216951
  29.4905415  10.9965677   7.6950068   9.4503040   1.0752722  22.7512417
   9.1104622   1.4595653  21.9431210   9.9918671   0.3422575  22.4586143
  71.0560379  66.7177124  78.6785812  70.5605164  66.2222748  79.3306808
  71.7226715  66.1050110  78.3680573   0.8597195  55.9530983  83.5083008
   1.7306657  55.8209114  83.8827515   0.7504866  56.9037743  83.4857101
  44.1942673  58.1066589  46.5225449  44.7852821  58.8522339  46.4174194
  44.3430786  57.5713043  45.7431335   9.7645607  25.8538818   7.9140730
  10.3778172  26.5752239   8.0548439   9.7978945  25.3491344   8.7266922
  72.7274551  55.4416924  38.8353958  73.0287476  55.2512245  37.9470406
  71.8795013  55.0023613  38.9000778  53.3041954  26.5303993   5.1244173
  52.7368164  26.2326088   5.8354969  54.1883316  26.3030605   5.4122601
  16.5698223  32.6491508  43.0692139  17.2547798  32.9270363  43.6773643
  17.0145531  32.0586166  42.4611702  77.4704666  69.8010406  74.4031677
  77.9237823  69.1078033  73.9234085  77.0649948  70.3378525  73.7222443
  51.4102974  42.5183182   7.2172375  50.9023895  41.7626419   7.5125599
  50.9586868  43.2729340   7.5951667   6.6157069  62.6125450  12.8611927
   6.6765194  63.4198570  12.3505268   7.5039053  62.2558212  12.8519650
  85.3931503  30.7720242  44.0775986  86.3097305  31.0339794  44.1641960
  85.0855026  31.2315655  43.2963142  45.3602448   8.5872774  34.0408821
  45.1781998   9.3077383  34.6442299  45.0367165   8.8960476  33.1945839
   3.4668150  60.1117592  68.6928864   3.5551345  59.7191086  67.8244019
   4.3402853  60.4478111  68.8937531  53.5807648  20.9252033  87.6808472
  53.7812119  21.2586861  88.5554047  53.5750618  19.9734783  87.7829208
   1.4618459  71.0582809  45.1581078   1.3789366  71.8432770  45.6995354
   1.7072861  71.3883057  44.2937737  32.2596130   5.5012898   1.9270586
  31.5602798   5.2543707   1.3219172  33.0567894   5.4679446   1.3982595
  10.0494900  29.9209862  40.9343948   9.8572989  30.6381264  41.5385513
  10.2709312  30.3548279  40.1103935  43.0347595  11.2989388  40.7357140
  42.4328194  11.6600780  41.3864632  42.8112297  10.3692036  40.6926117
  80.6227264   3.9477160  87.9047012  81.5753784   3.9461341  87.9979477
  80.3903046   4.8737469  87.8363113  73.1901627  16.5858421  37.9488220
  72.9886703  16.5080643  37.0163078  73.7053604  15.8042288  38.1485405
  83.6862717  49.2831192  80.0630798  83.8858261  49.7230721  80.8894272
  84.5422745  49.0564041  79.6996307   7.5886908  10.7489901  33.6088371
   7.8626280  10.7165184  34.5254250   6.6325331  10.7746449  33.6453857
  21.5048161   2.4898391  45.6351891  20.7270145   2.8820362  45.2384071
  21.9512501   3.2216020  46.0611610  38.4303246  37.3725967  22.7509174
  38.8999557  38.0269318  23.2681484  38.5924187  36.5462112  23.2059326
  57.4071312  66.4492950  85.2227554  57.7938080  67.2263107  84.8190613
  58.1403999  65.8426514  85.3253784  35.3404160  38.8637505   8.6426001
  34.6512489  38.6906624   8.0012569  34.9168854  39.4045372   9.3092356
  37.5974236  55.5352936  24.9667110  37.2567673  54.8249435  24.4230309
  38.5429115  55.3876686  24.9888573   6.9142885  24.1788902  86.6295624
   6.3255954  24.1067734  87.3808746   7.7599745  24.4164257  87.0098495
  67.9578934  61.2498283  18.3982086  68.0376434  60.2990303  18.3216686
  68.5640411  61.4852486  19.1006336  76.1454926  45.9965668  71.2075882
  76.6760788  45.9552917  72.0032043  75.9378738  46.9254494  71.1060715
  85.3718033  62.9192963  79.7376633  84.6944504  62.2682533  79.9208527
  85.8319397  62.5770569  78.9712524  79.3475113   7.3082170  70.6076736
  79.5036621   6.5375290  70.0618744  80.2024002   7.5092440  70.9884338
  44.5307388  44.4263496  24.7957458  44.0281258  44.1758118  24.0206070
  44.9705887  43.6205444  25.0667591  16.7829323  44.5296364  23.0062122
  17.5978298  44.2535591  22.5867405  16.1055241  44.3519936  22.3536835
  42.9063835  56.6646881  48.4243317  43.5525322  56.1965332  48.9530640
  43.4247856  57.1226425  47.7626915  73.5095978  44.9184990  14.7587433
  72.8732300  45.2731438  14.1378622  73.4261627  43.9689751  14.6711531
   9.3261652  20.8893757  83.3817902   8.6564369  21.2665100  83.9522858
   8.8893328  20.1529198  82.9539566  26.3349743  43.8664742  85.8515854
  26.5504074  44.7178612  85.4708405  27.0527782  43.6871529  86.4589005
  77.7580643  22.7650604  51.1030350  78.7113342  22.6851082  51.1365051
  77.4753876  22.6415691  52.0091667  56.6463013   7.3209295  34.5780983
  57.1487770   7.6786456  35.3100777  57.2067070   7.4563670  33.8140068
  28.4132633  40.4622612  88.9165573  27.6266632  40.8892822  89.2558899
  28.4671459  40.7490654  88.0049286   4.3650436   8.0356951  12.3406029
   4.7513318   8.3457813  13.1596632   4.2161913   8.8313284  11.8296804
  77.1943970  65.9595108  34.7026329  77.1922684  66.7083740  34.1064529
  76.6269531  66.2272415  35.4255142  79.2834854  42.2601395  59.1509476
  80.1197281  42.0796738  58.7215691  79.4894180  42.9275970  59.8054123
   9.5225801  -0.2609912  79.5784531  10.1164322   0.2668719  80.1122437
   8.7486534   0.2906238  79.4644775  46.3105011  48.6914062   0.6148940
  45.6280251  48.0465317   0.4288825  47.0788155  48.3698807   0.1431475
  86.3737259  31.9346066  55.2272491  86.3020325  32.8278351  55.5637474
  87.0989914  31.5505543  55.7199287  15.2958889  12.5532284  23.7524414
  15.0405655  11.6968203  24.0953789  14.9736319  13.1773844  24.4026794
   7.9139152  47.8032646  23.0406685   7.6291308  48.5952721  23.4965801
   8.7177343  48.0622177  22.5900593  68.1629181  35.2660332  32.7222786
  68.8257370  35.8613319  32.3722382  67.7234573  34.9148331  31.9478340
  55.7677879  40.8845139  16.2547760  55.8561630  41.0233803  15.3118353
  55.2173195  41.6086006  16.5529556  29.0002689  65.4570847  85.7366562
  28.8722515  65.4122467  84.7891159  29.1251507  66.3886795  85.9176559
  10.0771685  23.3422852  55.8927345   9.8775578  23.2038383  54.9668732
   9.2815504  23.0735245  56.3520737  76.1887283  25.7287273  45.5300217
  75.3809052  26.1410751  45.8359985  75.9098282  25.1571789  44.8146362
  53.6101189  62.1213303  48.2612114  53.5206032  61.9874191  49.2047615
  53.0965767  62.9088135  48.0812759  51.1705666  30.4275246  87.9684906
  50.7033730  31.1127338  87.4905243  50.7162590  30.3694744  88.8090057
  13.6890049  33.6583595  19.8709736  13.8858299  33.6954002  18.9349613
  14.5125599  33.8935280  20.2983913  40.6743126  31.4687290   8.0627089
  40.0831070  30.8182774   8.4416857  40.5949135  32.2290154   8.6388092
  23.7663784  63.7649651  77.1744995  24.0753021  63.6163750  78.0682068
  24.0004101  64.6742325  76.9882507  77.3709793  40.4713516  25.1656170
  76.5967255  39.9301224  25.3199787  77.0233383  41.3518677  25.0239582
  58.8348541  20.6552849  68.7417221  59.6937675  20.6115780  68.3214951
  58.8204842  19.9050102  69.3359528   9.6663589  23.8408966  82.5668488
  10.1624517  23.4322510  83.2761688   9.2867832  23.1057034  82.0855560
  16.3110886   4.3671098  33.4766426  16.0105991   3.6939683  32.8660545
  17.0237885   4.8085699  33.0146866  10.4440851  26.6602573  10.8453236
  11.2196398  26.3865547  11.3350534  10.6465502  27.5490513  10.5532885
  80.8066025  52.9820213  62.6034698  81.1824036  52.2060814  63.0193176
  80.2160797  52.6335411  61.9355812  17.8925858  71.2942352  40.6456413
  17.0342102  71.3161163  41.0686569  18.4574585  70.8433533  41.2732239
  49.4991341  44.0700417  77.0222321  50.3491974  43.8062897  76.6700211
  49.4980354  45.0249100  76.9554596  70.9116974  17.2042160  39.4741058
  71.0055466  16.4229851  40.0191765  71.5881348  17.1109257  38.8033142
   3.0887411  30.0221386   3.2409418   4.0454235  29.9931488   3.2531817
   2.8551829  29.8386822   2.3309824  64.5569763   9.8264217  35.0668564
  65.1601868  10.2257433  35.6936836  64.3295212  10.5370579  34.4672775
  34.4269257  52.1282692  24.1472225  34.8659668  51.4559364  24.6682243
  34.2032318  52.8122673  24.7783661  19.6237774  56.9809875  22.4731407
  19.4784489  57.5040741  23.2614880  19.9319363  57.6106262  21.8213558
  80.9791946  11.9309921  78.1382294  81.2101364  12.8220148  77.8755951
  80.0578308  11.9871616  78.3915405   2.6611614  20.4227180  46.5696678
   2.2796490  19.7469749  47.1300697   3.5259893  20.5858822  46.9460754
  85.9934616  47.2898636  34.7573814  85.4533615  48.0572815  34.9460373
  85.6587067  46.9605675  33.9232788  13.8545008  19.3455620  46.3605881
  12.9476662  19.6510105  46.3847580  13.9710903  19.0115032  45.4711838
  71.1719589  68.2212524   4.3982081  71.1799850  68.7057343   5.2237029
  71.5890274  68.8111115   3.7702372  56.8504219  42.4679794  51.7845116
  56.8682251  42.7563820  50.8719673  56.2573891  43.0816116  52.2181091
  75.8224945  34.0555573  67.2003784  76.0767899  34.1205864  66.2798691
  76.3479309  33.3327904  67.5435333  53.6615410  34.9855919  68.2929153
  53.5218658  35.0369568  67.3473587  53.2849960  35.7963867  68.6350479
  32.3637047   0.9133449  61.8051262  32.8797531   0.1854361  61.4586105
  31.5300541   0.5168263  62.0581703  26.2943745  58.0320854  14.0504293
  25.8902340  58.5656548  14.7346859  26.9954815  58.5819626  13.7006884
  16.9071426  10.3881207  51.1097336  16.1701145  10.3106413  51.7155571
  16.5671158  10.9124660  50.3847008  30.9555893  61.0812378  58.0933418
  31.3467140  61.9503593  58.1820984  31.6569366  60.4769821  58.3366928
  58.7482262  65.6172333  10.9819498  59.1701088  66.3773499  11.3825388
  58.1084328  65.3278885  11.6324711  65.3505173  62.1598969  13.6343279
  65.2661438  61.7742996  14.5063534  65.2700424  63.1024551  13.7804213
  79.1100311  54.6142807  73.9981842  79.2071838  54.7487679  73.0554733
  79.8768921  55.0402794  74.3811798  68.7467194  49.3025322  28.3097954
  68.6098328  48.3705826  28.1396046  67.8681717  49.6818047  28.2866554
   5.3538475  55.2931633  75.7683640   5.2511468  54.4853096  75.2653198
   5.7087121  55.0076065  76.6102448  58.0127373  44.2245102  33.0991898
  57.8625031  44.0856972  32.1641006  58.4129410  45.0924721  33.1512184
   8.3626070  34.7605362  22.4394321   8.8541441  35.4276466  22.9185886
   8.2819662  34.0331535  23.0563946  14.9585171  59.1786041  85.4683151
  15.8061161  58.7353973  85.4312057  15.1766100  60.1099129  85.5047989
  32.9234047  38.7889061  78.0023041  32.7014732  39.3155098  78.7702026
  32.0910187  38.6696053  77.5449982  75.1667480  12.7024603   6.3730960
  75.0098343  13.1397724   7.2099752  74.4522095  12.0702877   6.2955127
  70.9421463  30.5484524  30.8935108  70.3493805  30.6826000  30.1540031
  71.0908051  31.4268017  31.2437000  83.8311081  22.0753746   5.5432711
  83.0590134  21.9431038   4.9931836  83.5325394  22.6622601   6.2380013
  51.5204239  28.2988796  26.0125542  51.5829163  27.3641186  26.2088966
  52.3150978  28.6764641  26.3895931  79.9701996  32.4414062  24.2640800
  80.3290939  31.8341312  24.9111042  80.3947144  32.1944427  23.4424820
  78.4740143  39.8268623  18.0739079  78.2837219  39.9600601  19.0024986
  79.3642654  39.4754524  18.0598621  69.2200775  19.8740959  63.8849983
  68.3825607  19.9801884  64.3361435  68.9824219  19.5892105  63.0026207
  74.2089081  31.9572582   3.7525861  73.5402908  31.5101032   4.2714643
  74.0192871  32.8882713   3.8687186  28.2114334   9.9439650  30.1821804
  27.4428692  10.5048351  30.0774612  28.8830833  10.5228844  30.5426960
  29.1172619  51.7486877   8.7204771  29.7019291  51.7778130   9.4778070
  28.9023972  50.8214188   8.6192970  81.1700363  17.4598637  69.6462097
  80.5556335  17.0930576  70.2819748  81.7512894  18.0140305  70.1670532
  86.3163605  23.8116112   4.8128090  85.4729843  23.5556488   5.1862230
  86.9656830  23.4220371   5.3983359  60.1160088  58.3285713  10.8442755
  60.8757439  58.2161026  11.4155731  60.2841148  57.7448578  10.1045113
  77.0715714  15.2948475   0.8905119  76.7331390  16.0758839   1.3283175
  77.6885529  14.9172602   1.5174061  35.3921776  29.5856495  84.0659866
  34.6831055  29.5397835  83.4246216  36.1841393  29.4009819  83.5610886
  55.2528572  14.9673662  78.2432861  56.0196991  14.8021317  78.7918091
  55.5954247  15.4523382  77.4925003  50.6610451   1.0345384  75.6673431
  50.7695885   1.8941137  75.2604294  50.7870102   1.1946650  76.6026077
  66.6460114   3.7196944  19.6890602  67.0212326   4.5936546  19.7969208
  66.6436844   3.5751493  18.7428398   7.2686095  51.4065208  14.5635929
   7.5182567  52.1641083  15.0927162   8.0957050  51.0765839  14.2124701
  14.2749557  14.3400364  47.5707550  14.9503679  14.4835749  46.9078484
  14.3882589  15.0624228  48.1884537  76.6362534  70.5518188  44.5205574
  75.9780045  71.1796036  44.2225227  76.8647919  70.0536880  43.7357864
  81.9508743  64.0765152  41.3009872  81.8214798  63.9713173  42.2435493
  82.4123764  64.9106140  41.2142067  23.4147091  57.3077354  11.1116648
  22.6736031  57.7548294  10.7028818  24.1390095  57.9293251  11.0392179
  55.5612183  47.8537941   1.1837045  54.9512177  48.3050079   0.6001477
  56.2857018  48.4693604   1.2952163  80.6442184  41.6645966   4.2502060
  81.3883896  41.5758095   3.6547604  80.7820663  42.5077896   4.6817803
  30.6463490  54.1922226  25.4604626  29.8520184  54.7180557  25.5541058
  30.8127956  54.1755028  24.5179939  85.9276352  71.7405090  37.6907463
  86.4074402  71.7083817  38.5183868  86.1299286  70.9078522  37.2641411
  17.9916134  59.5649643  40.2247200  17.4216652  60.1757622  39.7574730
  18.0596581  59.9284821  41.1075859  58.2922478   1.3858926  67.6920929
  59.1960564   1.6518029  67.5228271  58.3705559   0.6171690  68.2570343
  47.0477028  58.5774727   1.3944510  46.4883842  59.0349121   2.0222592
  47.7697906  58.2356186   1.9216706  51.5499382   0.8129563  27.8922749
  50.9451828   0.0925067  28.0696373  52.3744965   0.5376719  28.2929611
  19.9208870  36.9463730  84.0902176  20.2482529  37.8070183  83.8287811
  19.3871689  37.1186333  84.8659134  80.1146240  13.6512375   9.6753654
  79.2333145  13.5151577   9.3275070  80.6113968  12.8908281   9.3733196
  20.0959892   7.8359718  47.3685226  19.8882122   7.2840872  46.6145439
  20.9022102   8.2879391  47.1195946  63.8975830  42.0214539  10.1583958
  64.2336426  42.7920952  10.6160021  63.5294838  42.3672981   9.3452978
  57.4746780  36.0945549  81.3040695  58.2834358  36.2221107  80.8082123
  56.8195457  35.8753853  80.6415024  13.5073576  15.6779404  59.2403793
  13.6777182  14.7360725  59.2306328  13.1191835  15.8422451  60.0997734
   0.8164598  65.4156799  78.3200302   0.4675273  64.7695694  77.7060089
   0.2347424  65.3639374  79.0784225  45.3244476  55.2783012  79.9590073
  46.0030594  54.6759224  79.6542892  45.3314819  55.9903793  79.3193817
  71.6391983   8.8197775  43.4177551  70.7362823   9.1370430  43.3995705
  71.5722656   7.8934102  43.1862488  37.1651993  65.2658157  52.9914894
  37.9996071  65.5539017  53.3616219  37.3005524  64.3405304  52.7871323
   3.5316188  56.5839119  82.4319534   3.8938203  55.8341789  81.9597855
   4.2345071  56.8583679  83.0208969   0.5037333  57.4510574  64.3915634
   0.7221987  58.1159592  63.7385635  -0.2463489  57.8147469  64.8620300
  31.3054981  55.4553070  18.2355080  31.3168945  55.8019066  19.1276798
  31.1414909  54.5185890  18.3445377  32.5748329  71.4299316  46.3746529
  32.1232567  71.0853806  45.6042023  32.1947556  72.2984772  46.5065651
  60.3529854   2.6498976  12.0177898  59.4096222   2.6192894  11.8585272
  60.7034149   3.1554835  11.2844315  27.2844753   4.3309159   4.3841515
  27.3668289   4.3120012   5.3376145  28.1797009   4.2195058   4.0641665
   9.3647156  50.9777641  70.9967804  10.1953573  50.8703499  70.5333939
   8.7383051  51.2161636  70.3134003  61.6811180  65.9606857  78.4692459
  62.1118660  66.4719162  79.1543274  61.7567329  66.5017700  77.6832809
  70.3710327  20.1162376  68.8181305  70.6663589  19.8056183  69.6740112
  71.1219788  20.5926170  68.4640427  86.6516724  60.8915901  24.0661640
  87.4856491  60.7414436  24.5113316  86.1665268  60.0749931  24.1846275
   9.5437851   6.2806845  14.6851835  10.1847277   5.5752726  14.7736044
   9.4345360   6.3879862  13.7403116  64.5386505  69.0510406  87.8998718
  64.0005112  68.4229279  88.3816528  64.8136597  68.5780106  87.1144791
  78.7624359  34.0500832  87.7869339  78.1258011  33.4150238  88.1150131
  79.5915833  33.5720482  87.7717514  30.7271347  66.2775574  33.0966682
  31.0530529  65.7175674  33.8012428  31.0032578  67.1598358  33.3447876
  74.3821945  37.3636932  29.6333313  73.4439316  37.5303726  29.5432663
  74.6538773  37.0512238  28.7703209  23.1144981   5.2610025  72.0423203
  22.5073547   5.9885015  71.9068375  23.8355579   5.6410933  72.5441513
  37.1730766  64.1005936  70.2104340  36.4075775  64.4257355  69.7365875
  36.8109207  63.5268822  70.8856583  22.0404873  10.6120577  53.6224747
  22.9214725  10.3474789  53.3577194  21.4761562   9.8993416  53.3228111
  66.7188034  20.1682587  20.5823250  66.0879822  19.5266819  20.2557068
  66.7960663  20.8093452  19.8757324  34.9906807   2.4293406  55.1739616
  35.1013222   2.4043577  56.1244164  34.1522141   1.9944099  55.0189209
  78.7277832  34.7932549  85.0935135  78.5031815  35.7218132  85.1532135
  78.7365799  34.4901085  86.0013962  83.8297119  51.0578651  43.8990326
  83.0020752  50.8581696  44.3364944  84.4832230  51.0281830  44.5977936
  20.0548172  51.6338959  78.5984573  20.4067039  51.2036362  79.3777390
  20.4241772  52.5165672  78.6248245  73.5868073   8.1635027   2.4577348
  73.1294632   8.2492237   1.6212426  74.2850266   7.5318346   2.2853334
  58.9158478  63.5718231  72.7029190  58.7699661  64.3792953  72.2100296
  58.0978737  63.4311867  73.1797562  54.6274681  55.6964760  35.5728073
  55.1714325  56.2727852  35.0359612  54.8212585  54.8160439  35.2510719
   9.2669401  17.0410576  85.6631546   9.8201504  17.8107147  85.7966309
   8.4092560  17.3014107  85.9990463  64.5837173  22.8677521  31.2701397
  63.6518631  22.8355656  31.4865875  64.6080856  22.8511333  30.3133945
  22.6011829  18.5655422  76.2989731  22.5822105  17.6359673  76.0714645
  21.7299023  18.8867798  76.0667877  69.0323792   1.8377054   1.9551128
  68.0833588   1.7700251   1.8501754  69.1610794   2.6427894   2.4566166
   6.5039830  68.5713806  32.1306305   5.8218498  68.3869705  31.4849358
   7.2306232  68.0004501  31.8810997  82.2268143  46.6533585  28.1564579
  81.5560837  46.2303886  28.6926022  81.7349167  47.2086563  27.5515499
  43.8919678  39.1408043  78.5116196  44.5702667  38.5654488  78.8653259
  44.1879272  39.3424683  77.6239395  70.6319504  52.7342644   6.5308304
  71.1143265  53.4569016   6.1291552  70.6719894  52.9125519   7.4704270
  60.4245605  39.8527603  88.3087234  60.2666130  39.6904564  87.3787003
  61.3428879  40.1191635  88.3527756  76.3499298  13.7890615  65.4910889
  76.9597168  14.0559168  64.8032150  75.4938736  13.7823296  65.0628891
  67.0705032  33.6758842  78.2922592  66.4421844  34.3410568  78.0112000
  67.6508179  33.5613899  77.5396881  39.4261932  13.4387217  39.2147598
  38.8402939  14.1191969  38.8832359  40.1117592  13.9185276  39.6795349
   7.7891722   1.5119270  46.0269203   6.8600430   1.5973547  46.2405891
   8.1329699   2.4028263  46.0927467  12.5849733  49.9944496  51.4652252
  12.4404278  49.1061630  51.7912407  12.7994633  49.8779449  50.5396690
   4.5031142  51.9228859  42.5448456   4.8375196  51.4942284  41.7570267
   3.7208941  51.4220963  42.7763062  39.9571953   8.8334198  38.7996063
  39.2989082   9.5283222  38.8012657  40.3257370   8.8547335  37.9164581
  32.8360977  62.0221329  15.4306526  32.9042206  61.1308556  15.7730265
  32.0820923  62.3966789  15.8860912  17.6323452  30.9439507  68.8888397
  17.5406799  30.0286198  69.1534195  17.9999065  31.3798447  69.6576920
  30.7468758  23.4407673  17.3843365  31.1330719  23.0664806  16.5925064
  30.0253162  23.9829998  17.0656395  64.8210526   0.4083312  62.5832520
  64.8816681   1.0523101  61.8776665  65.0440979   0.8984209  63.3746376
   9.3501148  33.4215469  76.8553619   9.9416752  34.1733894  76.8234711
   8.4860229  33.8030663  77.0103455   8.2366514  53.2992249  26.3861637
   9.1616440  53.0575523  26.4332237   7.7735190  52.5470543  26.7549152
  38.7736931  62.3454285  66.2635040  38.7540703  61.4184418  66.5012817
  39.6945038  62.5940094  66.3444214  56.5820084  53.7818909  57.0052032
  56.0394478  53.1414375  56.5451202  57.3857269  53.8307915  56.4876366
  62.2960701  15.4270821  59.6067352  62.4621849  16.0347424  58.8860512
  61.4899673  14.9749155  59.3577957  50.2808876  59.3082466  54.0015411
  49.6598701  59.1925316  53.2823906  51.0377464  58.7779999  53.7520752
  65.1520081  69.1959763   5.3483005  65.2924805  69.6690903   6.1684594
  64.9321594  69.8775864   4.7132339  39.6032143  44.3447456   6.7918134
  39.2361832  43.5370560   7.1511984  39.2694092  44.3814392   5.8954539
  37.6709557  46.6078033  85.2279968  38.4355545  46.0385551  85.3150177
  37.7258644  46.9477730  84.3348923  62.9409561  20.4815750   2.8506536
  62.4925346  19.6363640   2.8783693  63.7336121  20.3155479   2.3403993
  24.0685844  70.1732788  31.0552368  23.8117256  70.2928085  30.1409225
  24.8441181  69.6136703  31.0149536  53.3101387  61.6264763  80.9521027
  53.7834206  61.3206024  80.1783676  52.7461357  62.3278275  80.6261597
  53.7535782  48.5744286  58.8940697  53.0460243  49.1680679  59.1454506
  53.4926567  47.7257767  59.2517624  68.4391785  28.5746727   3.4096375
  68.8470535  29.0691833   4.1205025  67.5487442  28.9218731   3.3565042
  79.6280899  27.6651020  80.6792679  79.5609818  27.4493809  81.6094208
  78.7402191  27.5475502  80.3414764  33.5953789  61.4644508  32.7940292
  33.1366081  61.5625954  31.9596863  34.3223839  62.0849304  32.7420425
  57.8728027  34.0572968  10.8174400  57.5916710  34.4674377  11.6353531
  58.4887428  34.6824799  10.4353523   0.3678060   7.2392416  88.0310364
  -0.5795882   7.1194329  88.0967789   0.4920078   7.7223997  87.2141190
  32.6208916   2.4932864  63.8985786  32.9845047   2.0155506  64.6440887
  32.5134811   1.8290449  63.2177887  31.3389835  44.3213654  80.6344757
  32.0497742  44.9204750  80.4062881  30.8269691  44.7956581  81.2895508
  19.1658688   0.2325292  16.4827538  20.1131096   0.1154492  16.5552807
  19.0179825   0.4199909  15.5558138  21.6008911  70.9963837  64.6354065
  21.4404602  70.7804565  63.7167854  20.9120464  70.5349426  65.1137390
   9.5923128  51.2107773  28.9344292   9.8219013  50.5087242  28.3256264
   8.6820793  51.4207611  28.7255955  84.6565704   8.1279488   5.9394288
  83.8662643   7.6830115   5.6333709  84.8296661   7.7443814   6.7991657
  66.8125763  57.1055527  70.7370911  67.4790802  56.4450188  70.9260330
  66.5362244  56.9172401  69.8402100  36.2781219  54.6019058  32.2085228
  35.8248444  55.0763206  31.5116005  37.2070084  54.6962357  31.9975529
  81.9835281  65.0748444  80.1178741  81.1401443  64.6229553  80.1448975
  82.3935623  64.8671188  80.9574890  35.9304657  51.3515587  77.5994949
  36.2409630  50.5171165  77.2480316  36.7198486  51.8873634  77.6770630
  79.9682770  32.5321541  70.7600403  80.0663834  33.2775536  70.1676025
  80.6764450  32.6364708  71.3955383  26.0976524  64.0187988  42.5951309
  26.6383801  63.2580338  42.8074684  25.4394016  64.0460968  43.2895317
   2.4227359  35.8554039  33.2631989   1.7356787  36.4657936  32.9956055
   2.8193200  35.5659714  32.4415054  71.3258057  32.9076462  73.5388184
  71.5664215  32.2125282  72.9263229  70.9970245  32.4446678  74.3093948
  75.6226730   2.1511250  23.0937977  75.9354935   2.0633020  22.1934280
  75.4332199   3.0842803  23.1915836  81.0691605  17.1875763   8.9116507
  80.1470947  16.9434967   8.9919176  81.0844650  17.8382626   8.2097921
  83.1868744   0.2293751  14.8235788  82.3556061  -0.2286212  14.9479389
  83.0254974   0.8239304  14.0909853  73.2631989  70.7621536  45.9404869
  73.5403824  70.0948181  45.3127480  72.8812485  70.2660141  46.6644936
  43.9104385  68.7454605  59.8097801  44.0093002  69.5097427  59.2420387
  44.1255684  68.0006256  59.2483788  85.7685928  27.9618187  38.9650803
  85.0257797  27.3899078  38.7717247  86.3251266  27.9023685  38.1885719
  85.3242340  49.9392281  15.7742147  84.9684753  49.2150269  15.2592373
  86.2262726  49.6794853  15.9615288  56.5679550  57.3489494  62.3004036
  57.2951736  56.9235611  62.7547455  56.1697006  56.6512413  61.7799950
  83.8369598  29.4499645  32.6340294  83.9934006  28.7989483  33.3180847
  84.1867065  30.2648449  32.9944115  33.2748413  16.3190269  28.6124344
  32.4246979  16.7294483  28.7706852  33.9110794  16.9449863  28.9582710
  59.3823166  35.2532501  72.6250992  58.6156960  35.0518799  72.0884628
  59.0388756  35.3261757  73.5155792  61.9016762   2.3291140  40.2230911
  61.1783218   1.7438190  40.4476433  62.1195297   2.1045117  39.3184776
  66.6718750  15.6236372  48.5497284  66.1715698  16.3362484  48.9473648
  66.6425705  15.8054762  47.6104164  66.1977463  64.3908463  49.5592690
  66.7962570  65.1137238  49.7475967  65.6962814  64.2784958  50.3668213
  56.8298454  15.9895096  87.0905685  57.4067535  15.6653137  86.3989716
  57.3295326  15.8647003  87.8973923  52.3614845  67.5927353  53.2967987
  51.4695587  67.3620758  53.0369949  52.2490463  68.1760178  54.0473785
  22.5444584  20.5298767  81.5680084  22.0296459  21.3353329  81.5186081
  21.9027710  19.8283081  81.4572220  72.0424118  66.8598251   0.3327205
  71.7030792  66.5721054   1.1802487  72.1178360  66.0554657  -0.1806504
  51.7480850  54.0842857   7.1455698  52.6393166  53.7516098   7.2516947
  51.5020370  54.3924942   8.0177498  80.8968048  58.2961922  51.9823952
  80.1952209  58.6618423  52.5212097  81.6632385  58.8295784  52.1928978
  11.9107447  69.4969482  41.8704376  11.1531410  69.2116547  42.3811989
  12.6655464  69.1589050  42.3523483  31.0489674  66.0960464  15.6647549
  31.1268253  65.7740631  14.7667036  30.2494526  65.6879044  15.9970608
  82.0362930  67.7581024  79.2538300  82.0668488  66.9079895  79.6926956
  81.1708832  67.7860184  78.8457718  19.1434937   9.0972099  87.4714508
  19.8449802   9.0539389  86.8216171  19.5610332   9.4645548  88.2505188
  11.0678339  10.1316805   7.3294525  11.0962019   9.4204407   7.9694262
  10.1426935  10.3722134   7.2795444  69.3360138  42.4256210  45.0586815
  69.1537399  43.3133316  45.3668556  70.0641708  42.5295258  44.4461288
   5.2054644   2.1816475  12.3790627   4.7019124   2.7706795  11.8171835
   5.6059580   1.5574982  11.7738571   1.0052609  32.2060699  71.3655548
   0.5641360  32.7000809  72.0566330   1.8992141  32.5481911  71.3598709
   5.9034128   5.2665119  81.0295486   6.3865476   5.4103184  80.2158356
   6.5693994   5.3153152  81.7153397  19.1618557   3.8078997  15.1754923
  19.4845619   3.1129260  14.6018152  19.9485416   4.1578989  15.5936518
  59.3380585  47.6597557  25.7981014  58.9988251  47.3953476  26.6532269
  59.6242867  48.5645370  25.9233112  61.4356041  71.5749817  68.7307358
  61.4532623  71.7463150  67.7891617  60.5045929  71.5344925  68.9493942
  20.3777657  12.0688858  62.8223534  20.8749485  11.5921574  62.1576958
  19.5224915  12.2192154  62.4196892  50.8883438  47.5419426  58.5734367
  51.0939560  48.4472008  58.8068161  50.0587845  47.3629646  59.0161896
  82.5677948  27.8193684  17.7776165  82.5703583  26.9556999  17.3649387
  82.7415390  28.4283123  17.0598183  83.9427261  12.0619669  42.0819435
  84.6540756  12.3967581  42.6279602  84.0759735  11.1141663  42.0696220
  28.4740963  70.6699371   2.4950128  28.2688789  69.9031906   1.9600173
  29.3212852  70.9712143   2.1667821  50.0234489  39.0740089  63.6366692
  50.5658989  39.8170128  63.9011002  50.6512833  38.3932304  63.3945999
  37.2244568  51.7659035  81.0234756  37.4584312  50.8451004  80.9068146
  36.2902374  51.8034782  80.8184052  61.3811417  55.2268219  85.8648453
  61.4489822  54.4125214  85.3663101  60.4453545  55.3216820  86.0424271
  80.2192383  22.3613415  21.7319412  79.9038086  22.8162041  22.5128613
  81.1726227  22.4290066  21.7840385  55.7428856  49.6993980  67.5912704
  56.1404495  50.4951286  67.2377319  54.8191299  49.7652893  67.3492661
  42.0277443   4.8784113  13.3632030  41.8331680   3.9606912  13.5533648
  42.8067627   5.0711675  13.8849401   4.3243732  46.3158989  70.3659744
   3.5650082  46.3949013  70.9433441   5.0635509  46.1825333  70.9593201
  33.9073410   3.1913316  41.0582390  33.8620338   3.7087636  41.8622551
  33.1226158   3.4391947  40.5693588  13.8150940  13.1027470  18.7424889
  14.5760012  13.0739594  18.1624680  13.5366430  12.1900415  18.8177624
  12.2144060   3.8820684  74.3122253  12.3002243   4.5217113  75.0191422
  13.1143646   3.6261067  74.1102676  42.5329475   5.3246732  71.5803680
  41.6070290   5.1209359  71.4484787  42.9826698   4.4896002  71.4513855
  38.4257355  12.0190907  28.2654572  38.1716461  12.5540476  27.5134659
  37.6127129  11.5991364  28.5462894  23.5532265   7.3286319  14.8675089
  23.9516411   7.2127690  15.7301064  23.8838711   6.5941510  14.3503590
  20.0234833  50.6353416  48.0396385  20.9099922  50.9951820  48.0687294
  19.5108280  51.2157173  48.6022873   6.4501276   7.8126073  75.8564682
   7.2096095   7.6129580  75.3091431   6.3435364   8.7608967  75.7815247
  16.5893097   6.1363225  77.7050858  16.9509411   5.8077440  78.5281830
  15.9812574   5.4537373  77.4212112  75.3766251  14.2897997  54.6459961
  75.3435059  13.3763371  54.3618813  74.9215698  14.7720098  53.9556160
  34.0173492  49.7260284  43.4062576  33.2465935  50.2873268  43.4906082
  34.6101570  50.2171021  42.8373489  41.2538490  68.8780594  65.9355927
  42.1661758  69.1120453  65.7648849  40.7923813  69.1094666  65.1295395
  25.2329426  62.4988327  87.6918640  25.9493027  61.9342079  87.4015961
  25.1734848  62.3447342  88.6347046  44.0550652  22.0174217  25.2743454
  44.2266235  22.8979454  25.6082268  44.8493614  21.5243740  25.4798470
  74.4686050   6.0787163  25.7008629  74.9769592   5.5363483  25.0978336
  74.0375595   6.7224517  25.1386929  21.7774334  60.2284355  31.5582790
  22.4479523  59.8843613  30.9681530  21.7807007  59.6257286  32.3018951
  46.1956978  54.3930969  54.2711258  45.9222755  54.7945518  53.4463158
  46.9092865  53.8041382  54.0258675  13.7200432  46.2928123  55.2247696
  14.6525030  46.2975044  55.4409370  13.6072130  45.5226936  54.6676140
  22.2555943  56.1218872  71.2575760  22.4261570  56.9968987  70.9090271
  22.5263424  56.1722717  72.1743088  67.6846771  16.9821854  85.8519821
  66.8926239  16.9339314  86.3872910  67.4088440  16.6761169  84.9879913
  77.8659744  47.7084198  14.0682907  77.6406631  46.8963432  14.5221605
  78.8138504  47.6586227  13.9446278  61.7667770  30.5587063  86.7044830
  62.6907463  30.6000862  86.4579086  61.7642326  30.7085571  87.6498718
  81.8402328  36.2795143  20.7525787  81.0787430  36.7592850  21.0784512
  82.5832443  36.8526382  20.9415112  86.3146286  53.0914230  65.6836166
  87.1780548  53.5045929  65.6802521  86.3938293  52.3659821  65.0641861
   4.1451159  47.1111565  30.6576405   4.8465180  46.9044609  31.2753334
   4.3414612  46.5801201  29.8858337  34.6988144  31.0049362  20.2540321
  35.0856934  30.8491516  21.1155930  35.3522415  31.5274277  19.7889881
  33.5598755  31.0838909  30.4589882  33.9883881  30.2938843  30.7883816
  33.6119957  31.7051907  31.1852837  49.6739998  15.6202736   2.9362140
  49.4524727  15.2436018   2.0845830  50.3170090  15.0151443   3.3058002
  66.6512222  44.4412804  63.2608376  66.0935211  45.1847649  63.4898186
  66.1177521  43.6716690  63.4591751   2.9259717  51.6069717  35.2879791
   2.4227622  51.3179779  36.0492249   3.4804077  52.3125343  35.6211700
  83.1635208  24.5413303  81.0376740  83.2523117  24.8160706  81.9502945
  83.3498993  25.3314190  80.5304794  57.7705688  32.9217453  14.2910652
  58.5088158  33.2781067  14.7852612  58.0962029  32.0939255  13.9376411
  11.2083111  28.7850780  76.2244339  11.7987099  29.2844238  75.6602402
  10.4406452  28.6163483  75.6781235  53.7670937  38.3918533  83.6890259
  53.8409500  37.9779472  82.8291016  54.0651550  39.2905655  83.5486526
  67.2456818  14.1629324  72.5725327  66.4170227  14.2548103  72.1023026
  67.4562302  13.2314749  72.5070496  15.1206493  12.4914818  70.9002914
  14.8964520  12.5974274  71.8248138  15.5964613  13.2912025  70.6760559
  19.5387611   9.7888851  26.2489948  20.2035027  10.4267015  25.9891090
  20.0254440   9.1164055  26.7255917  80.8843689  29.5128670   0.2982382
  80.0232468  29.8237305   0.5776346  80.7974014  28.5600510   0.2697788
  58.0544128  60.6107178   5.1801605  58.8971367  60.3701668   4.7952118
  57.7215958  59.7958717   5.5563149   8.0056429  34.6212349  41.3560524
   7.9069510  34.4272041  40.4239349   8.6467314  35.3313942  41.3863029
  62.3279457  47.1810265  58.9378510  62.4506302  46.3902626  58.4126167
  61.7640457  46.9038391  59.6599426  62.8422432   3.6392064  79.9727249
  62.5865707   2.9953666  80.6332855  62.8259964   3.1548574  79.1472778
  79.8377533  25.0165977  38.1630363  79.0175247  25.4987431  38.0581894
  80.0144730  25.0462112  39.1033134  30.7821293  60.2082748  18.5585709
  30.5781479  60.8094864  19.2749290  29.9505215  60.0924301  18.0989628
  69.7739410   7.1610284  54.6542244  69.9397507   6.9618931  55.5756798
  70.4416885   6.6670280  54.1785049  75.5075912  45.0431290  75.1882629
  74.9555359  44.3857117  74.7648544  76.1932220  45.2292557  74.5467758
  65.7781677  25.3714085  28.5719738  64.8642502  25.2071095  28.8043461
  66.0075912  26.1678524  29.0508003  75.9218674  65.4307098   7.5100446
  76.4301910  65.0399628   6.7992997  75.6209488  66.2680206   7.1570640
  69.2263336  66.9916153  63.4111748  68.4734955  66.4397583  63.1992645
  68.9222412  67.8844757  63.2481918  50.5774841  70.7370453  60.7499847
  50.3178711  71.6461411  60.6003799  51.1670837  70.7771530  61.5029755
  71.6920776  52.3736572  60.7125816  72.2090073  53.1792603  60.7169113
  72.0039368  51.8930855  59.9457550  66.4621429  65.6160278  28.6121235
  67.0003891  65.1918564  29.2804031  66.4798203  66.5445099  28.8441563
  56.4620438   3.2103865  67.0896454  55.6152573   2.7706444  67.0134125
  57.0764847   2.5103242  67.3101120  23.3851948   9.1981764  39.8583832
  23.2368355   8.7511501  39.0250816  23.2072639   8.5321684  40.5224648
  46.7355652  58.5309448  13.7184954  47.6677284  58.7432098  13.6710491
  46.3688736  59.1923637  14.3052607  72.0077972  47.1101112  23.0525475
  72.7633362  46.7567329  22.5829525  71.6275101  47.7481384  22.4487801
  67.8623505  21.9414330  51.6210442  67.8234940  21.4476032  50.8019867
  67.0364685  22.4245262  51.6488609  13.1719513  24.3921757   8.8636599
  13.1616392  24.5278473   7.9161801  12.5691786  23.6626968   9.0077333
  15.0129824  34.3690453  74.1904373  15.3477983  34.7196693  73.3650894
  15.7942085  34.2282219  74.7253036  37.9805527  18.9735985  86.7624893
  37.1755829  19.1807594  86.2877808  38.0662956  19.6763401  87.4067230
  40.2740288  16.7931900  35.6552544  39.9702034  16.5137463  34.7916374
  40.9002914  16.1188869  35.9185829  67.2729340  12.4411592  53.7271080
  67.5550995  11.8516569  54.4264679  67.9931870  13.0647373  53.6343193
  32.4397774  46.0093269   5.9810500  32.3606567  45.2325211   6.5347118
  33.3359985  45.9748268   5.6466413  57.9727249  64.1623383  29.4147434
  58.8019104  64.5815659  29.6448097  58.2014046  63.5440292  28.7207489
  69.6593094  49.0188293  16.3698711  69.6407547  49.7882919  16.9389210
  70.5257111  48.6372528  16.5112038  69.0097580  29.9031887  39.0881195
  69.1354065  29.6398277  38.1764793  68.2998352  30.5444679  39.0564995
  85.4334641  27.7245808  23.7782345  85.5834656  27.8664494  24.7129040
  84.5674896  27.3192310  23.7334518  61.1619453  18.1192379  47.9716606
  61.6107063  18.8195496  47.4979439  61.2386513  17.3556938  47.3995171
   9.9406967  24.0168571  42.5976219   9.9626751  23.3547878  41.9066734
  10.2765207  24.8100281  42.1800919  63.3409729  50.1056023  34.1410637
  63.3330193  50.5068207  35.0100822  63.4953461  49.1757927  34.3079491
  61.5951042  32.8511887  77.7232437  62.2564049  32.3860130  78.2356186
  60.9809303  32.1698036  77.4498672   8.7298260   7.7532949   6.2313628
   8.7606583   8.0103254   7.1528921   8.5311871   6.8171248   6.2503395
  56.2633324  55.8365593  18.9192162  55.8751450  56.1024590  19.7527866
  55.5200272  55.7673683  18.3201008  51.5726891  39.2533073  71.6628571
  52.2706604  39.6844788  71.1697464  51.5329437  39.7324905  72.4905243
  21.1111069  46.1923523  22.1541157  21.7650967  45.5696106  22.4714870
  20.7647438  45.7906685  21.3572998   1.0713837  16.4210167   2.7193692
   0.5072752  15.7290754   3.0646689   1.8120884  15.9549618   2.3315775
  16.8336964  38.7719231  25.7130642  16.8683567  38.4036407  26.5958996
  16.3520966  39.5928688  25.8147488  42.8444748  54.1137276  83.4979477
  43.2734718  53.3685074  83.0774231  43.0572739  54.0199089  84.4264603
  41.8334007  51.6329079  86.8842087  42.4488029  51.1942711  87.4716644
  42.3476982  52.3286018  86.4746399   3.2765424  41.8174706  52.3041496
   2.8076839  42.0088615  53.1164131   2.5881283  41.7327118  51.6445007
  68.0039062  66.7636719  17.9169331  67.5591049  66.5620499  17.0936871
  67.8845596  67.7067719  18.0289268  11.7627525  31.8209171  30.5088120
  12.3921728  31.1212330  30.3341503  12.2211523  32.4118042  31.1062660
   9.6232176  51.2043152  23.9552212  10.1656818  51.9926758  23.9764671
   9.8713722  50.7646713  23.1419754  67.2743073  53.2262421  65.3684692
  67.9568329  53.6958313  64.8890152  67.7089157  52.4374580  65.6927719
  77.6614532  16.7437210  63.6185989  77.3495331  15.8603487  63.8150406
  77.3329468  16.9233437  62.7376595  10.4117498  68.6617661  49.6437607
  10.0953503  68.5649567  48.7455673  10.3007679  67.7937546  50.0316582
  24.0194912  22.7440510  29.1740265  24.7103748  22.9637718  29.7990341
  23.3032017  23.3415146  29.3889637  21.8132038  47.6517220  52.5079918
  22.6193676  47.2335701  52.2055359  21.6382713  48.3326187  51.8583641
  12.3008995  52.2804375  87.2252884  12.1800737  51.3341713  87.3041306
  12.1920061  52.4587936  86.2911758   3.2815082   5.8838549  54.6950951
   3.4137263   5.6028781  53.7896690   2.6700451   6.6175303  54.6313362
  68.7751160  52.2190208  13.4454222  68.6845627  52.7373962  12.6458464
  69.6620865  52.4059982  13.7529182  32.5777893  54.2754021  39.5793839
  32.7222214  55.2177582  39.4937057  31.6920834  54.1373482  39.2436790
   2.7371566  31.2508659  76.5004425   2.6892765  30.3431015  76.8002777
   2.0345447  31.3272552  75.8548965  18.2671833  34.7340584  22.3378162
  18.6291847  34.3779030  21.5264339  17.8394337  33.9874992  22.7572308
  53.6503487  69.7651062  24.4717064  53.5507774  69.7015762  25.4215927
  54.5902100  69.6626968  24.3220215  76.8078461   5.8690619  63.8091698
  77.4661484   5.3558426  63.3406868  77.2953339   6.3004904  64.5109253
  16.2882462  62.3144913  53.1182823  16.4823360  61.4967499  53.5763855
  15.8082523  62.0426865  52.3360023  59.0465240  20.8187923  87.8256836
  59.0148163  21.7743359  87.7791748  58.1634674  20.5378876  87.5858154
  75.7177887  71.1854401  69.7280350  76.3806000  71.7264252  69.2987976
  75.3626785  70.6399002  69.0262375  74.2775879  36.6693382  14.5775127
  74.8645477  36.8952026  13.8559179  74.5463333  35.7883644  14.8380785
  25.4327946  46.0308113  10.4084158  25.4319153  46.8712234  10.8666058
  26.3203068  45.9493065  10.0592566  56.3797493  19.8926697  29.0492630
  55.4864845  19.6711941  29.3124371  56.9106941  19.7066116  29.8236732
  75.3558731  11.3978767  35.0725746  75.7891312  11.3529568  35.9249268
  75.9270325  10.9006929  34.4870720  78.8868027  32.9267731   2.1319277
  78.4621201  32.3165436   1.5290203  78.3352203  32.9135437   2.9141102
  29.5181484  15.1843472  34.7717934  29.8736706  16.0671749  34.8740158
  28.6470528  15.3186846  34.3984604  21.6106091  47.5205269  29.5910664
  21.7297325  47.8954277  28.7184315  21.0404491  48.1424408  30.0431442
  60.5289040  67.3284225  85.7786407  60.1505966  67.3986664  84.9021835
  60.5176086  68.2238159  86.1168518   7.9753170  48.7264366  52.4789810
   8.6067715  48.2011299  52.9704590   7.2392263  48.1341858  52.3252258
  85.8563614   4.6356473  87.3839569  85.7835693   5.1727824  86.5950241
  86.6209488   4.0816231  87.2268066  70.9724579  25.2066898  45.3334694
  70.3134460  24.9919567  45.9936409  71.2351074  24.3597870  44.9729118
  49.3916588  61.0182800  58.5630684  48.6918335  60.8303375  59.1884918
  49.1411781  60.5401840  57.7725525  30.1888599  62.5422554  27.0505619
  29.4973164  63.1972809  26.9560070  30.6632595  62.8068695  27.8386974
   0.3609859  27.9523525  50.7297249   0.3242671  27.2591915  50.0706253
  -0.3721800  27.7646694  51.3157921  80.5370712  37.9970703  80.1527939
  80.9709854  37.5744171  79.4116364  79.9349670  37.3329201  80.4883575
   9.4151192  68.8089981   0.2521109   9.1293917  67.8954468   0.2487154
   8.7974052  69.2553101  -0.3270881  72.5528946  58.4002342  37.6056061
  72.9181061  57.5765724  37.2824516  71.6777191  58.4417496  37.2201576
  35.0935173   1.6168739  57.6735840  35.2258301   1.9277788  58.5691643
  34.1623878   1.3991774  57.6307297  67.7695389  28.3761787  43.6103668
  68.2848969  28.1705265  42.8304024  68.2735977  29.0555782  44.0582237
  60.1524963  68.4230728  66.1312485  60.3061867  69.1737976  65.5576324
  60.1703606  67.6663513  65.5453415  75.6817703   1.9447352  31.8521347
  76.3004074   1.4481449  32.3877869  75.3331833   2.6110127  32.4444122
  32.7892609  11.0143757  40.3065834  33.3746910  11.0170422  41.0638771
  33.0955009  11.7414522  39.7645416  25.0983200  57.1966362  52.8596992
  25.1208038  57.6490135  52.0164452  25.7412224  56.4930153  52.7712479
  72.3077850  24.9252892  62.3474922  71.7050476  24.2193909  62.5812759
  71.9475937  25.7003574  62.7784996   7.1255879  53.7188759  85.9828720
   6.7605667  52.9662819  86.4482727   7.9011331  53.9604759  86.4892273
  63.2741241  27.1226540  22.6476326  63.3174706  26.6870308  21.7964058
  63.8793907  27.8601570  22.5703583  57.1682091  40.7079582  84.8985214
  57.0679474  41.4367943  84.2861710  56.8029137  39.9540749  84.4354324
  56.8305664  41.4205551  13.6139421  56.2151985  41.7159958  12.9429207
  57.4646912  42.1337318  13.6880741  19.4893208  39.6756477  22.6473637
  19.7744331  39.8066978  21.7430573  19.3322430  38.7338409  22.7148743
  52.2461243  61.2262764  39.8958817  53.1671867  61.2032166  40.1553879
  51.9138336  60.3556213  40.1144447  21.7726345  58.6169777  61.1132545
  21.5321579  59.2952576  61.7443962  20.9602757  58.1349373  60.9585228
  31.0849972   5.1454725  57.5436401  30.8545570   4.2199378  57.4629250
  30.2737617   5.6125879  57.3438148  72.2943802  27.1678333  87.5784454
  72.6604385  26.6074829  88.2627258  72.3853302  26.6553783  86.7751083
  56.2501640  70.3598404  35.2518883  56.0995140  71.2109985  34.8407135
  55.6404610  69.7690201  34.8098221  37.4788437  59.5673027  11.0766096
  36.8162651  59.6271667  10.3883982  37.1552887  60.1410255  11.7711477
  15.2917843  11.6087580  44.3836823  15.8011055  12.3266125  44.7598572
  15.0235853  11.9306688  43.5230560  53.5912971  43.1442566  71.2648926
  54.5366364  43.2903862  71.2300110  53.3350296  43.0152245  70.3517075
   3.0492408  41.0904083  46.0871696   3.8613656  41.5725784  45.9316101
   2.4206650  41.4769516  45.4774895  28.2089100  30.5935307  19.3608170
  27.8495789  30.0817547  18.6361122  27.5274239  30.5688057  20.0325298
  76.8468704  36.0983315  47.2865143  76.2538681  36.6991119  46.8352470
  76.4065018  35.9034233  48.1137466  58.7508087   7.8247976  51.5256042
  59.1495972   8.0529795  50.6858826  57.9858856   8.3965368  51.5907211
  82.3556824  49.1445389  15.7266388  82.6599960  49.8587303  16.2866001
  82.5254517  48.3519783  16.2358131  67.5539856  23.0747299  81.9407043
  67.6107864  24.0292130  81.9850693  68.4622345  22.7778625  81.9970474
  18.2203197   6.5835385  81.5040436  17.2679367   6.6669874  81.5512848
  18.3770580   5.6396089  81.4783096  13.9626856  59.7784348  55.2227135
  14.3153811  59.3552322  54.4399376  14.2526121  59.2231140  55.9464531
   9.5522308  45.6498222  25.4063320  10.4115000  45.2423515  25.5152206
   8.9998560  44.9529572  25.0520802  27.9423542  50.3694458  83.8394318
  27.5268555  51.1313248  83.4355316  28.8739357  50.5883026  83.8615417
  16.2419891   5.7702556  12.2639160  16.0915070   5.4965954  11.3590965
  16.1163006   6.7190828  12.2512255   5.9469218  19.6025467  62.0538101
   6.7162352  19.1258030  61.7421951   6.2939153  20.2268581  62.6910439
  56.1556549  24.4657135  87.5725555  55.8998222  25.1690216  88.1693344
  55.4152946  24.3800850  86.9719162  57.8620148  43.8143578  14.5034924
  58.4745636  44.5473671  14.4425526  57.0161743  44.2235985  14.6860027
  66.4619827  48.7351913  83.9302292  66.6990662  49.6397095  84.1348648
  67.2283630  48.3833122  83.4773788  27.7088737  24.4329014  32.6366959
  27.4556637  24.0285511  31.8068657  27.8178158  23.6965771  33.2385139
  65.9223785  26.6317711  40.9010468  66.8638535  26.8021355  40.8720169
  65.6232224  27.0745869  41.6951828  10.5679321  34.5994339   6.2133865
  10.4182901  34.6906471   5.2723660  11.5140934  34.4796066   6.2949424
  36.9395485  67.9390488  28.9955616  36.0359383  67.6414185  29.1010952
  37.0660019  67.9894714  28.0480919  40.1649933  51.2437744  18.6803169
  39.8006172  50.3606453  18.6208305  41.1123009  51.1158752  18.6305275
  13.3417377  63.1820297  74.2656708  14.2879515  63.3174515  74.2149506
  13.1479263  62.5755768  73.5509109  20.0111046  58.3134193  16.8930016
  19.4733372  57.6042862  17.2453709  19.5315571  59.1112289  17.1160870
  13.8630037  69.9634552  83.5044403  14.7787037  69.6847839  83.5128937
  13.4610634  69.4442673  82.8079376  34.7957726  15.2416925  25.7943535
  33.9911880  15.5197783  26.2320118  34.6620750  15.4758959  24.8759270
  65.4436569  59.0962982   8.8009825  65.8107986  58.2180328   8.9014235
  64.6347961  59.0777016   9.3124800  86.0384979   3.3104703  16.3455086
  85.1180496   3.3445060  16.0850334  86.2073746   2.3823388  16.5076351
  23.0823307  49.2041931   3.7647598  23.3820496  49.0919762   2.8626471
  23.5905018  48.5671883   4.2669721   7.3816376  27.2012005  29.4340458
   7.9789019  27.5678368  28.7820606   7.5859704  26.2661533  29.4470482
  18.1141510   8.3697758  35.9995270  18.4248924   9.0344896  36.6142044
  18.1542492   7.5502634  36.4925041  41.4461441  45.8291702  41.4231224
  42.1176796  45.2906265  41.8417435  40.6618423  45.2804680  41.4277191
  16.3938599  51.9715195   0.1149024  16.6475697  52.6653824   0.7235223
  15.7140446  52.3677673  -0.4301410  34.7882004  13.3515081  19.9254055
  33.9936066  12.8325481  20.0500336  35.1663322  13.4247494  20.8016949
  50.3558311  47.5264435  19.8478737  50.6943665  46.8812790  20.4686699
  49.4481010  47.2618904  19.6986446  76.9671555   8.6895561  62.3535118
  76.1213913   8.3321495  62.6240120  77.5570984   7.9357681  62.3545685
  85.5018845  10.3883390  78.4466705  84.7839813  10.1515055  77.8595047
  85.9467316   9.5602455  78.6272507   0.0393066  35.9669228  71.2632370
  -0.3753851  35.7985954  70.4171066   0.7733155  35.3534431  71.2964859
  78.7840118  11.2204781  26.3246326  78.7211380  11.0789928  27.2692280
  79.5850601  11.7321730  26.2118855  29.7929916  63.1655426   1.1604532
  29.1702976  63.7057800   0.6740097  29.6168346  63.3658676   2.0797300
  63.0178032  18.0604076  58.4250946  63.1284561  18.9312859  58.0435753
  62.5348511  18.2142429  59.2370834  17.1105537  55.6452560  82.0062790
  17.0503941  55.3474121  81.0985870  17.5573254  54.9325562  82.4631042
  27.5620842  56.6851006  80.0021286  27.3346729  56.6578522  79.0727386
  27.0496349  57.4135437  80.3528442  37.2499161  58.1514320  20.4777775
  37.4243546  57.2214317  20.6223526  36.9974480  58.4844666  21.3389282
  75.4155426  55.8458023  76.7517242  76.3361282  55.8652802  76.4902191
  74.9657516  56.3629532  76.0835342   1.8873073  44.3470078  49.3098412
   1.5286529  43.4924431  49.0704346   2.8260427  44.1919670  49.4145775
  85.6495972  19.2632847  46.6453056  86.2122879  19.6358433  47.3241348
  86.0002823  18.3847256  46.4990616  47.0135117  39.7453384  36.5896988
  46.3410950  39.5042305  35.9525566  47.8346901  39.7002907  36.0999336
  43.2818298   6.7278042  41.7098083  43.5823021   6.3856740  40.8678474
  43.5273819   6.0538282  42.3436012  29.6332645  15.6998158  29.6835098
  29.2833977  15.5636606  28.8030071  29.2061920  16.4998035  29.9898758
  37.2774315   4.3473463  28.2943077  37.7312737   4.2141480  29.1264820
  36.5748100   4.9637656  28.5006638  11.5239267   8.8269892  55.6136513
  11.1495132   7.9460826  55.6065941  12.4023838   8.7109709  55.9757080
  64.9251556  70.4032822  47.0279198  64.2837372  69.8454437  47.4679451
  64.3987732  71.0609055  46.5732956  68.1922302  18.3535252  37.3999176
  67.5725555  18.7051506  36.7607079  69.0520554  18.6081810  37.0651169
  77.6946869  33.3375206  80.9964523  78.0589676  32.6665382  80.4191208
  77.7902145  32.9737167  81.8766556   8.6723862  23.3778076  71.5912476
   9.1881161  22.6606827  71.9600067   9.2805567  23.8370380  71.0120468
   8.2169447  42.7791786   4.3866191   7.7703075  43.6247597   4.4283304
   9.1200857  42.9726944   4.6378536  20.8654919  48.1241074  62.1053772
  21.7198048  47.6964493  62.0463028  20.4459934  47.9382172  61.2653160
  50.1467285   9.2288961   8.5140486  49.6978378   8.5680017   7.9868412
  49.5630760   9.9873314   8.4951010  73.8371506  10.7487383  58.0037537
  74.3944931  10.0848417  57.5977478  73.0532455  10.2706079  58.2741623
  42.0869942   9.3612270  52.0229568  41.7938194  10.2393913  51.7798309
  42.8364944   9.5099859  52.5994530  83.8738556  19.3550797   5.4906430
  83.9012909  20.3101139   5.4324288  83.6291962  19.0684185   4.6107588
  74.7731247   8.9250984  38.7476082  74.2090225   9.2570248  39.4460716
  75.1237869   8.1040382  39.0927620  51.0929642  18.7654247  78.6094818
  50.3226891  19.0295906  79.1125946  51.8287315  18.9097099  79.2045135
  66.0000610  52.9769325  11.7461634  65.9918289  52.0205078  11.7085934
  66.9234085  53.2043991  11.8553352  80.5405121  11.1397324  70.5901260
  81.2167435  11.1091013  69.9133682  80.6303329  12.0096359  70.9792709
   3.4061704  33.2519188  52.6135902   3.3938012  32.6694565  53.3730736
   3.9870088  32.8181534  51.9885216  10.4897280  17.0129604  54.1668739
   9.9823208  17.3754044  53.4406509   9.8318872  16.6609058  54.7664871
  16.3058510  69.7594757  77.4520721  16.1855221  69.6097336  76.5143433
  15.4417725  69.6019669  77.8325882  80.2026291  59.6538849  76.9121170
  81.0729523  59.2635498  76.8320541  80.0865097  60.1486931  76.1009979
  85.6128769  19.8906002  64.9595642  85.0690918  19.9536381  64.1743546
  85.5731888  20.7640343  65.3491440  59.5027809  53.8842354  58.3625145
  60.4500389  53.9473686  58.4847794  59.1739578  54.7551384  58.5853081
   4.1688743  59.8815041  40.9414864   4.6932158  59.1470680  41.2607079
   3.6065392  59.4993362  40.2677193  63.0581093  51.3819122  45.6179695
  63.9160347  50.9683151  45.5224190  63.1851692  52.2742310  45.2957001
  78.8434601   9.0703621  42.1690979  79.0801849   8.3878489  42.7970848
  78.4555969   9.7633858  42.7034302  66.5319366  33.9756966  42.3957214
  66.3224411  34.1055908  43.3206406  65.6831970  33.9912834  41.9534187
  86.3604050  18.2165699  28.5976543  86.2057648  18.6451454  29.4394627
  86.4089661  18.9358959  27.9680157   3.5584481  67.9289703  67.0280609
   4.4206257  67.7928619  66.6351776   3.3673854  67.1057281  67.4775085
  31.5887756   9.5544243  10.3371696  31.0059605  10.0693245   9.7791042
  31.1155663   9.4707813  11.1650038  69.6377258  14.1728754  83.1852875
  69.6591263  14.1967087  84.1419525  69.8560486  13.2677279  82.9633102
  20.5723705  71.2489929  11.4671345  20.3446922  71.8086777  10.7247438
  19.8870983  70.5808640  11.4824047  52.2819061  50.0771446  86.0874863
  51.5303345  50.2088318  86.6654434  51.9591370  49.4884491  85.4052200
  78.4950333   5.5685196  12.2943068  79.3924484   5.9006987  12.2709951
  78.5362320   4.7342567  11.8268232  24.9471951  18.3055515   0.7122937
  25.8851471  18.1150494   0.6986401  24.8705368  19.1617451   0.2912356
  73.4428024  36.2518082  76.2493134  72.6496506  35.9754486  75.7902222
  73.4009781  35.8006935  77.0925140  83.9193039  28.5184250  84.2665024
  84.1348114  29.0693150  85.0190353  83.0356216  28.1988983  84.4488144
   8.3211451  33.7689857  25.1566906   8.4411001  32.8957863  25.5300083
   9.0277023  34.2910767  25.5367279  16.2911129  35.5300598  13.6990309
  15.9221182  36.4111595  13.7601652  16.5655327  35.4481583  12.7856750
   2.7350857  41.4269562  16.5888424   2.7015581  41.3469048  17.5420990
   3.6334310  41.1886253  16.3599205  40.4099236  31.2646580  19.8141785
  40.9134789  30.8726044  20.5275917  39.6604080  31.6737900  20.2466946
  57.4853821  64.9675674   3.5451040  57.3897133  64.0658646   3.2384827
  58.2941475  64.9619217   4.0570550  53.8079834  40.4599838  89.2518463
  54.0507355  40.6496277  88.3455734  54.3001251  41.0968781  89.7699127
  40.4444427  60.0439835  78.1411972  39.8797073  60.2381859  77.3931351
  39.9084702  59.4896698  78.7083817  10.8571405  19.1635761  87.1603241
  11.4832411  18.9272900  86.4759216  11.2379618  18.8120136  87.9650650
  50.8919411  10.9207993   2.9317162  51.6503258  10.9297571   3.5156739
  50.1570244  11.1754360   3.4896469  17.4453125  62.1537018  81.8504181
  17.7115688  62.9966698  81.4833527  17.7938042  62.1598549  82.7419052
  24.1341877  43.7191582  76.1958694  23.2664375  43.8336487  76.5833359
  24.5526619  44.5750427  76.2884750  39.7238083  11.7208500  78.8420334
  40.5010872  12.1360025  79.2158203  39.6496773  12.0970621  77.9649963
  47.1754723   1.8434933  73.4237671  48.0851364   1.6614320  73.1879883
  46.6604462   1.4139069  72.7408066   5.9361072  14.5526915  23.2547321
   5.4287539  13.7447758  23.1766472   6.7790103  14.3461666  22.8508854
   8.4165316  10.9934826   7.4034934   8.1521950  11.8439922   7.7541943
   7.5945859  10.5176706   7.2841644   1.7217016  51.8326797  79.7404556
   2.0139351  51.0455780  79.2807846   2.3300254  51.9213219  80.4741592
   7.9654136  34.8827057  71.5108109   8.7278938  34.3539391  71.2757416
   8.0620432  35.0379181  72.4503860  81.7594070  45.0935669  13.4099016
  81.3173065  44.3325653  13.7862663  82.4739838  45.2807617  14.0186491
  59.3131218  13.5441532  48.4648323  59.7065239  14.3486710  48.1268692
  58.4605217  13.4945164  48.0325737  12.2920532  22.3726273  39.0543861
  12.3672028  23.2886715  38.7870941  11.4657230  22.3305798  39.5356750
  44.9118233  67.3775635   7.5684404  44.9857559  66.6433868   8.1781549
  45.4148827  67.1036148   6.8015547   4.6286230  37.8746223  77.7751846
   3.7173841  37.7631264  77.5041809   4.8227067  37.0917625  78.2906418
  24.4213142  48.5174141  84.2563934  24.5221672  47.6614380  83.8400192
  23.8326359  48.3571243  84.9939499  57.8203735  61.6563377  63.9024506
  58.1030731  60.8629799  64.3573074  58.0383148  61.4965134  62.9841957
  20.7928314  51.3812714  64.2161560  20.4545097  50.4976196  64.0714951
  20.2796268  51.7168846  64.9511490  23.7404804  21.9024887   6.4613004
  23.9849930  21.0074997   6.6967607  22.8048573  21.9544163   6.6566057
  80.5244446  20.4114132  57.4797287  80.8120651  20.6759892  56.6059418
  79.7575150  19.8605595  57.3228645  61.0225067  21.4239044  76.6425018
  60.4949341  21.1376266  75.8968811  60.4125175  21.4276352  77.3801498
  12.6880627  59.1268158   3.3384926  12.5142994  59.9856224   3.7238376
  13.1788359  59.3178101   2.5391841  19.7873974  39.0523033  13.8740931
  20.1204262  38.5247002  14.6000118  18.9938221  39.4611588  14.2195005
  77.3376541  51.5041618  78.4925385  76.9069901  50.6581879  78.3697128
  77.3402786  51.9003372  77.6211777  42.7198601   0.1757431  38.9384422
  41.7916679   0.2779033  38.7280846  42.7468567   0.1461252  39.8948021
   9.3967409  24.5395699  88.4563065   9.6601744  24.1275845  89.2791748
  10.2119694  24.6329060  87.9634399   7.8527837  32.7568130  15.0989218
   7.2669482  33.4079590  15.4849768   7.7151461  31.9690304  15.6249304
  32.1572723  62.9327660  67.0020676  32.0514107  62.6579170  67.9128265
  32.9875565  62.5424767  66.7290726  48.3426552  67.4788055  65.4732895
  48.2946701  66.5270081  65.3837738  49.0596428  67.6255035  66.0902481
  38.7834396  18.5188484  78.9996567  39.0733337  18.1203480  78.1790543
  38.2881927  17.8279076  79.4396133  30.5706482  58.0723343  29.0625038
  29.9372444  58.5882416  28.5636330  30.3459435  57.1627197  28.8666916
  22.6425533  55.8335152  13.4559259  22.2156010  56.5613632  13.9077873
  22.5723190  56.0539589  12.5271072  62.3882866   4.0894423  44.1183281
  61.6907158   4.0822411  43.4629059  62.0446358   3.5623505  44.8396568
  76.7481537  60.5619736  23.8086109  77.2969131  59.8974380  24.2251320
  75.8517838  60.2914047  24.0074749  41.4251022  28.0534286  34.1601257
  40.9605522  28.8730011  33.9906387  40.8142929  27.3702927  33.8835983
  16.5083160   7.9958863  14.9237919  17.4185505   8.2136765  14.7231054
  15.9947100   8.5381289  14.3251152  68.6868820   5.6419678  84.4979706
  69.4384842   5.3401279  85.0080872  68.9752579   5.5805449  83.5873108
  62.6894379  22.5592270  66.5914154  61.7359810  22.5678253  66.6755219
  62.9048386  23.4147148  66.2199707  48.7190628  11.4634218   8.0752115
  47.9477348  12.0147791   7.9437084  49.4584122  12.0689068   8.0206108
  42.1507454  47.7034492  19.9480419  41.2744560  47.6883812  19.5631771
  42.0176926  47.4351425  20.8571835  69.5231094  19.0841293  43.8666039
  70.1039658  18.8401985  43.1459541  68.6786957  18.6973801  43.6350365
  47.4191437  45.9727707  11.7529001  47.7533226  45.1114349  12.0032139
  47.0863037  46.3468819  12.5686769  65.0581970  18.7100430  39.8420944
  64.2218018  18.7409630  40.3065567  65.5737000  19.4173164  40.2297173
  69.7617569   2.1038823  40.3569908  69.0975876   2.7535629  40.5872498
  70.5421829   2.6202190  40.1555786  26.6402073  17.5446625  27.0013523
  26.9887810  18.3115387  26.5467892  25.8564281  17.3080196  26.5054474
  61.1506882  71.5915298  46.8364296  61.0487099  71.7053452  47.7813530
  61.5308189  70.7183533  46.7400017  34.3246078  69.6015320  24.2543659
  33.4568634  69.8005524  24.6059933  34.9280472  70.0874023  24.8165264
  68.9016571  17.9001999  88.8365326  69.1911316  17.0895672  88.4178391
  69.2714767  17.8595505  89.7184753  11.0361080  22.5647354  68.8528595
  11.5681219  21.7882175  69.0266800  11.1390228  23.1057396  69.6357727
  43.1399765  53.0836449  62.3915787  43.9437943  53.3112488  61.9243431
  43.1167679  53.6855125  63.1355171  69.1604385  52.5475883  59.9053116
  69.5266418  52.9777260  59.1325798  69.9250488  52.2706795  60.4102097
  17.9569321  25.5652561  80.8246994  18.4063644  25.3953209  79.9968338
  17.0649052  25.2486210  80.6823654  70.1944351  70.0170822  42.6637878
  70.0226364  69.3101959  43.2859039  71.1463318  70.1173859  42.6721001
  71.2443237  54.3093109   2.1817596  71.2952118  54.7347870   1.3258321
  72.1557846  54.1379280   2.4186075  58.1926231  41.4225311  30.3612938
  57.9495087  41.1058617  29.4913235  58.8940659  42.0533485  30.1991863
  74.8747482  35.5506706  21.5380306  74.3552856  36.0616951  20.9173508
  74.8724365  34.6634216  21.1788387  35.9551926  39.7653503  33.7989006
  35.8394051  38.9054031  33.3947792  35.2987633  40.3190308  33.3760834
  56.1332893  25.8637428  37.7583771  56.4338875  26.3712673  37.0045280
  55.7660179  25.0655231  37.3786545  72.1444931  39.9102707  46.5311699
  71.7202988  39.7939186  47.3813210  71.6131973  39.3932571  45.9256477
  41.2655754  59.8426552  69.5793076  41.9356728  60.4432030  69.2529068
  41.7594910  59.1119919  69.9513474  12.8800430  23.5268021   4.4394259
  12.7533293  23.1687450   5.3180442  12.2792921  24.2706833   4.3950014
  84.1837311  46.4276085  61.7358704  83.8241119  46.0373764  62.5325050
  83.8818283  45.8545647  61.0310974  73.7888489  62.4552345  16.6184235
  74.1890869  61.9540024  17.3289204  72.9457779  62.7396927  16.9713402
  36.2361221  59.1288872  67.1723862  36.8291359  59.7054138  67.6542358
  35.8705673  58.5489235  67.8404007  75.2601700  31.4048958  32.9757462
  74.3407288  31.4010658  33.2419090  75.6808853  30.7728539  33.5586281
  81.3360291  28.6042938  10.6482306  81.7619476  27.8406258  11.0376348
  80.8187103  28.9793873  11.3609142  62.2757721  48.1847496  11.6596308
  62.0389519  47.5779915  12.3610544  62.9571724  47.7272377  11.1670780
  24.9088001  63.4947166  47.7129555  25.2466774  63.3773117  46.8250999
  25.6626358  63.3310814  48.2796898  27.2776089  53.6943130  19.1799316
  26.6380463  53.1027031  18.7834606  28.0352516  53.6538734  18.5963440
  51.1555557  26.2349606  -0.0261851  51.3484306  26.9353619   0.5970886
  51.1256104  25.4409332   0.5075338   8.0376520  59.1436806  25.3283310
   8.6409578  58.4701271  25.0143623   7.4221902  58.6714134  25.8890457
  52.6645050  16.3862572  67.1879120  53.0915871  15.6339884  66.7781219
  51.7803307  16.3887997  66.8212128  74.6533279  54.0418625  53.9740906
  73.9290695  54.0304222  53.3483505  74.4079895  53.3956566  54.6362495
   7.3317919  40.8592339  32.9155045   7.1628380  40.7787704  31.9767742
   6.8310437  40.1457481  33.3110085  67.4415359   9.2627831  51.4172897
  66.6120911   9.0066290  51.8205643  67.4069214  10.2188063  51.3848419
  71.5392380  55.9859352  75.4813080  70.9974976  56.6068726  74.9942932
  72.3787689  56.4331093  75.5883255  19.7741947  23.3745918  83.8178787
  20.5201969  22.7895832  83.6856766  19.2515411  22.9467335  84.4961166
  76.1431503  45.5542068  66.2765350  75.7872086  44.7075119  66.0070038
  76.0109482  45.5788689  67.2242432  58.4695282  61.2915115  61.2532158
  58.2810898  60.3791084  61.0335732  57.6098366  61.7103767  61.2945900
  23.6627407  14.0322952  61.0466385  24.5136528  13.9802094  61.4819183
  23.3189030  13.1398201  61.0853043  81.3844833  34.2855644  82.6164017
  82.0667725  34.7724991  83.0785675  81.5415115  33.3711739  82.8519135
  37.6981544  53.5148659  37.3561745  38.0153046  53.0522423  36.5805283
  38.1837959  53.1248016  38.0829697  69.0523987  46.5166931  44.9439430
  69.3818436  47.3938065  44.7480659  69.3773117  46.3299751  45.8247375
  83.6469421  49.1633263  87.2192383  83.7811737  49.7866516  87.9331512
  82.7762527  48.7994118  87.3795547   6.5858603  54.9630470  25.0696239
   7.3581586  55.3929863  24.7022781   6.9399242  54.2709427  25.6280670
  57.2623863  11.9255781  63.8207512  56.8770866  11.3012886  63.2059059
  56.5683975  12.0931864  64.4583435  13.9832325  10.4733829   6.5467143
  13.5048275  10.0032034   7.2295699  14.8678761  10.1093454   6.5800958
  79.5282974  13.9922543  27.9162025  80.1896591  14.1622543  28.5869713
  80.0152512  13.5924139  27.1956234  64.9891205  65.2051315  14.1421328
  64.4238968  65.4386902  14.8784819  64.4171219  65.2540741  13.3761978
  36.2188225  55.0919685  59.5127831  35.4915695  55.4190369  60.0422707
  37.0029106  55.4103966  59.9600449  38.9751625  56.2440109   8.2870693
  39.1251869  56.8787155   8.9876947  39.7709541  56.2804947   7.7563963
  39.2341805   3.1733270   9.9272318  39.4628487   3.1214788   8.9991951
  38.2770691   3.1672575   9.9387760  22.6599522  63.7437210  40.7014961
  23.5319633  64.0050507  40.4056358  22.6651783  62.7880478  40.6476669
  41.8730049  37.9437332  32.3235703  41.1249962  37.8406830  31.7352695
  42.4391174  37.1981087  32.1240768   4.5929475  36.5377769  55.7910690
   5.1225166  36.8587799  55.0611763   3.8506083  37.1406975  55.8317337
  37.2865562  69.7657089  40.9917526  36.4963188  70.0911636  41.4228439
  37.9875984  70.3288040  41.3199234  81.3218689   2.4151049  24.4464931
  80.9303284   3.2721586  24.2780056  82.2648468   2.5652354  24.3795280
  44.0379829  44.8592720  87.2207794  43.3349304  45.1741333  87.7889481
  44.2937279  45.6264114  86.7086029  70.5979538  20.3605576  22.6972752
  71.3100357  20.2863903  23.3326206  70.9758530  20.8560963  21.9707317
  71.7343140  51.2947350  10.2146788  70.8474655  50.9641609  10.3577194
  72.1505280  51.2439804  11.0751534  72.6197128  64.6096039   8.8397179
  71.8747787  64.5656052   8.2402439  72.3924789  64.0079727   9.5486860
  19.4929790  36.2282906  61.3800583  19.5286331  36.1666222  60.4255142
  20.1677856  36.8691444  61.6040421  47.3681679  52.6810493  85.8716812
  46.8784714  51.9214745  85.5562897  47.2245903  53.3523979  85.2046661
  77.5189285   4.8993764   0.8368368  77.2591553   4.1483569   0.3032436
  78.0007019   4.5169334   1.5702287  53.8395729  54.1904411  12.5995283
  53.9143333  54.0227013  13.5389471  53.4844322  55.0774651  12.5421276
  11.4185314  64.4015045  51.8248825  10.9530697  63.5901260  51.6217918
  10.8646479  65.0926590  51.4619141  45.7074051   5.0488324  51.9643517
  45.3607597   5.9303894  52.1019135  46.2928391   4.9030142  52.7074776
  43.0354424  61.4092903  33.3989105  42.2920837  61.4709053  32.7990341
  43.3463631  60.5090523  33.3033371  70.2430954  31.7316513  63.8934479
  69.3518677  31.5599098  64.1975098  70.2732544  31.3538666  63.0144691
   8.0188904  44.7091103  69.5036087   7.7709074  43.9369507  68.9951706
   8.9334917  44.5560455  69.7408981  41.8471870  61.8531113  35.7045097
  41.9317131  61.1264839  36.3218422  42.2705727  61.5390816  34.9055367
  42.6470528  49.4174118  15.7549419  42.9676590  48.8828125  16.4813328
  43.1238136  50.2433853  15.8367863   8.0356979  44.4010048  60.1420364
   8.0473061  44.2701149  61.0901718   7.3688703  43.7921944  59.8243523
  27.8747826  56.2406578  29.4562664  28.7821255  56.0143280  29.2519722
  27.3528442  55.6181107  28.9500618  85.6622238  24.6595135  62.1936493
  86.1823730  25.2553406  61.6545143  85.1650085  24.1383705  61.5632362
  47.0091553  54.3687859   6.7627845  46.2028198  54.1759644   7.2411909
  47.6377907  53.7214699   7.0822105  27.7348652  57.2215729  71.4422684
  26.8406105  57.4837570  71.6608963  27.9203529  56.4894409  72.0303268
  12.5712538  62.5377541  43.3589439  12.1374292  63.3759804  43.5183182
  12.6174936  62.4694977  42.4053001  51.4132080   3.5789204  52.0782852
  51.8731003   3.2684777  51.2983131  52.1098289   3.7766273  52.7042770
  61.2626038  36.7091331  71.2293777  60.6422577  36.3721046  71.8757629
  61.4431000  35.9622917  70.6585159  69.7697372   5.7987618  77.2024002
  69.2728424   6.5818892  76.9656677  69.1100464   5.1087961  77.2730408
   0.5282930  34.0944862  76.7631226   0.1794374  33.3666649  77.2777252
   1.4784467  33.9909897  76.8153610  29.9327183  65.2601547  23.3923798
  30.6709652  64.7995605  22.9935360  30.2465267  65.5077438  24.2621250
  36.2337494  53.5345993  53.8262787  35.8847504  52.9686203  54.5148239
  35.8842430  54.4022598  54.0293732  77.4792328   3.1589751  75.2482986
  77.6686859   3.8262384  75.9079208  77.9104385   2.3695199  75.5754929
  65.4256897  36.0446167   2.0013220  64.5564499  36.4449692   1.9818897
  65.6779327  35.9749413   1.0805880  12.2742643  49.4203072  85.5778885
  12.0663033  48.5115585  85.7950516  13.2296591  49.4634781  85.6177444
  30.5735111  11.3716927  62.8905640  31.3284492  10.9091597  63.2543831
  30.3508263  10.8814144  62.0991898  72.1465912   8.4983902  25.6387005
  71.9050674   9.2823668  26.1319313  72.3681412   8.8232632  24.7659988
  61.1263771  50.0314903   8.2860126  60.9972115  50.4872437   7.4542456
  61.0776863  50.7217216   8.9474068  65.3285904  35.3706703  38.3670311
  64.6866684  34.8124962  38.8059006  65.3147430  35.0802803  37.4550476
  22.7179356  25.1176319  15.3642740  21.8647614  25.0535202  14.9350710
  23.1574802  24.2954102  15.1475163   3.8053966  59.5572777  61.2155495
   4.6469846  59.4755516  61.6641922   3.9876390  59.2914124  60.3142509
  42.8832664   5.7307167  87.6947021  42.9819794   5.3149748  88.5512390
  42.0116959   6.1256833  87.7192001  30.6454449  12.7962513  70.8928146
  31.5806713  12.5942545  70.8648605  30.5866375  13.5841894  71.4331207
  82.8281708  13.1604967  32.0835037  83.4097824  12.4499350  31.8132095
  82.3916626  13.4328871  31.2763500  77.7782440   7.5815597  88.1331100
  78.0171509   7.4605360  89.0520782  76.8244095   7.6612415  88.1420898
  47.9966850  38.3028259  25.3859997  47.1822815  38.6499329  25.0219955
  48.4964066  38.0140305  24.6223869  55.5045547  19.6310806  25.5473785
  56.1237831  20.2625847  25.1813316  55.8741531  19.3995190  26.3994408
  70.2308044  57.9299545  88.6450653  70.3939743  58.8185883  88.9612045
  69.3328857  57.7401009  88.9169693  58.7840958  64.7344055  65.9143524
  58.5936470  65.0207825  66.8076324  57.9255676  64.6656723  65.4966965
  85.3777008  48.9211960   8.6374102  84.8644791  48.1488113   8.4002390
  84.7278976  49.6146622   8.7518282  79.4723206  70.3084106  61.6503143
  80.2056122  70.7682266  61.2415466  79.4036255  69.4869080  61.1638527
  82.4925690  61.2718773  19.6941128  83.3812943  61.6090546  19.5813522
  82.5298691  60.7648621  20.5051460  42.6172218  22.3134060  16.3201847
  42.2394714  21.5241756  15.9320440  41.9658051  22.6011162  16.9598026
  12.8815632   6.1144266  23.4791718  12.4737225   5.2488389  23.5047874
  13.7933207   5.9569507  23.7243862  48.1941032  50.7036285  80.1564331
  48.3673134  49.7668915  80.2499619  48.8593254  51.0098343  79.5400314
  50.2231064   9.6917229  22.6549702  50.7153015  10.1936512  22.0053234
  50.3301735  10.1836634  23.4690723  45.0999107  46.7788391  20.6857586
  44.8189430  45.8684273  20.5938854  44.2847862  47.2802696  20.7051048
  71.2058487  31.0054359  40.7222137  70.4224701  31.5201054  40.9162674
  70.8743134  30.2182426  40.2901917  71.5866852   9.8008194  75.7043457
  70.7449875   9.5541124  75.3210526  71.4617844  10.7041187  75.9953461
  48.7270470   9.0043859  39.1605148  48.9754944   8.0799999  39.1644669
  47.9795418   9.0540400  39.7563362  30.1872540  68.6691132  58.8306160
  30.5174274  69.2785797  58.1704903  30.7855606  68.7705994  59.5708618
   4.4590249  52.3237343  18.3830223   3.9088473  53.0706558  18.1471348
   4.8562021  52.5728989  19.2175293  16.3397121  10.5637589  73.0295486
  16.9003544   9.8297997  73.2809753  15.5563660  10.4630098  73.5703354
  53.2750626  12.9154825  78.0083694  53.2797546  12.5664625  77.1170883
  54.0364723  13.4945297  78.0428543  81.4481735  27.2901115  31.5533237
  81.8819885  26.4806213  31.2835712  81.6698532  27.3833809  32.4798203
  75.4433365   1.8482728  63.0528450  75.2736130   2.5630543  63.6664543
  76.3827667   1.6826297  63.1320229  73.5875168   3.4579639  58.0312920
  74.2131042   2.9065003  58.5011444  72.7315369   3.0909567  58.2522888
  31.4971294  56.4255486  12.9865599  31.8666744  57.1810417  13.4436150
  30.6949825  56.2231674  13.4680519  61.2133064  55.2679214   1.8244697
  61.2113762  55.3665161   2.7765763  60.3862534  54.8281059   1.6275458
  53.9088821  56.6500397  37.9071198  53.9796829  56.2270889  37.0513573
  53.2169418  56.1654625  38.3572731  74.5932770  44.8748627  86.6385040
  75.4002380  45.1702423  86.2168503  74.0043182  45.6273232  86.5821915
  59.4725075  67.9247589  57.7803917  59.1297226  68.4064941  58.5331535
  60.3730240  68.2355270  57.6870155  85.1757889  60.2289848  16.0035686
  84.9205017  60.0839615  15.0925083  85.5568085  61.1070671  16.0086746
  55.3449478  12.3323507  45.4896240  55.7758408  13.0182886  45.9995804
  55.8257904  11.5339384  45.7076988   3.9260252  24.5475235   4.6643500
   3.5874286  24.3920918   3.7826328   3.1610808  24.8229198   5.1695719
   4.0053329  55.0809555  50.3571014   4.2504797  55.9733582  50.6015472
   4.8087640  54.5727615  50.4687653  75.0288467  52.2300682  27.6281891
  74.4563904  51.8587799  28.2995052  75.8823547  51.8292427  27.7928143
  26.7384415  59.2977028   0.8630305  27.6070213  59.4064293   0.4757585
  26.3193169  58.6251297   0.3261751  14.0423698   7.6944757  31.5847054
  13.9859457   7.6789188  32.5401154  13.3988209   7.0472951  31.2962017
  67.2512665  50.3957863  71.9911423  68.0095825  50.6106110  72.5343170
  67.6153717  49.9033089  71.2555237  25.4239140   1.8930236  44.9468002
  26.1095676   1.2413390  44.8004494  25.4327469   2.4317813  44.1556664
  38.7617607  65.0285950  76.7743988  38.5496025  64.2003708  77.2048264
  39.4490089  64.8034592  76.1473083  80.9872894  38.8641853  18.2953835
  81.1173019  38.9044724  19.2428570  81.2179489  37.9655113  18.0599785
  60.5766716  64.9963226  87.7866592  60.2943535  65.5481415  87.0572586
  59.7998085  64.4861755  88.0157166  15.1645412  16.4902248  81.4148788
  15.4575806  15.8596134  82.0726700  15.9424114  17.0133877  81.2213593
  58.5492516  70.7828598  50.7840157  57.8147011  70.1845245  50.6473732
  59.3070641  70.2094727  50.8988113  16.7486744  11.5432653  79.4033279
  16.1882133  10.7887468  79.5844879  16.1634159  12.2977848  79.4696960
  28.5463715   3.9157789  29.8442497  28.0675602   3.5035441  30.5633011
  28.7884312   4.7784128  30.1811504  66.0629883  66.2659912  19.7758427
  66.0984650  65.3110504  19.7205334  66.6285324  66.5682373  19.0651817
  18.0805264  12.0733690  23.8750381  18.1952991  12.4567976  24.7445431
  17.2688293  12.4608974  23.5476227   0.8843708  40.9417877  50.5732040
   0.4003397  40.1946869  50.9250374   1.5589813  40.5502930  50.0183487
  74.8780136  11.0095701  87.1952438  74.1611557  11.6147261  87.3853149
  74.5498199  10.4672213  86.4780426  80.2174454  42.1179771  64.2631912
  81.0464783  41.9462814  64.7098007  79.6055832  41.4875984  64.6433029
  46.1633873  31.1699848  39.9048843  46.8783760  31.7317352  39.6057816
  45.5114059  31.2194824  39.2058105  65.3445587  26.5813656  86.7473450
  64.5001068  26.6188374  86.2982101  65.9559937  27.0027695  86.1433640
  53.5546722  10.5993586  21.5511608  52.7070847  10.6305552  21.1074753
  53.9488831   9.7781782  21.2570667  83.9255219  64.1273651  21.8861256
  84.6213837  63.8579407  22.4856453  83.1431808  64.1794357  22.4351749
   3.5290580  12.7679348  65.9175415   3.2659142  12.7098961  64.9990616
   4.4769855  12.6357231  65.9039307  29.4370251  35.7336578   4.8311219
  30.1750183  35.4121780   5.3490505  29.5312805  35.2982445   3.9839110
  70.5767975  35.3388863  30.6009789  69.7758865  34.8486519  30.4154110
  71.1441345  35.1638718  29.8501587  69.9136276  45.9646683  56.2888336
  70.6738968  46.4013252  55.9047050  69.9553986  45.0699387  55.9512749
  59.2306938  71.0677261  11.6581383  58.7988968  70.3519135  12.1243944
  59.7988853  70.6316376  11.0231419  69.6360550  61.1628723  60.1102219
  69.5539322  61.8176270  60.8036079  68.7346573  60.9076767  59.9137993
  42.3783188   7.0242639   4.7305770  43.2042351   6.6334291   5.0157833
  42.0322495   7.4513636   5.5141916  59.6919441  58.4321938  75.4173279
  58.9420891  58.7683868  75.9081726  59.3042183  57.9018135  74.7211990
  44.4070702  57.0649872  78.1809616  44.9775620  56.9710350  77.4181137
  43.7981911  57.7632065  77.9401550  83.1188126  16.5902596  41.8405800
  83.1252518  15.7587719  41.3664322  83.1195755  16.3392544  42.7642822
  75.5818939  60.5848503  61.3848648  75.6533508  59.8687820  62.0160332
  74.9174576  61.1655731  61.7556877  82.4511642  16.5960674  49.9604340
  81.6100464  16.8239651  50.3564339  82.3848495  15.6583080  49.7803192
   2.2812126  19.7137241  26.0270309   1.3651276  19.7969265  26.2917900
   2.4567394  20.5060520  25.5194492   5.9123001   2.9091899   3.0487847
   6.6846132   3.4746673   3.0489373   5.3344626   3.2931335   2.3892980
   3.1706474  17.3736267  85.1719055   2.6556010  17.6361904  84.4089966
   2.5942063  16.7847538  85.6589050  46.5563087  69.7192078  85.9524689
  46.7984428  68.7943954  86.0006027  47.3048286  70.1411285  85.5306473
  49.9332085  46.7894173  77.6407242  49.4700699  47.2879715  76.9675369
  50.8598442  46.9516830  77.4639435  55.2791595  13.8008451   8.6403246
  55.0155067  12.9208336   8.3714418  55.4160995  13.7316532   9.5851479
  65.4272156  49.9308395  51.6281357  65.1855545  50.2918816  50.7752113
  66.0471344  50.5643883  51.9894600  52.4676971  51.8371468  45.1453133
  53.0186348  51.8725777  44.3633652  52.2098160  52.7462196  45.2980042
   7.1561661  28.2340508  84.4276810   6.4370589  28.7363853  84.0445633
   6.9932761  27.3326378  84.1499176  45.6972580  57.3467293  58.0149994
  45.6000633  56.7673569  57.2592773  46.6357765  57.3396873  58.2030602
   1.1951895  14.1104622  44.1565475   1.7284495  13.8858643  43.3940353
   1.5902382  13.6205797  44.8777847  67.7730560  37.9171829   6.6632195
  68.2615585  38.1261673   5.8670278  67.0393829  37.3820534   6.3605638
  85.0145264  11.8332424  46.2761192  84.0882111  11.5920820  46.2720222
  85.4638138  11.0640955  45.9257126  18.7127991   4.1379914  50.3370667
  17.9096260   4.1795382  49.8180084  18.7825356   3.2194963  50.5973282
  59.6115837   6.7977695  61.4218788  60.3234406   6.2232738  61.1400070
  60.0455742   7.6159487  61.6636772  47.5826607  65.9815063  23.4742413
  48.1481972  65.7974319  22.7242279  48.0802727  66.6062317  24.0018120
  49.9276199  39.5896530   4.8605003  49.8819809  38.7442245   5.3070450
  49.4946556  40.1996498   5.4577250   3.4991374  36.6621284  16.0900002
   2.7399549  36.8074722  15.5254211   3.2709897  35.8871078  16.6033459
  16.7712955   3.2032466  16.3019104  16.1627655   3.8864737  16.0206165
  17.5975800   3.4273951  15.8738413   4.6779709   5.6668124  66.7549057
   5.1851711   5.1993041  67.4185410   3.9019568   5.9774146  67.2213364
  36.5997620   5.9170909  13.1183500  35.8241882   5.3754807  12.9721432
  36.3626404   6.4812536  13.8543692  81.9403152  55.5363388  80.1216660
  82.3583603  54.8279991  80.6112900  81.1560440  55.7473145  80.6282654
  83.8588181  48.2266769  46.3149796  83.0571365  47.7123756  46.2199593
  84.4184570  47.6954460  46.8813972  57.7307816  37.5105858  30.9871597
  58.4856834  37.5924530  31.5699558  57.0176773  37.9433327  31.4566784
  49.5216217  41.9246292  81.4271088  48.8187027  41.9441452  80.7776794
  50.0256653  41.1401138  81.2109909   4.2567697  21.9899979  61.7509499
   4.1391497  22.0218830  62.7003593   5.1926098  22.1428394  61.6202812
  72.8299637  56.8949051  53.1229591  72.4875641  56.0092621  53.2439232
  72.4587555  57.3964233  53.8488503  18.5733757   6.5917716  66.1035233
  19.0204678   6.6284528  66.9490967  18.3321342   7.4998231  65.9205551
  69.8283081  64.9847946  80.6559982  69.9326706  64.3772812  79.9236984
  69.0277252  64.6963272  81.0942764  59.4804115  46.0765343  14.6955185
  59.2640305  46.0575829  15.6277485  59.3714790  46.9933586  14.4429455
  18.5548344   6.6301866  29.6167278  18.9132481   7.5167322  29.5742130
  17.6058388   6.7546811  29.6048985  62.3610916   0.8739775  73.7437820
  61.6029778   1.0178053  73.1773834  61.9892502   0.5487877  74.5636749
  72.8552551  31.7756958  66.5823822  72.2090073  31.3548508  67.1493835
  73.0785599  32.5885353  67.0358734  23.8258057  13.5888672  81.4809494
  24.6749878  14.0269575  81.4244003  24.0042591  12.6857777  81.2186203
  59.7023506  40.6982269  57.5107155  60.2047844  40.9654694  58.2803688
  59.6885376  41.4753418  56.9520226  33.7292747   4.5089960  17.0683136
  33.7422676   4.0241876  16.2430706  32.9768906   5.0954857  16.9897308
  39.9843750  55.3393631  63.3812904  40.7268562  55.5331345  62.8090935
  40.3099365  55.5154495  64.2640305  72.2243652   1.2494100  59.1032143
  72.1205215   1.1680286  60.0512772  72.8050537   0.5273724  58.8630180
  66.6171722  24.4070129  21.2054844  66.8827057  25.3153458  21.0617638
  66.7213440  24.2732201  22.1475468  27.3735790  45.5491409  23.3985691
  26.4726543  45.7574196  23.1512108  27.2925606  45.0922623  24.2357845
  22.0366764  48.0132561  46.0699463  22.8937950  48.2357597  45.7065315
  21.4101772  48.3500061  45.4293747  15.3824654   6.1441998  81.6280518
  14.4541473   6.1514635  81.8612976  15.4036570   5.7860537  80.7406311
  59.6157684  31.0962009  76.5416718  59.6538010  30.4977646  75.7955704
  58.9351273  31.7273617  76.3080063  44.1635742   6.1714048  34.4147110
  44.3680077   7.0636430  34.6946220  43.4710121   5.8861599  35.0107193
  71.3703537  58.5710945  51.0122948  70.5634613  58.0604362  50.9461136
  71.8390121  58.1837082  51.7515640  80.5656433  16.4526272   2.4269862
  79.8711243  15.8566551   2.7075016  81.3770294  15.9853945   2.6259301
  55.7092133  10.4927549  65.7822037  55.4209404  11.2902060  66.2262802
  56.3012657  10.0720844  66.4057007  16.6974277  23.9345646  57.8109856
  16.0689373  23.4432869  58.3400192  16.2235756  24.1394196  57.0049286
  25.3154411   4.6310592  55.3846512  24.7803612   4.8869925  54.6333733
  24.6814270   4.3676667  56.0516472  64.2931366  28.3065014  56.2520180
  63.9821739  27.8151321  55.4916954  64.1889954  27.7019806  56.9868240
  24.2782555  64.7491531   3.8384337  23.5695934  65.3882751   3.9130161
  23.8326015  63.9071999   3.7449884  32.7161674  16.6814270  88.9685211
  33.1745415  16.4437943  88.1625137  33.1982231  17.4371471  89.3042984
  83.0177231  28.5422115  46.1447334  82.5257492  27.7672405  45.8734207
  83.9166183  28.3642635  45.8680344  46.6644363  16.5704727  78.5350113
  46.3980255  17.2996120  77.9750061  46.0694923  16.6136265  79.2836227
  77.9432983   2.6072676  53.8651466  77.5625992   3.0748999  53.1217613
  77.6782684   3.1176455  54.6303291  66.3551102  22.8226604  10.1951437
  66.1352234  23.2505112  11.0226860  65.5481567  22.3797398   9.9326897
  60.1152420  56.1862602  39.5958939  59.8506622  56.3047447  38.6836510
  61.0604706  56.0412254  39.5542259  20.5844994  63.5239983  25.2995052
  20.3455143  64.4469147  25.2138386  20.2624550  63.2725449  26.1651211
   0.6528682  69.2214890  27.4622421   1.4295872  69.1324005  26.9099712
   0.4997416  70.1651688  27.5097790  64.9957809  65.1525726  51.9035759
  65.8437576  64.8171234  52.1945152  64.6862259  65.6874619  52.6345329
  21.5037003  66.3790436  34.0805397  22.0717487  67.1322708  33.9186745
  22.0921345  65.6246338  34.0513954  79.4539795  66.9129486  87.1443863
  79.0694580  66.7676315  86.2799530  79.0484467  66.2487030  87.7016602
  58.6823502  70.9654312  69.2800369  58.6194687  70.1260300  68.8243179
  58.0320206  70.9072571  69.9799805  43.4302292   0.6444404  61.9979782
  44.2147369   0.5189614  62.5318642  43.6603737   1.3529444  61.3969040
  45.0479088  58.1580963  38.8085213  44.9193878  57.6132927  38.0320511
  44.3298225  57.9152756  39.3930092  47.6092148  15.2035599  76.5208511
  47.0896759  15.5259752  77.2573090  46.9611893  14.8963060  75.8869095
  67.8996048  29.3060093  61.3078690  67.3513718  28.5891914  60.9887390
  67.2845764  30.0182590  61.4829941  85.7724228  57.9751892  11.9251776
  85.6231995  57.0315628  11.8657007  85.3446426  58.2343521  12.7413111
  78.4567947  56.6755219  43.0177574  77.5053406  56.7261238  43.1095009
  78.6363144  55.7433929  42.8947258  78.8613892   4.8141370  76.8516006
  79.2660904   5.0235524  76.0098267  79.0955658   5.5484424  77.4192200
  49.8694725  43.8289413  71.9556580  49.5856972  43.8947830  71.0438614
  50.2212143  44.6953583  72.1601868   4.8210087  50.3363991  16.5106659
   5.7154846  50.5272942  16.2283459   4.6277003  51.0082207  17.1645184
   8.0660858  13.8483143  82.9394455   7.1282849  14.0386229  82.9161301
   8.1721334  13.0950518  82.3584290  49.7737045  18.5479870  12.7710667
  49.3637581  18.3213978  13.6058311  49.4536324  19.4292850  12.5784616
   5.5901351  49.7177048  40.8471603   5.1753793  50.1280403  40.0883255
   6.0304823  48.9459114  40.4912605  24.3493309  29.9189682  13.1306047
  25.0572109  30.4800129  13.4474115  24.3479004  29.1732655  13.7307367
  41.8204002   0.4777539   8.1052961  42.7387772   0.3072950   8.3144875
  41.3936462   0.5690129   8.9572258  86.9805832  42.0077591  14.1453581
  86.2418823  42.5198746  14.4744349  86.6163940  41.5012932  13.4193449
   6.5261455  26.6417961  34.9043312   6.7394166  25.8750610  35.4361801
   7.0667801  27.3431931  35.2676315  34.0306587  20.4744778   6.6845751
  33.3358727  20.3242970   6.0435185  34.5555077  21.1807899   6.3078985
  44.5816460  62.1904297  53.8095627  45.3342972  61.6101112  53.6956406
  44.9108696  62.9056168  54.3539467  76.1135941  60.0846405  70.0194550
  75.5033798  60.3951416  69.3505249  76.8730164  60.6614799  69.9371796
  13.6954193  43.7693901  53.9181061  14.2060366  43.3810997  53.2076607
  13.3584471  43.0195541  54.4084358   6.7911100  14.3863077  16.6433640
   6.2386036  13.6866045  16.2949619   7.6859140  14.0726166  16.5123844
  46.4345894  46.6322021  81.9570694  46.9703522  45.8726768  82.1857834
  46.8245392  46.9657974  81.1490555  43.6819649  14.9485531  41.2044907
  43.6437759  15.3086023  42.0905685  42.7964172  14.6250257  41.0390511
  64.7478638  50.7843704  60.4986916  65.3699341  51.5118217  60.4901390
  65.0422974  50.2091293  59.7925491  41.0227890  71.5226212  33.0486336
  40.3908424  70.8646088  32.7589836  40.5768242  71.9877701  33.7564316
  74.8908005  69.6581116  66.6572800  74.4239197  69.2274170  67.3733444
  75.4888458  68.9889069  66.3245239  30.4804401   2.9370263  66.8132553
  31.2328930   2.3453803  66.8123322  30.8601456   3.8072433  66.9348145
  58.5847473  69.5811615  75.6824646  59.2776527  68.9276810  75.7777405
  57.9031639  69.2981644  76.2920380  51.0294456  71.1849136  63.3754349
  50.2269211  71.6915588  63.2509499  51.0172310  70.9404373  64.3008041
  77.2660522  15.3987560   7.1014338  77.0518265  15.8908777   6.3088713
  78.0137329  14.8558578   6.8515053  66.1208572  53.8337708  24.9310665
  65.3988571  53.2382355  25.1317673  66.4672165  54.0871735  25.7866688
  37.8466606  16.4865761  80.6361542  37.2526169  16.1271839  81.2950821
  38.0286598  15.7511187  80.0511703  28.6744003  66.0076294  48.4221535
  28.0160027  66.5054016  47.9374123  28.9813080  65.3476257  47.8005104
  42.4286461  49.9833145  34.9197426  43.0816879  49.5858536  34.3437233
  42.4169006  50.9065704  34.6673775  44.3770485  55.8322296  56.1912079
  43.7759132  55.7486954  55.4510117  43.8294144  56.1477699  56.9100723
  40.3120232   8.1849117  17.9037380  40.3753471   8.0534658  16.9577236
  41.0860558   7.7477112  18.2586422  66.2754211  31.8065014  81.1601639
  65.6387558  32.4542160  80.8579178  67.0689697  32.3131485  81.3328629
  60.2235146  55.7641106  76.4450455  60.5464821  56.5770531  76.8336945
  60.1793404  55.9482269  75.5067596  58.0217361  37.4760628  28.3509750
  58.9588432  37.2847977  28.3124733  57.8010178  37.4063301  29.2797661
  63.1053467   3.2733517  85.1193161  63.2866783   2.8203771  84.2958069
  63.8919182   3.1350758  85.6469727   2.0612156  70.9983826   2.2552714
   2.7636735  71.5992355   2.0067523   2.0217597  70.3661499   1.5376718
  38.2665329  39.7459030  24.4286385  39.0462799  39.9574814  24.9419212
  37.6858864  39.3022842  25.0469303   0.8827429  11.5927563   6.5128002
   0.3067279  12.3572407   6.5115385   1.4554161  11.7231112   5.7569661
  71.5715027  50.1946259  87.6097260  71.2527771  50.5536156  88.4378357
  72.3362732  49.6730652  87.8533173  87.0967941   9.0099449  28.3692570
  86.4388733   9.6197958  28.0354042  86.9241333   8.1922607  27.9025517
   7.6663918  50.4072418  11.5555706   8.3136988  50.3994446  12.2606697
   7.6459980  49.5040817  11.2391577  78.4380188  30.7175751  64.4965363
  78.6723480  30.8323860  65.4174805  78.8819733  29.9108276  64.2352066
  18.4179630  12.7662649  47.1229782  18.4639797  12.5866261  48.0620461
  19.2199593  13.2528858  46.9326286   0.2009815  47.8610229  66.0291290
   1.1559554  47.8274002  66.0850449  -0.0715622  46.9434471  66.0319672
  12.1509876  66.2768860  14.1184082  11.8487844  65.8525696  13.3153763
  12.7583809  65.6478119  14.5077238  50.3963814  48.1782265  42.9082565
  50.3764076  47.3670044  42.4005661  50.8291359  48.8097610  42.3336945
   4.7433543   1.0148443  49.6784744   4.0117202   1.4802414  50.0838776
   5.0331240   0.3948275  50.3476868  46.9767838  51.2592430  29.9906921
  47.9170074  51.1838112  29.8278446  46.7499657  52.1366425  29.6825447
  27.2782745  47.4065323   6.9998899  27.6969452  48.0789909   7.5372443
  26.3414326  47.5869751   7.0773578  50.0984077  56.5684471  55.5503273
  50.2869949  55.8143082  56.1088448  49.1497650  56.5425987  55.4252663
  50.3007202  45.8961411   5.9085474  50.3748360  45.9755325   4.9575291
  49.3604088  45.8185005   6.0698538  25.8070278  66.6744003  48.2592888
  24.9506798  66.3846054  48.5738068  25.8668232  67.5888596  48.5357285
  53.2386093  24.1292419  36.9689484  53.2846336  25.0135555  36.6054878
  54.1124611  23.7657166  36.8259010  12.9658928  34.7849197  48.5906029
  13.9168653  34.7507095  48.4871025  12.6368179  34.1000290  48.0084763
  58.5936546  52.8001595  11.1486158  58.0076599  52.9350662  11.8933592
  59.2973862  53.4356880  11.2793779  55.4600677   3.9688296  42.5469704
  55.4618874   3.3407798  43.2693138  55.2410469   3.4460690  41.7756195
  27.7465267  56.2229881  10.1364536  28.5108051  55.8991661  10.6131601
  28.0925999  56.4978180   9.2873755  85.9787369  16.4054050  76.8651657
  85.1614380  16.8583851  76.6576538  85.7093430  15.5132046  77.0834198
  64.7914734  51.5739326  71.6716766  65.2631683  52.3393326  71.3432007
  65.4790878  50.9790421  71.9708710  63.3004265  55.8611488   8.4709616
  62.3622856  56.0217247   8.5726395  63.5386429  56.3311501   7.6718473
  73.2038040  68.6287613  47.8703003  72.3922119  68.1369781  47.7450027
  73.8356171  68.1991730  47.2936745  33.5519714  14.9462843  35.0682907
  33.4545097  14.4306269  34.2677727  33.2567902  14.3622255  35.7668419
  70.6449280  69.1174774   0.4891865  70.9211426  68.2035446   0.5574906
  69.7097015  69.0708389   0.2906898  22.5883770  67.6642685  84.2049332
  22.5810757  66.8193436  84.6546936  23.3848667  67.6463013  83.6743546
  21.0282555  69.9537888  53.2144508  21.6011257  70.6795044  52.9666862
  20.2080345  70.1277008  52.7526894  63.6023216  51.6409225  57.2330170
  64.4000626  51.9105568  56.7778969  63.9087486  51.0615196  57.9306030
   7.5877519   8.9267397  48.5287666   7.0735979   9.4177723  47.8878593
   7.1433873   8.0815601  48.5954247  64.1737061  27.6106529  38.4764061
  64.3161926  27.1092205  37.6736031  64.8116226  27.2568569  39.0961838
  70.2199326   9.6915188  84.7879562  69.5066299   9.0658102  84.9141235
  70.6719513   9.3841705  84.0021744  50.3445206  50.2642365  57.2660179
  50.7048187  49.9096031  56.4532127  51.1128807  50.5039215  57.7840958
  86.0488358  24.0168591  74.6775742  86.9019470  23.8033676  74.2996063
  86.2420807  24.6668053  75.3531876  54.9616470  44.3753738  63.7369957
  55.5630341  43.6739197  63.4869308  55.1155548  44.5003204  64.6734390
  21.9464645   1.2374979  19.3387966  21.6425972   1.0485554  18.4509907
  22.7029152   1.8110405  19.2160587  45.2336502  20.7878036   5.8738561
  45.0687370  20.6662960   4.9388318  44.9581070  19.9634418   6.2747746
   0.8334857  11.4566259  39.2389870   0.4889130  11.3564672  40.1263809
   1.4643675  12.1733284  39.3064957  40.7161026  11.7749968  51.5204391
  40.8092155  12.3232212  50.7413292  39.8324394  11.4130487  51.4544029
  71.0151901  62.4174042  17.8560066  70.8325195  62.4538498  18.7949085
  70.8307343  63.3024750  17.5415878   6.5949121  27.6412601  67.9780655
   6.5156722  27.0666885  68.7395248   6.0907493  28.4204330  68.2124557
   4.5222058  25.3966446  56.1518288   3.7114205  25.2773609  56.6464310
   4.9989161  26.0730724  56.6328964  34.2357445  22.0571671  13.5027313
  34.5812721  22.9452915  13.5926075  34.7717209  21.6599712  12.8162947
  40.3735352   6.5455294  65.3919373  40.2883797   7.4298482  65.7482529
  40.3330002   6.6647067  64.4430542  17.6805153  26.4011879  29.5805302
  18.1783581  25.6114388  29.3691597  18.1410484  27.1043568  29.1226063
  58.2061768   4.1462183  40.2717934  58.7578545   4.1583772  41.0539322
  57.5358772   4.8082147  40.4411774  15.9285231   5.5464859  15.1361246
  16.1674957   5.3214812  14.2369604  16.1366882   6.4775729  15.2134266
  37.3058548  15.4499674  75.6837311  37.1243248  15.2330227  74.7692795
  36.7427254  14.8609943  76.1859512  58.1938019  21.4871883  37.9365540
  59.0587311  21.1452713  38.1628761  57.6043968  21.0918541  38.5788498
  25.6818523  63.1535683  18.4956837  25.6779671  63.9671593  18.9999523
  26.4967041  62.7192955  18.7479801  57.0283546  57.6660881  55.3360977
  56.6376381  57.0785179  54.6893120  57.7604866  58.0762482  54.8756790
  76.5040512  44.0809708  54.0925827  76.7496262  43.1581955  54.0261803
  76.9327164  44.4973068  53.3448219  49.8255424  70.0948563  49.4278946
  49.8802605  71.0484467  49.4902954  49.3372345  69.9353104  48.6202240
  32.8954811  38.7041931   6.6603141  32.2273026  38.0383072   6.8227000
  32.8813934  38.8312836   5.7116938  24.2401447  57.7305717  64.5969620
  25.1613388  57.9021378  64.4015121  23.9569435  57.1297340  63.9077415
  78.6809769  55.7472267  84.9537659  79.1122894  54.9165154  85.1540604
  77.9083023  55.4995880  84.4459534  55.0767136  41.8832321  20.7257462
  55.9234619  42.2974815  20.5594711  54.5853577  42.5349045  21.2258720
  30.7739468   9.7524548  82.5083694  30.8594456  10.6903305  82.6795807
  31.4256306   9.3445120  83.0785675  34.1932678  65.8441238  26.9472599
  34.3368797  66.2561035  27.7992458  35.0729675  65.7113724  26.5940762
  24.9521675   9.6462822   8.5438843  24.1425972  10.1335688   8.3909769
  25.5568523  10.2940044   8.9058838  18.8498516   6.4142566  85.0074387
  19.2048969   6.0328012  85.8103561  18.0262241   5.9479351  84.8645630
  53.5227203   7.6654992  83.4683304  53.1629868   8.1959105  82.7573547
  54.3970490   7.4203687  83.1655350  68.2474060  68.5834503  88.5971527
  68.2468491  67.7821426  88.0735703  67.4177017  68.5586700  89.0738144
  69.3197556  14.1247377  53.4531784  70.1723862  13.8944311  53.8222504
  69.4273834  15.0244923  53.1448097  58.4329262   5.4369116  14.8370771
  59.1231918   4.7744846  14.8061838  58.7930145   6.1807485  14.3540897
  59.0058708  38.6927338  71.2137451  58.4233704  37.9411163  71.1042099
  59.8435745  38.4009552  70.8540878  47.0907555  45.9679146  25.5864067
  47.9605370  46.2344017  25.2885857  46.5159454  46.1539955  24.8439808
  78.5349884  10.7623749  28.9357738  78.9134521  11.3138905  29.6204834
  77.8108978  10.3083906  29.3668442  81.9946136  58.4757690  73.2471237
  81.3693466  59.1485786  72.9776840  82.2720261  58.0649109  72.4282990
  21.4147034  39.0028458  76.7910767  20.6051788  39.4873314  76.9528656
  21.2563381  38.5397263  75.9684753  47.7203598  53.0660934  72.0513382
  46.9620209  53.1403809  72.6306839  47.3616829  52.7327271  71.2288742
  54.8266029  66.7835464  78.5944595  55.2311211  66.9656677  79.4426498
  55.5301895  66.9184570  77.9596405  77.9882278  58.6855774  67.6672897
  77.0657501  58.5619965  67.4436951  78.2318268  57.8841591  68.1305695
  32.6655579  61.9627113  45.9824371  32.6032944  61.8880959  46.9346886
  32.3809204  61.1090279  45.6561775  66.6801300  22.0294037   3.1580400
  65.9763031  21.3917046   3.0388896  67.1701202  21.7067966   3.9143925
  78.6908417  66.2556000  68.0539780  79.6140060  66.2309799  67.8021927
  78.6675262  66.8245316  68.8233948  86.1715698  18.7594070  58.9369774
  86.7010727  18.8180847  59.7322273  85.3822174  19.2624893  59.1371460
  76.1917343  38.3724442  38.5586433  76.0563354  39.2247009  38.9728394
  75.3333969  37.9502106  38.5933456  16.3929405  68.6131363  44.6514511
  16.0227070  68.3925400  45.5061417  16.9515381  67.8672485  44.4326782
  31.1037636  57.8983994  20.2116776  30.3170357  58.1404991  20.7002239
  31.1880550  58.5769882  19.5418701  18.6505241  14.6918545  64.6686096
  18.6109829  13.8149986  65.0504303  18.0084839  14.6732283  63.9589119
  86.2881775  19.8382626  10.2147789  86.9287720  19.4472351   9.6206713
  85.6926346  20.3204613   9.6411543  25.4925575  42.8376007  80.4228897
  25.5329380  43.1873550  81.3129883  25.9094696  41.9781418  80.4841232
  69.9143906  70.3928833  73.1408463  69.2939758  70.5494995  73.8527298
  70.7466202  70.2218246  73.5817261  84.7571106   4.3854809  76.7414932
  84.8487701   3.7722416  76.0122681  84.4729309   3.8425012  77.4767838
  34.3980713  16.5452213  13.1029377  34.3343239  16.0212345  13.9014406
  34.6033783  15.9109974  12.4160309  13.2493191  15.2360868  44.6566849
  14.0702829  14.9981775  45.0875549  12.6177959  14.5888329  44.9704895
   2.3619962  63.0893402  33.0049515   2.1783719  62.1627693  32.8500938
   3.2303982  63.2278557  32.6268997  68.7072449  26.6211109  80.1499710
  68.0671616  26.0676041  80.5973663  68.8701324  27.3402691  80.7603149
   9.7384872  12.8943129  56.7125435   9.4162998  12.9896040  57.6088409
  10.3911524  13.5880337  56.6176147  18.4516411  71.0535355  53.7069778
  19.1855736  71.1540070  54.3131790  17.9151535  70.3611832  54.0930672
  76.6380234  47.8983345   6.3132739  76.2467728  48.7626228   6.4403739
  77.3750305  48.0535812   5.7225480  16.9148159  47.0391006  20.3474979
  17.7639370  47.3437653  20.0274925  16.8291512  47.4358749  21.2143688
  70.9848862  50.4340286  31.9632721  71.0786285  49.5169334  31.7056313
  70.0586929  50.5266380  32.1864738  79.6322098  64.9397278  73.4975204
  78.9661636  64.2710266  73.3379669  80.4644165  64.4772186  73.3988266
  57.5441055  34.1126671  84.2189407  57.0607910  33.3105125  84.4169006
  58.4253845  33.8125648  83.9964142  74.6531448  21.3068619  80.2856369
  74.4886398  22.1507359  79.8648758  73.9019852  21.1774521  80.8646469
  71.7544327  61.2159271  51.5486259  71.5858536  60.4094162  51.0614319
  72.4160461  60.9710884  52.1955833  47.8992157  51.2532272  56.6813927
  48.7372475  50.8177986  56.8373947  48.1034393  52.1874886  56.7224159
  13.2550640  18.0096607  82.8408508  13.9848967  17.4530926  82.5691757
  13.6599283  18.6896381  83.3793182  24.6556320   7.6187143  81.1780396
  25.1511192   8.3050461  81.6248856  24.7766266   6.8418603  81.7240143
  25.0294113  49.3195457  62.5354958  24.4638882  49.3585739  63.3067894
  25.1658058  50.2351341  62.2919312  27.7214546  19.7407112   2.3938234
  27.5884819  19.8958302   1.4586829  26.8527393  19.5124016   2.7246416
  21.3448219  51.4960442  70.3811722  20.6561489  51.4635506  71.0451736
  21.5238972  52.4294243  70.2673035  23.2778606  43.3738251  30.9528942
  23.7937679  42.6118317  31.2163944  22.5362377  43.0063210  30.4720955
  26.3546829   6.0806618  77.7194595  27.0251179   6.3291082  77.0830460
  26.3493977   6.7973676  78.3539200  76.3799515  33.4157410  17.6384754
  75.9576340  33.7251205  18.4398232  76.5775986  32.4953613  17.8118782
   7.3637228  27.0629635   8.7780857   6.5714889  26.6976891   8.3841667
   8.0715103  26.5071259   8.4520292  73.3337708  55.7965889  26.1079178
  73.3779984  55.2691422  26.9054623  73.1022186  55.1721878  25.4203587
  19.3432007  58.5002899  24.5972843  19.1940918  59.4331856  24.4433270
  19.6261883  58.4504547  25.5103378  26.1011486  22.2860470  31.3276329
  25.4774647  21.6093044  31.5908279  25.6164513  23.1065292  31.4176693
  12.6857319  59.8423386  87.1848221  12.9455919  60.5988083  87.7106171
  13.3683996  59.7682762  86.5179596  12.8670692  22.3884106  61.5933800
  12.4258003  22.9339600  60.9423103  13.7918940  22.6224022  61.5147667
  26.5059891  44.4081688  32.9176369  26.5818901  44.7134743  32.0136108
  26.0736408  45.1275368  33.3778763  11.7945919  43.3241577  60.6675415
  11.8003368  42.9716797  59.7776222  11.0997944  42.8391342  61.1127815
  22.5053883   7.2944493  69.2694550  21.6773720   7.5678053  69.6642990
  23.1770077   7.6458187  69.8540039  24.4034138  42.7564583  20.1516914
  25.2760677  42.4230347  19.9430428  24.2335720  43.4187431  19.4817924
  53.5398140  69.1691589  21.8221283  54.1605148  69.8617172  21.5955677
  53.4802856  69.2038040  22.7768459  13.8747721  60.6344185  12.9017925
  14.7277098  60.7756119  12.4909468  14.0751429  60.4922028  13.8269186
  15.8623695  12.4061842  27.4978046  15.6147480  11.5463934  27.8379154
  15.0301590  12.8276310  27.2832355  48.9691811  62.0431747  13.8066826
  49.5710030  62.6868629  14.1804571  48.2399902  62.0092392  14.4258471
   6.9403100  55.9050102  39.8000832   7.2684569  56.4035645  40.5484123
   7.3089070  55.0292053  39.9155693  27.3060036  70.0404968  52.3417702
  27.3340244  70.9969940  52.3652802  27.2124519  69.7810211  53.2583694
  26.7732258  42.7626343  22.4202461  27.1018085  43.6602440  22.4708481
  27.2649841  42.3678017  21.7001686   3.9644723  24.3551922  36.7788658
   3.8561895  23.8905926  37.6087189   4.8607306  24.1561108  36.5080910
  68.1737061  31.9246140  71.6282043  67.7717667  31.6058235  72.4363251
  67.5706406  32.5961533  71.3094788  11.7467661  55.1245880  46.9596214
  12.1068850  54.2387047  46.9177055  11.5000143  55.3257866  46.0569229
  27.6597710  66.2605591  42.5103149  27.0421696  66.9902115  42.5593452
  27.1229687  65.4820251  42.6585159  25.0219307  48.5329628   1.8782523
  25.0787411  49.0146599   1.0530421  25.9323254  48.4111900   2.1476648
  83.0282822  38.6952477  32.9178276  82.6111832  37.8949509  32.5987930
  82.6025162  38.8689537  33.7573395  27.6769657  64.1843414  74.7617035
  28.5765800  63.8755226  74.8692245  27.5280132  64.1636810  73.8163910
  55.7557640  43.3061295  34.7661247  56.5522308  43.6054459  34.3276253
  55.7427826  43.7870407  35.5936432  61.3515472  48.7294312  45.5449524
  62.2324333  48.6081924  45.1905899  60.7832756  48.2473335  44.9442177
   0.6890485  61.6706772  63.1610336   0.4763315  61.9535675  62.2716789
  -0.1431778  61.3627243  63.5199165  28.8841324  46.1054268  74.6868973
  29.6832638  45.7045898  75.0288696  28.5205975  45.4472504  74.0945435
  70.3205414  64.8719864  28.9988670  70.1750793  64.0521240  28.5267353
  70.5793304  65.4961395  28.3208656   6.5176663  10.6845398  18.0959167
   5.9163718   9.9620590  18.2767467   7.3498459  10.4047108  18.4772358
  81.6350403  36.9577332  77.9899750  82.4932327  37.3676262  78.0982590
  81.8306427  36.0461540  77.7731857  58.8382797  29.6490040  69.4022446
  58.1186447  30.1985950  69.7125778  59.1285210  30.0690746  68.5925980
  49.1621666  52.4568520  88.0505142  48.4620361  52.8104591  88.5991669
  48.8114014  52.4946098  87.1607056  16.0928173  12.6689434  49.1369438
  15.2030687  12.7487230  48.7931213  16.6250820  12.4434290  48.3740082
  76.6827393  33.6999016  63.9073753  76.1666565  33.3931732  63.1618500
  77.5118790  33.2270508  63.8354721  43.3529282  42.3663025  88.0297165
  43.0689621  41.8353386  87.2856293  43.6651306  43.1814880  87.6369934
  17.3702278  34.5480537  62.0061150  18.0095882  35.2302399  61.8009987
  17.8282795  33.7277031  61.8232498   7.3615513  53.5132942  29.7365685
   6.7234068  53.0346909  29.2074699   7.7710686  54.1238937  29.1236305
  13.6333466  42.9007149  28.5169144  14.4440069  42.7698021  29.0087719
  13.3749256  42.0208511  28.2425346  76.4111481  35.6131058  80.2252350
  76.8355179  34.7623215  80.1143036  76.6122818  35.8653984  81.1264191
  55.5162811  62.3475571  61.3271942  55.0631676  62.0538559  60.5368385
  55.5416603  61.5738754  61.8902245  54.6971283  10.6403427   0.6198834
  55.2175026  10.9556923  -0.1190334  55.3418388  10.2906265   1.2349288
  -0.2441843  69.3999405  36.7857590   0.6649016  69.6590118  36.9363480
  -0.3459379  68.5856400  37.2784958  66.5808945  41.3168182  61.8813515
  66.5425949  41.7205200  61.0142937  67.2989731  41.7687569  62.3244629
  16.0286045  25.5178223  36.0511665  16.8668709  25.2187405  35.6988945
  15.7427139  26.1994343  35.4429703  32.5201645  16.2669449  52.3789902
  32.3222427  16.1568851  51.4489632  31.9389935  16.9713593  52.6658211
  -0.0165326  29.7397308  83.7680740  -0.6046503  29.5675888  84.5034103
   0.7243551  30.2040787  84.1575623  22.1090469  36.0793800  27.1811295
  22.0441647  36.5597649  28.0065079  21.6087208  36.6058311  26.5576286
  33.7286186  36.0360565  31.7748737  33.4778748  36.3384552  32.6477509
  32.9303474  36.1208725  31.2535286  83.9678116   5.2100925  46.3865051
  83.7243881   4.5544634  45.7329559  84.2378311   4.6989889  47.1494560
  12.9945536  56.4722748  14.0703955  13.5061569  56.3870583  13.2658882
  12.3964663  57.1994629  13.8980017  83.3446579   4.8288288  87.9439697
  83.2568054   5.6710110  88.3903351  84.2879105   4.7184782  87.8242188
  69.9724426  24.8843880  15.7838545  70.3370895  24.4825916  14.9952955
  70.7349243  25.0739326  16.3305950   4.1852860  44.6762962  17.5049553
   5.1381073  44.5858345  17.5183792   4.0350218  45.6201935  17.4529438
  21.2985535  58.8850060   9.8266811  21.1671581  59.5757904  10.4761324
  21.0784931  59.2968483   8.9911022  71.5153580   5.9788365  17.1361504
  71.3795090   5.1154232  17.5263977  71.5376587   5.8147435  16.1933842
  22.1826096  62.8298073  69.6809006  23.1208191  62.9463234  69.5311737
  21.7651863  63.2783356  68.9454956  70.8402252  59.1749840  23.2690201
  71.2945557  59.0992508  24.1081142  69.9851913  59.5430069  23.4919720
  11.6786518  56.3138466  77.0118027  11.0845232  55.5635071  76.9965210
  11.5194426  56.7281761  77.8598709  54.8051147   6.7556157  42.7371445
  54.9392204   5.8163133  42.6108170  53.8669128   6.8430915  42.9055519
  64.9825287  21.6632328  55.8742790  65.6878662  22.3102722  55.8656387
  65.3400345  20.9128628  55.3995476  54.9292603   2.4652178  76.3010941
  54.8172607   3.1876552  76.9189682  54.7499237   2.8527536  75.4444275
  40.4943352  33.0049744  17.4410610  40.6776848  32.4419785  18.1931572
  41.3569794  33.2880402  17.1378269  26.5292301  16.9547768  73.3137131
  25.8568096  16.7626591  72.6601334  26.8950138  17.7961884  73.0408401
  62.3112984  17.4747982  88.1317978  61.7051277  18.1792202  87.9024887
  61.7799988  16.6795292  88.0930405  47.7779961  37.6931648   7.9751906
  48.4964561  37.8238564   7.3563499  48.2020340  37.6697884   8.8330231
  25.5611935  49.5357285  79.3847733  24.7025299  49.6194687  78.9701462
  25.6797161  48.5931435  79.5018921  32.5406990  61.5277939   1.0801886
  31.5920696  61.6055756   0.9787780  32.8696556  61.4275932   0.1868912
  19.6067104  69.4078217   0.1301980  20.4208584  69.7896805  -0.1977850
  19.2665939  70.0593262   0.7434645  16.0107689   3.1308219  39.7733536
  15.8199892   2.4198442  40.3851891  16.9267921   3.3520145  39.9413109
   7.2535391  58.8920555  46.1501198   7.3132358  58.0005989  46.4935951
   6.3921733  59.2001076  46.4318733   6.2521896  41.0052452  62.5922012
   5.9551258  40.5373611  61.8117714   5.8964391  41.8882141  62.4920158
  31.7453709  49.6551857   6.1594138  32.6011772  49.8490944   6.5418048
  31.2960262  49.1379280   6.8278213   3.2950802  40.3779678  30.5756569
   3.2953663  40.7763557  31.4460125   4.2216053  40.2935028  30.3506050
  58.5815506  62.7381859  27.3059292  59.3374748  62.1638908  27.1834488
  57.9328346  62.4170876  26.6795940  50.4795189  52.7669945  55.5225716
  49.8457298  53.2802048  56.0237312  51.0640564  53.4192429  55.1364098
  10.4560337  63.3610573  66.4296570   9.8032494  62.8005600  66.0101929
   9.9743986  64.1535187  66.6668472  66.4003601  13.0724325  41.1298065
  65.6507111  12.9469681  41.7116318  67.1585312  12.8255835  41.6593971
  65.5808792  27.8795738  66.9288559  65.7742538  28.3801308  67.7215042
  66.0722046  27.0648804  67.0342407  34.3148041  12.8814306  64.1812210
  33.8669891  12.0364590  64.2226486  35.0886078  12.7697353  64.7334747
  34.2064972  34.7302055  20.1251869  35.1219254  34.9311867  20.3196831
  33.9151840  34.1991234  20.8663483   7.8465786  69.1246109   7.1907382
   7.1295466  69.5289307   7.6792240   7.6053762  69.2402115   6.2716684
  18.2283173  31.6638412  76.8566666  19.0035610  31.4561615  77.3782959
  17.5790653  31.0128155  77.1228790  80.3308411  69.8652115  69.1643448
  81.2874985  69.8331375  69.1613617  80.1163025  70.5557938  69.7914810
  15.0408096  30.0222778  34.0464935  14.1226568  30.0311565  33.7760315
  15.2757196  30.9467010  34.1270447  20.4460888   8.0724010  43.4817276
  20.4955273   7.1375690  43.6814194  21.3473816   8.3834076  43.5664597
  19.4430065   4.4103012   0.7430559  19.1460056   5.0004177   0.0503906
  19.9016151   3.7091858   0.2800813  23.9409027  56.1529465  28.4850464
  23.7078991  57.0329895  28.1892967  24.2043934  55.6941261  27.6873684
  14.9104385  58.9584198  15.2566071  14.2812691  58.2378387  15.2228470
  15.5884056  58.6563034  15.8610220   6.3592467  39.3072395  83.9881363
   5.5486088  39.1105804  83.5186462   6.1079235  39.9677734  84.6337128
  10.3402519  34.0782776  35.8071442  11.1563339  33.6141510  35.9937630
   9.7590103  33.4067192  35.4502182  46.2521133  44.7312889  84.8539276
  45.6700935  45.4888725  84.9135284  45.7388992  44.0710220  84.3882065
  14.3564882  60.4969902  40.2128181  13.8297520  60.2388382  40.9692192
  14.9921055  59.7886314  40.1105957  71.3965302  70.9001541  18.6221294
  71.9240952  70.8707275  17.8239822  72.0377350  70.9141617  19.3326836
  64.7884827  50.9388809  49.3927956  65.0540848  51.4230881  48.6109848
  64.1843338  50.2714996  49.0674553   7.5351644  14.5554247  79.7069626
   6.7298388  14.5337934  80.2238846   8.1924734  14.9152384  80.3025360
  84.8399048  48.3746109  52.7846375  84.0659790  48.3859787  52.2214775
  85.4591827  48.9628601  52.3525658  72.8257980   5.6288972  31.2570038
  73.7761078   5.6931376  31.1620197  72.6908264   5.4252272  32.1824951
  55.4355621  29.8940315  86.9871063  54.7720375  29.7551174  87.6628799
  56.2293129  30.1175137  87.4731522  68.8332138  21.8531590  15.2819195
  68.2841949  21.2015190  15.7180090  69.7271118  21.6188641  15.5314837
  43.8497581   3.6504550   0.7035831  44.4881248   3.9622066   1.3450873
  44.3728790   3.1811917   0.0536853  70.7476578  29.8006115  66.9695511
  69.8256149  29.8716011  66.7224960  71.1912460  29.5323257  66.1648865
  39.7321472  65.7901535  22.3897343  40.0390930  66.4347916  21.7521973
  39.1415100  65.2241821  21.8926907  83.9796371  42.3917847  12.4708815
  84.2229767  41.4826813  12.2961044  84.2547607  42.5437889  13.3750029
  86.4513092  53.6121635   6.6854596  85.5049744  53.7379417   6.6156893
  86.6365967  53.7020264   7.6202459  66.5447540  23.3578358   0.7712748
  67.4938049  23.2363644   0.7990507  66.2559891  23.1943893   1.6691235
  62.0172997  57.0070534  21.7645054  62.9560165  57.1701431  21.6725960
  61.6301727  57.8782120  21.8508148   6.1476822  25.6782722  19.2208118
   5.5243111  26.3241043  18.8883343   6.7288241  25.5031757  18.4806461
  11.6691160   3.0973008  67.5691071  12.2697897   2.3531053  67.6090622
  12.2383070   3.8588247  67.4580536  64.4298325   6.8848958  41.2426643
  64.0592499   7.0752335  42.1044502  63.8810387   6.1814070  40.8960228
  42.3067322  60.0064240  56.8876381  42.2995605  60.3706398  56.0024681
  41.5949478  60.4600830  57.3390694  81.2858505  34.1553116  17.0169468
  80.7715836  33.5130424  17.5060749  80.8248596  34.2462959  16.1830158
  83.0054550  70.1988373  54.8537636  82.7050095  71.1058350  54.9113884
  83.9542694  70.2531128  54.9679527  78.4695358  32.2701263  12.7209101
  77.7380676  32.7159653  13.1480093  78.0830917  31.4764862  12.3507404
  42.9725227  26.5977383  41.5386505  42.0489273  26.6950645  41.7704468
  43.0984192  27.1942883  40.8007431   5.9059596  23.4574013   0.0898534
   5.4126568  22.7081470   0.4237735   6.3779759  23.7923832   0.8522308
  38.3102684  47.8094025  82.5394669  37.7967072  48.1375351  81.8013535
  38.8371887  47.1014824  82.1687393  47.9955673  71.7125015  46.2489357
  47.2115707  71.7062607  45.6998100  48.2159538  70.7879486  46.3623085
   4.9011259  32.7029114  14.8374004   5.2008605  31.9021492  15.2677183
   4.0801582  32.4538002  14.4129133   0.1276308  53.2365379  85.4066467
   0.0211771  53.9277420  86.0601959   0.9236392  53.4761429  84.9320984
   2.1271191   8.0979319  61.4002304   2.2372692   7.5752435  60.6059380
   1.1790377   8.1799135  61.5034370  76.7895660  43.0822144  62.5330696
  76.1295700  42.6935692  61.9589615  76.4356918  42.9697914  63.4153175
  59.4514732   1.0223557  77.9649811  60.2270508   0.6200647  78.3559723
  59.2927361   1.8025855  78.4962769  32.9722557  57.5160332   8.8613062
  33.1315269  56.6738510   8.4351702  33.5722008  57.5243454   9.6071157
  22.5312080  67.2330246  25.1390190  23.1018734  66.5180511  25.4207764
  22.5799007  67.2158737  24.1832123  25.4369030  10.5292749  33.1356964
  25.1923962  10.3193178  32.2343826  26.2943306  10.9479723  33.0599251
  61.4896278  10.6700954  41.1828308  61.1853943   9.8457928  40.8030930
  62.4373856  10.6600399  41.0490837  33.5484047  43.0956993  12.4272289
  34.1735992  43.5390511  11.8538151  34.0907440  42.6836624  13.0997820
  53.5951004  20.9836445  34.1560745  53.6421852  21.2485523  35.0746803
  53.2525101  20.0902195  34.1817055   5.1165552   3.6244016  17.7260380
   4.8143888   2.7335618  17.5490303   5.5329566   3.9026017  16.9102879
  74.7954178  64.2921829  12.0748520  74.6848526  63.6919899  12.8122663
  73.9078979  64.5869980  11.8708382   2.5019753  52.6574211  60.7273827
   2.1006796  51.8563728  60.3904686   2.6331694  53.2038155  59.9524765
  69.9894791  58.1203423  36.1132812  69.9498291  58.9608307  35.6569481
  70.4187622  57.5310669  35.4930382  49.2506638  19.8671455  33.4973869
  48.3847694  19.6124058  33.8160858  49.5907097  19.0796986  33.0725060
  26.0167217  26.1223793  34.0343628  26.3447475  26.9706097  33.7358017
  26.4514141  25.4846916  33.4681206  58.4650536  65.6416168  70.7466507
  58.3211060  66.1136246  71.5668411  59.3894920  65.7872620  70.5455551
   5.3071661  52.4090843  70.3604813   4.6965766  53.0224457  70.7693787
   4.8569474  51.5650253  70.3936310  61.0917511  55.0873489  66.7736435
  61.7864227  54.4647713  66.9882584  60.4701958  54.5815887  66.2500916
  57.6132393  57.1232147  83.6842575  57.6314964  57.4228210  82.7753372
  56.6837959  57.1071320  83.9125214  85.6754684  41.8698082  46.5497360
  86.1649551  42.4250870  45.9428558  85.1859436  42.4850960  47.0956459
  69.7307663  28.2488689  82.0324020  70.4733047  28.4950848  81.4808197
  70.1292191  27.8571777  82.8096085  37.3122673  62.8008537  63.6097221
  36.5827141  63.0158730  64.1908875  38.0947456  62.9845581  64.1295395
  80.0522156  32.4120216  30.8911629  80.5626221  31.6550770  31.1788254
  80.0197067  32.3307381  29.9379749  10.1362429  64.2266388  16.0050335
  11.0338717  63.9137650  15.8927708   9.5909920  63.4630775  15.8155508
  72.7701874  38.1066551  71.4887543  73.5040436  37.7108879  71.9589157
  72.3208313  37.3669739  71.0798721  41.3038063   7.8634315  68.1696701
  41.7207298   8.4839497  67.5718689  40.4513702   8.2533646  68.3634186
   7.2163520  57.6964111  58.7354240   8.1245508  57.6133461  58.4447212
   7.2235670  57.3772354  59.6378136  24.3219204  59.9197121  76.1522675
  23.5915222  59.3637314  76.4236221  24.1251621  60.1469994  75.2434998
  75.2985229  11.7940178  22.6053276  76.0819702  11.2488852  22.6779346
  75.6276016  12.6517086  22.3364334  23.7470360  61.7831383  53.8595886
  23.5656548  60.8509407  53.7398567  24.1087074  62.0665550  53.0198860
  12.1292315  45.7965660  32.7152519  12.1880360  45.4578857  31.8219032
  11.2073545  46.0308762  32.8223686   3.8268905  37.0247345  35.0216675
   4.6862888  36.6034737  35.0359955   3.2954168  36.4654503  34.4551277
  55.3348198  37.1513062  44.0126190  54.8840218  36.3183975  44.1514626
  55.7260971  37.0697975  43.1428528  63.7231445  53.5985298  44.4582405
  64.6783905  53.5799103  44.3999825  63.4509354  54.1764526  43.7453995
  53.4614983   5.1627440  64.2400208  53.4950371   5.5921865  65.0948181
  52.7146072   4.5671401  64.3003464  32.0535545   6.8269844   9.8730402
  31.1811981   6.5156665   9.6315689  31.9657993   7.7793713   9.9116344
  53.4162407  13.8247433   5.9233146  53.8827629  13.2149839   6.4949646
  53.6918411  14.6914425   6.2218246   7.5595126  36.0087242   0.1550901
   6.7664347  35.5137787   0.3607326   8.0785875  35.4148560  -0.3872352
  78.1622620  68.1207733  31.9447460  78.8039322  67.8482590  32.6006622
  78.1895142  67.4307709  31.2818851  83.7072067  60.1887245  22.0282402
  84.4764709  60.4964447  21.5488949  83.9632721  60.2382088  22.9492245
  69.1523743  20.9282379  28.8588829  69.2188568  20.0103951  29.1222763
  69.7779999  21.3847580  29.4213867  18.8451977  50.5524254  32.9552841
  19.5293751  51.1310539  32.6186447  18.6600037  50.8859444  33.8331795
  49.6133690  51.0774078  69.2807617  48.7646904  50.6471634  69.3849869
  49.7094040  51.1917915  68.3352814  31.1852665  67.8277740  79.4848099
  31.2356110  67.0304108  78.9576340  30.8990726  68.5035324  78.8702545
  79.2247620  30.2607288  54.1431847  79.7691803  29.9197350  53.4335594
  79.3449402  31.2094841  54.1025543  59.3923340  43.8537636   7.3969698
  58.8086090  44.6034966   7.5127139  60.1426697  44.2060623   6.9183102
  46.4751625  21.6385098  70.5549774  47.3295288  21.2069340  70.5490799
  46.6600761  22.5394096  70.2896118   8.0160942  20.7774162   1.2882701
   8.0469751  20.0172577   1.8691636   8.1715393  21.5257168   1.8645648
  24.9186440  54.3636322   7.4524660  24.0068378  54.0834007   7.3730040
  24.9370079  54.8965988   8.2473507  81.0339508  38.1606293  23.5591526
  81.6416550  37.4383659  23.7181034  81.5961151  38.9286346  23.4573154
   4.6414318  54.0432205  33.3799210   4.6651206  54.9709930  33.6142387
   3.7119389  53.8152924  33.3979378  85.6552429  39.9294357  12.7389793
  85.4806900  39.0737000  13.1307478  86.2540741  39.7440300  12.0156136
  17.9859009  63.0408440  12.8546915  17.1817665  63.5069580  12.6259212
  17.7068710  62.1358261  12.9936810  20.5226288   7.1549649  83.0050278
  19.9990673   7.0731864  82.2078934  19.9403629   6.8603048  83.7052994
  18.9295006  15.2982016   9.8874512  18.3279800  16.0374374   9.9765339
  19.0641518  15.2113581   8.9437561   7.3223696  20.9093437  87.9071808
   6.4689393  21.2650433  88.1548996   7.7870493  20.8017483  88.7370758
  21.0695190  63.7426414  75.4592819  21.8690948  63.4391594  75.8891830
  20.5825825  64.1928864  76.1495056  28.7538795  66.6389160  57.5985947
  29.1179466  66.1303558  56.8739853  29.3878956  67.3419266  57.7401390
  18.8989716  42.3539162  74.4823914  18.9735985  42.9661102  73.7503510
  18.8654022  41.4906578  74.0702133  71.6097565  22.2587414   5.7103872
  71.6522903  21.4588013   6.2343307  71.0260925  22.0387497   4.9843230
  78.8193054  20.4170322  85.0851135  79.4321289  19.6818027  85.0744553
  79.3350830  21.1631966  84.7794266  68.5517044  51.4105415  21.5500679
  67.6937332  51.7830429  21.7534466  68.7160187  51.6687241  20.6431084
  25.1410980  34.7548523  57.3375397  25.1204643  33.9170532  56.8750496
  24.3252144  34.7724342  57.8377991  16.9258251  56.9042397  67.7859573
  17.3926525  56.3420410  67.1677094  17.1312695  57.7949486  67.5019455
  62.3552475  42.7310219  66.8915482  61.5477066  42.3933754  67.2789841
  62.7850189  43.2016373  67.6057281   9.2511969  62.9326591  30.1024590
   8.3280373  62.9641609  29.8514309   9.2391872  62.6987190  31.0305519
  24.4757786  47.4146881  16.8349495  25.3041687  47.0771523  17.1756401
  24.7311592  48.0058098  16.1267204  38.2343559  44.6763611   3.3774750
  38.7051048  43.8660278   3.1825604  37.3096390  44.4353867   3.3221648
  26.6985626  16.4968472  56.3718224  26.6875153  17.4244385  56.6077957
  26.0709248  16.4251595  55.6526794  44.8845520  59.1887169  23.9370079
  44.5774803  60.0876884  24.0544090  44.5264587  58.7134590  24.6867619
  21.7206783  70.3556519  62.0878716  21.6379280  69.4730072  61.7268677
  21.2623844  70.9149017  61.4606323  44.4279404  64.7461929   8.2212391
  44.5720062  64.3324661   7.3701792  43.5091743  64.5677185   8.4218588
  20.2653599  28.6385326  87.7469788  20.4862614  29.2669697  88.4343643
  19.3362541  28.7899685  87.5735855  16.2490025  24.1101208   2.1720078
  15.5451450  23.5032654   2.4012296  16.6781979  24.3048000   3.0051482
  73.6956329  57.1683044  45.8405914  73.1688766  57.8460922  46.2641144
  73.6793671  56.4339256  46.4543190  50.3909607   9.7405653  49.3493271
  51.3121567   9.9933453  49.2882538  50.0920601  10.1222744  50.1746674
  65.5623016   4.1011543  35.5618439  65.6120605   4.7177415  36.2923088
  65.7752228   4.6261687  34.7903175  56.2566910  16.0615940  20.0367603
  55.8003998  16.6259537  20.6608829  57.1853485  16.2315063  20.1947193
  28.4016609  64.9334869   7.7721729  28.8854008  64.1151962   7.6598034
  27.4809246  64.6741180   7.7374597  24.5102730  55.2591782  86.6247482
  25.2263336  54.6283112  86.5505981  23.7696381  54.8325844  86.1938095
  44.8159485  13.9315128  10.5275955  45.5954132  13.3969326  10.6789017
  45.0963097  14.8251219  10.7253160  50.9374084   4.1022472  48.7345963
  51.2517471   4.0208788  49.6350403  51.1340599   5.0073743  48.4931297
  35.3037186   1.9358538  27.6760178  36.0973549   1.4329041  27.8588295
  35.6226768   2.7980294  27.4092731  75.6440887  24.6323490  69.2508240
  76.3737259  25.0733662  68.8156586  74.9587936  25.2985344  69.3037872
  13.7412939  44.9468536  41.0567894  14.5214119  44.5569153  40.6623306
  13.7843466  44.6893501  41.9776955  74.3850784   4.6056223  15.3669615
  73.8601685   5.4039855  15.3093681  73.7921906   3.9084191  15.0865555
  81.6302567  70.7544250  22.3930626  81.4150772  70.9049683  21.4725933
  82.4989090  70.3528061  22.3733788  75.8465729   6.8751936   1.8101215
  76.3568039   6.2919765   1.2481960  76.2890854   6.8383932   2.6580994
  85.8180237  69.9861603  58.3245163  85.3236465  69.9582596  59.1436920
  86.0472412  69.0729904  58.1518745  64.4200821  49.1043854  62.5708923
  64.6321716  50.0020218  62.3149605  64.1195145  48.6894684  61.7623558
  27.7857819  11.0071077  79.6019897  28.1636257  10.1977148  79.9460144
  28.2822971  11.1823845  78.8026276  73.5984955  42.3244820  80.0382004
  74.2962341  42.1782112  80.6769409  73.0979691  43.0586510  80.3941574
  40.1000786  11.6171675  13.3741322  40.6386909  11.1707020  12.7208347
  39.4693527  12.1215801  12.8603401  11.8081827  69.6112442  57.2460518
  12.2794628  70.1962509  57.8392601  11.8451529  70.0509109  56.3966103
  26.2036705  59.3252792  29.5973740  26.7403946  58.7845573  29.0179100
  26.8231373  59.6818924  30.2340221  11.3272982  45.8203773  43.7118759
  12.0712967  45.6017036  44.2730179  10.6391029  45.2107048  43.9781799
  75.6531601  61.0331116  10.2099466  74.8626633  61.4119720  10.5944014
  76.2782516  61.7575874  10.1849737  62.7308464  60.1317329  66.5520935
  63.2920876  60.5917244  67.1763077  62.3153610  59.4405518  67.0677185
   4.3853493  11.0906305  24.1789436   4.0617700  11.7215214  24.8219872
   4.7202740  11.6295204  23.4622478  86.5145111   8.0371361  77.8835144
  86.9476471   7.3858924  78.4353409  86.7762299   7.8076863  76.9918442
  46.7505646  12.2918072  38.1142654  46.3858681  12.6518297  38.9227295
  47.6668816  12.5684834  38.1208267  27.4190979   0.6975071  -0.3078184
  28.2562408   0.7982728   0.1452475  26.7618084   0.7725040   0.3839748
  42.5889854   8.2417545  71.3469238  42.2725487   8.2290115  70.4436340
  42.7735863   7.3245192  71.5490036  70.1885452  61.8034592  82.7836761
  70.5340118  61.7734070  83.6758499  70.6834564  61.1331749  82.3124924
  19.3247185  14.4556046  22.2498112  19.3954697  13.5098190  22.3791027
  19.1793404  14.5585651  21.3093338   8.3580589  58.9355736  43.6692047
   9.0853062  59.5437355  43.8014297   7.8751488  58.9564438  44.4953995
  48.4865875  50.4055290  48.1375275  48.3656387  51.1619339  47.5635490
  49.3636475  50.5202751  48.5033569  37.1701736  70.0435562  73.6958466
  37.8444786  69.4224930  73.9712067  36.3742332  69.7429886  74.1344452
  17.6866817  17.9679070  81.2414322  18.0516453  18.2316132  80.3967514
  17.8492432  18.7156219  81.8165207  50.7984581  28.3524609  19.2636242
  51.2121773  29.1787014  19.0138435  49.8668289  28.4895458  19.0918427
  32.4607124  49.4872513  13.3630056  33.0204964  48.7802620  13.0420094
  32.9207306  49.8273277  14.1304436  78.5176239  66.9861298  38.7219315
  79.0838928  67.7061920  38.4442749  79.1057053  66.3779297  39.1696930
  85.7892151  60.7728653  20.4036102  86.5949860  60.3606873  20.0920391
  86.0476608  61.6678085  20.6238785  21.3530426  69.1129074  14.1821299
  21.1350956  68.8199005  13.2973261  20.5760193  68.9056473  14.7012730
  43.0403900  54.4858665  64.7905502  43.9904022  54.5322762  64.8980560
  42.6901512  54.9398270  65.5570221  74.7125473  51.6380196  12.8133516
  73.7925491  51.4537125  13.0027237  75.1937485  51.2034035  13.5174732
  51.0589294  37.5735512  22.9864998  51.2604599  38.3514519  22.4664154
  50.6275482  36.9797745  22.3720341  24.6180325  30.6457367  20.0040779
  24.2645988  29.9206352  19.4887676  24.5773792  31.3997688  19.4158478
  17.5098801  18.8373070  85.2126694  17.4865627  18.2227135  85.9461288
  16.6061821  18.8700943  84.8988342  73.2177963  66.9942551  74.7325439
  72.7571640  66.7989807  75.5485916  72.5517349  66.8960571  74.0521393
  23.3259850  57.9186096   6.5898008  23.5972633  58.3429604   7.4037828
  24.1412029  57.5992355   6.2029552  44.3294678  15.6797380  16.5101891
  44.5106201  14.8986759  15.9873514  44.6621475  15.4667778  17.3820858
  65.3994675  35.8587723  54.0226364  66.1143341  35.6054230  53.4386711
  65.3104095  35.1212006  54.6262016  40.9570007  63.7454491  80.8997192
  41.3945503  63.1554222  80.2860031  41.6260986  63.9511185  81.5525894
  75.6866074  29.9670258  73.4776001  76.1624069  29.9896030  74.3078613
  75.8864212  29.1059494  73.1103745  17.2304668  49.9112320  78.4051208
  17.6309910  50.3339005  77.6454086  16.5441074  50.5179825  78.6826096
   7.7832103  19.6791954  71.7863617   8.5787477  19.2216434  72.0583878
   7.2901311  19.8049488  72.5970993  68.9085388   9.5307217  75.3614578
  68.1069336  10.0426884  75.2539597  68.9621811   9.3645067  76.3025894
  62.2558594  66.0909271  67.4053116  62.7460556  65.9396133  66.5971985
  62.6526451  66.8760223  67.7826920  40.7975235  64.8602371  74.4849777
  40.3684998  64.7410736  73.6376495  41.7188454  65.0040512  74.2688293
  84.0198975  19.2487049  24.8909702  83.3516312  18.8012714  25.4100647
  84.4762344  18.5447712  24.4300289  66.2041855  20.1986828  23.4150505
  66.4486847  19.2758827  23.4850006  66.2708588  20.3939362  22.4803505
  45.9812050  54.4026680  27.0730324  45.2708969  53.8498306  27.3986988
  46.5706329  53.7960587  26.6248894  67.6919632  10.8023949  34.0494881
  67.2744522  11.0059376  33.2125397  67.0833359  11.1366596  34.7083244
  49.8663292  19.3961010  26.9902878  49.2676735  19.8646851  27.5718994
  49.4922218  19.5128365  26.1169891  13.3348665  16.4520893  27.9713802
  13.0636911  17.3256645  28.2534504  13.4666510  15.9674482  28.7862339
  15.4524059  55.6682777  38.0312614  14.8131361  55.8020477  37.3314934
  15.2016907  56.2969666  38.7081070   9.7812634  41.9830742  33.9416733
   8.9107275  41.9318047  33.5469971  10.0128174  41.0735893  34.1299591
  11.6182442  29.9667606  71.2584076  11.3732290  29.8454685  70.3410797
  11.3397617  29.1588001  71.6895447  20.2835884  53.8676949  49.5814209
  19.3622952  53.7299690  49.3612366  20.3614349  53.5650864  50.4861870
  70.2504425  46.5398750  70.8874207  69.7714462  47.3224220  70.6146240
  69.7384720  46.1872673  71.6152878  34.5334053   7.4133964  78.6202698
  33.8871117   6.8089046  78.9851379  35.1711082   6.8479056  78.1846237
  73.0016708  13.0442162  33.5968628  73.8749771  12.7766418  33.8831749
  73.0927200  13.1907463  32.6553383  87.0615463  20.8961487  52.5998039
  86.6951370  21.2310905  53.4182129  86.3172379  20.4960423  52.1501884
  51.2422333   3.3760991  64.4993896  50.4382324   3.8950500  64.5218582
  51.4473572   3.2122631  65.4198837  15.5610580  44.0043106  25.6968575
  16.0158825  43.9152679  24.8593388  16.1851883  44.4608650  26.2609959
  52.2874374  65.6359406  78.4762039  53.2122078  65.8519363  78.3563004
  51.8741455  66.4693069  78.7018814  71.1298370  69.4894257  83.8037949
  70.7493362  70.2360458  84.2664185  71.5821762  68.9911270  84.4844666
   3.3009264  61.8591843  30.1592083   2.5270677  61.8327370  30.7219467
   3.8892477  62.4792938  30.5899906  74.2819977  64.6872635  41.9384193
  74.7157059  65.2252350  41.2760658  73.4163742  65.0831909  42.0393105
  28.3463955   5.9677134  57.5649872  27.5240993   5.7024460  57.9769249
  28.0903873   6.6321211  56.9252586  26.4401188  53.0344162  28.8622627
  25.8313656  53.3151436  29.5455227  26.8723202  52.2629776  29.2287502
  57.6680565  14.2577677  79.1397552  58.2679558  13.9583817  78.4565887
  57.8766937  13.7118082  79.8978043  50.4490128  25.3787251  78.4490433
  50.5188370  26.3001728  78.1994629  50.9551773  24.9115372  77.7843857
  36.9322243   9.4224358  55.4212914  36.9938316  10.3026505  55.7923164
  37.2792168   9.5118284  54.5336914  13.0017233  10.2475109  17.2549953
  13.7727137  10.6596985  16.8652439  13.3321085   9.4342613  17.6367054
  51.5866737  40.1814804  15.0624495  51.4623146  39.2954521  15.4026279
  51.7532005  40.7151642  15.8394175  26.4407005  51.5237427  37.8561897
  26.7243557  52.0863304  37.1355896  26.3948536  50.6479759  37.4725685
   2.3691709  24.1957283  28.3234940   2.5366247  23.5844345  27.6061993
   1.6128472  24.7051258  28.0324268  45.6991692  41.8815041   7.5902176
  45.0246964  41.2148514   7.4602394  45.4228554  42.3515701   8.3769312
  13.3085871   7.8235574  21.4179192  13.0245953   7.6041279  20.5305462
  12.8269596   7.2170248  21.9804001  83.3963470  20.0171471  13.2589769
  82.6602707  19.8785915  13.8549910  83.6039963  19.1434536  12.9276600
  13.6232109  10.4749031  46.2844391  13.7342472   9.5260792  46.3447380
  14.1913643  10.7369804  45.5600433   2.5277374  71.1530075  63.4050827
   3.2895987  71.1814499  62.8263016   2.5406027  70.2701645  63.7747459
  35.8075790  11.4343910  28.9527988  35.5895271  12.3434391  28.7470875
  35.7686424  11.3890371  29.9081306   8.1778860  58.2212257   0.4889191
   8.3454990  58.0060844  -0.4286057   8.9831123  57.9743462   0.9437745
  75.9468536  36.7110977  43.2915993  75.4314804  37.4848366  43.0636597
  76.7688217  37.0629654  43.6333389  67.2499161   5.6852059  61.1143990
  67.2323914   4.9059062  61.6699295  66.5668030   6.2511196  61.4740295
  73.7573471  29.3080750  53.2696190  74.7020721  29.4337349  53.3586693
  73.3956528  29.6132259  54.1016617   1.5738168  41.1086464  22.7710934
   2.2059815  41.5050964  23.3706150   0.7706271  41.6125031  22.9024200
  13.6665764  16.3813820  87.5613708  14.6155405  16.4643860  87.4675140
  13.3352518  16.3919125  86.6634064  64.1664505  17.5252247  72.0935669
  64.1525497  18.3188915  72.6284790  63.5508919  16.9337540  72.5265579
  29.7511063  50.9386482  23.0273628  30.3302269  50.6634560  22.3166447
  28.9785328  50.3809013  22.9363766  58.9902115  66.4262238  53.2901039
  58.2274818  66.1654892  53.8063316  59.5477829  65.6482925  53.2769051
  85.3280411  13.8344622  73.3557434  85.9166641  13.0850286  73.2656860
  85.8531876  14.5859108  73.0804596  62.6921577  68.6640625  17.0367832
  63.2703743  69.1495132  17.6251945  62.2000275  69.3410110  16.5722618
   2.1021075  16.3307190  66.6385574   3.0069354  16.1468353  66.8909531
   1.7597048  15.4870968  66.3431015   3.3035102  57.2572784  64.3620377
   2.3846946  57.0049248  64.2707825   3.7810681  56.6182861  63.8330231
  36.8340340  16.8155403  24.4741707  36.7637711  17.7512569  24.2851486
  36.2039452  16.6655884  25.1789627  40.1162224  28.3010006  21.2008801
  39.3829956  28.3306236  21.8154774  40.3693542  27.3782578  21.1743221
   2.5168800  14.4408302   5.6367812   1.6250896  14.3598948   5.9749990
   2.4351039  14.2607965   4.7002277  79.0414581  40.9569283  32.3078766
  79.6907806  41.4207420  32.8365440  78.7460632  40.2385635  32.8672752
  68.0181046  48.5610085  69.6266937  68.5309067  48.0724030  68.9828568
  67.3933182  49.0634880  69.1038284  18.4856968  19.1407032  39.7418556
  18.2023640  19.3189201  40.6386223  19.4327068  19.0189915  39.8095970
  61.9087448  55.5066452  54.9628563  62.2348061  55.5011101  55.8627930
  61.5606575  56.3897591  54.8396530  42.3097229  28.7347546  88.1392593
  41.5325203  29.2686844  87.9746170  42.8589439  29.2788639  88.7036438
  78.2321930  71.7893677   0.9830757  78.6187286  71.6258392   1.8433555
  77.3365479  71.4596863   1.0563375  85.1872940  33.4766464  72.5737610
  85.4679489  34.3735352  72.3919449  84.3195419  33.4117279  72.1749802
  43.5763931  50.1151314   2.9776614  43.0809059  50.6771431   3.5733695
  42.9074554  49.6483002   2.4768395  83.9657593   5.4522824  83.2033157
  83.0978012   5.5887499  83.5831223  83.8372116   5.5731025  82.2625122
  36.0432358  41.1424904   2.8900750  35.9185867  42.0269699   3.2341509
  35.1692619  40.7525826   2.9094391  76.1520920   6.3140507  51.5070152
  76.3205872   6.7096701  52.3621941  76.7238388   6.7911344  50.9055786
  15.6330347  56.9446716  79.1430283  15.6320477  56.0482559  78.8073654
  14.8521738  57.3446198  78.7602386  38.1274071  57.2235336   0.3525627
  38.8527451  56.6775475   0.0492205  37.8493500  56.8178139   1.1737264
  65.6984329  14.3513126  31.3373127  65.3732910  14.9553137  32.0049171
  66.1595535  14.9107704  30.7123280  20.2676373  21.6557293  43.6508522
  19.7595444  22.4648724  43.5928841  20.7625389  21.7415352  44.4656792
  67.7529373  43.3841286  18.6015625  67.1688309  42.8786087  19.1668015
  68.1963577  42.7263451  18.0659008  16.7477398  19.3185902  50.8340797
  16.3479595  18.5952702  51.3170052  16.9405956  18.9526367  49.9708786
  55.9123650  38.4326363  12.1856098  56.4040451  38.5595894  11.3742123
  56.5546646  38.5784225  12.8801813  43.7479019  63.0217323  50.9583054
  42.8662605  63.0100594  50.5857391  43.6092796  62.9624481  51.9035568
  76.7805710  43.1939583  36.9624367  76.4720001  42.3096848  36.7647705
  76.9114151  43.1956062  37.9106483  51.6854134  15.1738939  36.9750328
  51.4904099  16.0145550  36.5609093  52.5620079  14.9504080  36.6621895
  77.4678726  13.9901695  13.1634750  77.2686081  14.3886728  12.3162909
  78.4019089  13.7858210  13.1182785  20.2811947  62.2495651  28.0453568
  20.9174500  62.7189789  28.5848579  20.3898201  61.3309708  28.2915611
  33.8150139  55.9413948  46.3335457  33.8599548  55.4187889  45.5328598
  33.2846718  55.4162483  46.9328728   5.5534630  34.1475334  47.8418503
   6.3130746  34.2710686  47.2726746   5.2856193  33.2411270  47.6904564
  75.0774918   0.4572197  17.0554619  74.4571762   0.2185684  16.3666325
  74.7344360   0.0355277  17.8433208  39.9213562  54.6697769  25.6247673
  39.9729691  54.2538185  26.4853191  40.7937698  54.5517693  25.2489967
  74.9094315   9.6157255  42.4564133  75.2775650   9.1734037  43.2213058
  74.5311813   8.9106665  41.9310112  72.7911987  22.7712746  47.1561012
  72.6859818  23.6669502  47.4769211  71.9003601  22.4806156  46.9607964
  53.0396156  41.2347832  78.5356750  52.6963234  41.4349785  77.6648636
  53.2691269  40.3063927  78.4950333  59.1144142  12.1717625  28.5854931
  58.1720085  12.0390167  28.4831161  59.3432045  12.8016787  27.9020519
  21.3901367  22.0281849   4.6305609  21.1987114  22.9281635   4.3666959
  20.7024994  21.8118172   5.2602992   1.0844220  49.2726669  87.3206329
   0.7203974  49.9447365  86.7444077   0.3599267  48.6643982  87.4667511
   4.9689326  26.3368511   2.1084614   4.0741563  26.0970631   2.3495166
   4.9612155  27.2936115   2.0804775  58.5005226  70.9017639  62.3252182
  57.7579803  70.9861755  62.9233284  58.6881828  71.7986069  62.0483055
  60.0389862   3.1409531  59.1170578  59.8716850   3.8824046  58.5352554
  60.8369408   3.3812909  59.5879440  66.9916077  55.4651451  77.9801178
  66.9780197  54.5140419  78.0871277  67.6622849  55.6218224  77.3153839
   6.8172235  19.4444370  76.9422913   6.0634694  19.3273792  76.3640289
   7.4849701  19.8468018  76.3869095  19.7299042   2.0785482  69.5716324
  20.5895081   1.6700507  69.6738129  19.1143875   1.4300357  69.9133911
  11.8593378  59.7203407  35.7649803  11.0958538  60.0748138  35.3092728
  11.5501842  58.8989830  36.1471214  43.5227127  47.8678436  17.6537189
  43.2423286  48.1211281  18.5331860  43.1118355  47.0157776  17.5074406
  37.4041748  67.5484619  42.4263802  37.2686958  68.3151703  41.8695717
  36.5601883  67.4132004  42.8572273  56.5669327  66.6684418  13.5565577
  57.3960724  67.1410522  13.6299820  56.1598549  67.0204849  12.7649870
  68.9067154  48.5028229  55.6759186  68.1870499  48.8035011  56.2308121
  69.1303787  47.6385307  56.0211754  44.6154594  27.8172188  86.8443756
  44.2837601  27.2504921  86.1479340  43.8672218  27.9423943  87.4280777
  24.4815369  68.9725266   5.9724212  25.0087738  68.7720795   5.1990690
  23.6328030  68.5668945   5.7953787  45.3629150   8.8376617  14.2531452
  45.3165321   9.5958195  14.8356209  44.7499161   8.2072258  14.6313181
  86.8981857  34.3976555  61.0361443  85.9513245  34.3402901  60.9080582
  87.2542267  34.4904518  60.1524849  82.2327652  56.6400795  68.5460663
  82.9450760  56.0562553  68.2853088  81.8451996  56.9289246  67.7198715
  15.3297491   2.5403309  12.2173309  15.0853167   3.2167180  11.5856781
  15.0774717   2.9031467  13.0664206  30.5948334  58.4109306  10.4807920
  31.2730503  58.0058174   9.9402962  29.9699574  57.7057190  10.6494322
  30.3335552  51.6519623  25.7795601  30.3837738  52.6051292  25.7075672
  29.9094944  51.3724937  24.9682007  15.0900068   8.1012936  37.8759155
  15.1094809   7.6075697  37.0561028  15.2168493   7.4403844  38.5566063
   7.6970639  54.2092743  13.6343393   6.8848772  54.1133690  13.1369600
   7.4290514  54.1242676  14.5493126  18.3545227  -0.0807628   1.2240424
  17.5620651   0.4521752   1.2889851  18.7744350   0.0092020   2.0795033
  59.6392441  47.4043961  55.3565941  59.2849045  46.5993004  55.7340813
  60.5803146  47.3534584  55.5239983  52.8144035  32.6516800  34.5562286
  52.2826233  32.4306908  33.7916298  53.7144966  32.4794273  34.2798424
  15.1313324  26.3160248  51.9129753  16.0593357  26.5142994  51.7875671
  15.1262064  25.4957027  52.4062042  11.4953508  66.9325409  58.1230507
  12.3339186  66.6228790  58.4653130  11.6945877  67.7853012  57.7366142
   9.9207258  57.3069420  57.8478394  10.1383352  57.5978546  58.7334175
  10.5464373  57.7632942  57.2852898  38.7061844  21.2198257  51.6541634
  39.6275558  20.9615116  51.6783028  38.7144127  22.1019859  51.2827377
  74.7838058  38.0154495  55.5126801  74.5727005  37.3686790  56.1859970
  75.1464996  37.5008888  54.7916298  66.8262177  25.8311272  44.6283684
  67.3066101  26.4014187  44.0281792  67.0890808  26.1254749  45.5004311
  82.7458572  66.6511230  41.2818871  83.1784134  67.0667953  40.5360031
  82.4077606  67.3814087  41.8001595  48.2480354  52.8506203  53.6780663
  48.9239883  53.0529633  53.0312500  48.6459312  52.1860504  54.2404366
  47.2665062  42.6526756  36.7238083  46.8214226  43.1942902  37.3755646
  46.9687614  41.7619896  36.9088860   7.2371087  51.1747551  58.9326210
   7.3022599  52.1291466  58.9661407   7.1872735  50.9057198  59.8498802
  12.0016642  49.8496780  75.6027374  11.8589907  50.5296135  74.9442902
  11.7695084  49.0339851  75.1589203  56.0489922  42.2936554  76.1488342
  55.7531242  42.6377678  75.3060532  56.1315384  43.0665436  76.7074585
  32.6467361  29.2197094  20.2372856  33.2814789  29.9312038  20.3215885
  33.0530243  28.6077423  19.6235619   9.3526945  44.4385567  85.1524658
   8.5406075  43.9540062  85.3006439  10.0322275  43.8946114  85.5506973
  23.2537022   6.7073350  75.9227600  23.3244724   5.7580991  75.8218994
  23.3645802   7.0513058  75.0364075  50.5664444  26.2503700  82.5895691
  50.4455452  27.1912670  82.4617920  51.3849983  26.0502281  82.1355362
  27.6591568  61.8315887  43.2452583  28.1853943  61.3254929  42.6262474
  27.1561642  61.1739883  43.7256660  63.2980003  57.3944397  34.9277496
  63.5461235  57.9645042  35.6555519  62.8467712  57.9732285  34.3132324
  52.8193169  25.1441269  13.4350910  52.6739311  25.3065186  12.5030375
  51.9575119  25.2589817  13.8355055  71.6318741  31.4565487  35.5741920
  72.5462494  31.7187347  35.6810379  71.1308517  32.2460823  35.7787476
  63.1349373  53.6541023  51.2055855  63.1236000  52.7387238  50.9259605
  62.2509995  53.8145905  51.5359344  29.9001083  60.5872803  15.1520319
  29.9789124  61.3496552  15.7254467  28.9636650  60.5248985  14.9638481
  21.3327274  23.3772507  37.5039368  21.6977406  23.2634754  36.6264076
  21.7323532  24.1849365  37.8266983  49.9750252  10.3831606  18.3297825
  49.1590233  10.0288210  18.6830845  49.7327690  10.7332478  17.4724712
  12.6492205  45.5659027  17.6648540  13.1329165  45.9650040  18.3880329
  13.3038330  45.4441681  16.9771786  80.5575027  44.9668617  68.0455017
  79.9322891  44.9174309  68.7686234  80.6906738  44.0565109  67.7813797
  70.1331558  47.4922485  78.5862350  70.8296127  46.9319344  78.2438507
  69.3585587  47.2481804  78.0796204  53.3638229   9.2339973  74.4526901
  52.9201164   9.4478998  75.2734222  54.2778511   9.0988455  74.7027206
  76.0738678  31.9323463  70.9690170  76.8491974  31.3893127  71.1111832
  76.1688919  32.2556534  70.0730896  33.9832497  42.6738319  87.8647079
  34.3725815  42.0373611  87.2650833  34.5441513  43.4460220  87.7915955
  76.2330856   6.6378574   4.8016319  76.9872284   7.0648751   5.2080212
  75.4839554   6.9294658   5.3212519  38.9610023  64.0690994  58.8923569
  39.2906876  64.9655685  58.9546776  38.4043007  64.0722275  58.1137009
  34.1115532  41.1323471   6.0350714  34.0715752  40.9431000   5.0976171
  33.7407341  40.3548126   6.4524026  63.1998329  62.3153534  41.3986969
  62.8474350  62.2741051  40.5096817  62.5009117  61.9634132  41.9499550
  29.2004833  22.7584705  25.4915466  29.5779133  21.9206295  25.2235928
  29.9548969  23.2921104  25.7411919  23.7303276  51.8516693  41.0974655
  24.0986176  52.6734467  41.4219322  24.4671497  51.2406807  41.1019974
  70.3270340  65.8995132  68.1770325  70.0736694  65.9709625  67.2567444
  69.4989777  65.9280548  68.6563416  38.6227760  65.8432693  29.9284897
  38.1489525  66.6004181  29.5843277  38.9413223  65.3860550  29.1502132
  11.9762974  44.6379051  30.2611561  12.8435526  44.2588501  30.1182671
  11.3947639  43.8818817  30.3416290  55.1417885  43.1523247  79.4174805
  54.5188675  43.8731003  79.5106735  54.6013947  42.3973160  79.1847305
  18.3610935  21.9381771  79.2238846  18.2521973  22.8386898  78.9181824
  19.2644825  21.8994389  79.5379181  25.1746407  47.6584358  26.7081718
  24.9160881  47.1734352  25.9244900  24.3470783  47.9194374  27.1122169
  36.5187492  23.0944386  18.6869774  35.6544991  23.3782501  18.3890533
  36.6102715  22.2054462  18.3441238  67.5360107  43.0889893  54.7064743
  66.9721146  42.9301567  53.9494896  66.9908829  43.5945892  55.3093300
  25.2308731  25.5583229  11.3648224  25.1216965  24.8996620  12.0507364
  25.5883408  26.3208828  11.8197422  52.1165123   8.2722731  13.3114948
  51.4562912   8.6697350  12.7437239  51.6698380   8.1501904  14.1492338
  39.5378151   6.9884620  27.8936424  38.9983826   7.7790289  27.9093437
  39.3821640   6.6094413  27.0285702   3.7496042  13.3015318  25.9731007
   3.0194726  13.9038439  25.8304100   3.6103306  12.9614544  26.8569450
  52.3162498  32.0726891  66.8292923  52.9070244  32.7390938  66.4784088
  51.4523354  32.3215179  66.5007019  23.6902809  65.9513626   8.1692810
  23.0044575  65.6447296   8.7624569  23.4713898  66.8683701   8.0037327
  59.5566177  63.1161880  54.6930084  58.9891243  63.5012169  55.3607903
  59.7025795  62.2184563  54.9913483  29.5348835  13.4734221   0.0290855
  29.6965771  14.3594894   0.3530771  30.3618698  13.2117891  -0.3757247
  18.4050522  23.8216534  66.4434586  18.2273445  24.7521801  66.5804672
  19.3571873  23.7693768  66.3601608  69.6996155  57.7153130  70.9878998
  70.6416321  57.6567535  70.8285217  69.3021469  57.5758400  70.1283646
  56.0041122  31.7232685  84.1927567  56.6613617  31.0409813  84.0558548
  55.2910614  31.4918175  83.5975952   9.0155239  54.6128769  80.0041428
   8.4427891  53.8465919  79.9722443   9.6694260  54.3956604  80.6685715
  12.9277716  57.5044327   7.4022489  13.3802891  58.0763168   8.0222559
  12.3681927  58.0941544   6.8969445  10.4211521  26.1871910  66.8856277
  10.2481804  27.1096210  66.6973953  11.3401661  26.0626354  66.6487122
  63.2800369   0.9291798  57.5645828  63.8685646   1.5439789  58.0026321
  63.7210464   0.0826951  57.6367493  67.2426682  64.6999283  33.3993721
  67.0268478  65.5756302  33.7200012  67.3766327  64.8155746  32.4586754
  69.1140823  25.0539818  33.1154480  68.1809845  25.0529404  32.9020004
  69.5540390  25.0109501  32.2664375  35.7981529  54.8982315  85.9305344
  35.7518578  54.3466835  85.1495895  34.9395828  55.3187485  85.9780045
   5.7282348  40.9051323  15.8804722   6.5066576  41.4505653  15.7673521
   6.0173512  40.0234375  15.6454163   1.8632257  16.9291019  51.3147736
   1.9559218  15.9764643  51.3037682   2.5179727  17.2261715  51.9466629
  12.9528046  21.8260670  14.7501421  12.3580093  22.5528297  14.9352541
  12.4069586  21.0437431  14.8292112  69.3777924  53.3120537  71.4549255
  69.5775604  52.3955193  71.6454163  70.2257385  53.7033844  71.2449951
  60.2807083  54.6469345  14.5079594  59.7607880  54.5605164  15.3069887
  61.1846008  54.5177498  14.7952166  58.7608452  64.8283920  57.1101379
  59.2678032  65.5879364  57.3970451  58.1819878  64.6344223  57.8473854
  72.6131516  13.6932945  53.4780846  72.6091461  12.8272905  53.8858261
  72.6513596  14.3043022  54.2139091  14.0670443  37.6702728  24.6575165
  14.9396362  37.2906914  24.5539131  13.5801439  37.0176163  25.1607037
  75.5323334  48.4030457  61.6704597  76.0609207  49.0550957  62.1305237
  75.9022446  47.5620651  61.9390640  56.3329964  22.8767853  23.4032001
  56.8280983  23.5070839  22.8799095  56.0067291  22.2407913  22.7665749
  71.9682999  56.4371414  86.3950653  72.3371735  55.7749786  85.8105087
  71.4770508  55.9354248  87.0455856  28.6716309  27.5393524  29.6018505
  29.5903549  27.5936813  29.3387432  28.3302174  28.4228268  29.4634876
  80.3971100   7.2129869  26.8281384  80.8699112   7.6935616  26.1486244
  81.0523300   6.6269979  27.2069969   0.5915506  27.0289707   1.3585608
   0.1698918  26.9987831   2.2173531   1.4054761  27.5099926   1.5081416
  56.7486458  13.3726215  20.5180931  57.3013382  13.5066214  21.2880306
  56.5282631  14.2566824  20.2246647  81.5014267  41.8486137  42.1390877
  81.2643661  40.9699631  42.4357529  82.1557846  42.1463699  42.7710648
  70.6629410  62.7831573   4.1334286  69.8756027  62.4175186   4.5367279
  71.2016068  63.0655251   4.8725724  78.6575775  16.9621792   4.8450336
  79.5129395  17.1044159   5.2504497  78.5196152  17.7362080   4.2990704
  66.1882248  65.2132111   6.4698591  66.6900787  65.8192368   7.0149341
  66.2199173  64.3822632   6.9439425  67.0261154   2.0095787  31.4724274
  67.3537445   2.6154444  30.8077335  67.6749496   2.0510404  32.1749420
  69.1418533  44.5869331  29.4772129  69.4611969  44.3970947  30.3593769
  68.9474945  43.7277145  29.1027851  66.2346191  28.9264526  75.3417664
  65.5481186  29.5934925  75.3391037  66.1478195  28.4968185  76.1927109
  33.4810104  64.7663803  82.9275284  33.0317268  64.0828018  82.4304428
  34.0944099  65.1530075  82.3026352  79.3466110  45.7554626  40.2430000
  79.7695007  46.6086311  40.1455536  78.4180069  45.9294624  40.0891953
  57.7940559  71.1978683  41.8448677  58.1808128  71.0772247  40.9776344
  57.3402138  70.3738098  42.0214653  26.0196686  53.9785423  46.5218163
  26.4913368  54.4631882  47.1992226  25.6543789  53.2213402  46.9794579
  72.9844742  27.1473980  27.8890285  72.4668427  27.9514217  27.9318523
  73.7279205  27.3099670  28.4696236   3.9994941  16.0770073  16.0980091
   4.6346989  16.1015186  15.3823652   4.5176511  16.2492828  16.8841820
  58.3905716  45.6333847  50.1307869  59.1288185  45.8267403  49.5529976
  57.8952255  44.9573097  49.6684227   6.4849133  65.6881714  17.0541916
   7.2553978  65.8825455  16.5205193   5.8204813  65.4107513  16.4234772
   0.4558077  38.7657700  78.2380142   1.1516057  38.9319000  78.8740158
  -0.3370911  38.6801224  78.7673645   9.1066523  62.3510017  13.3089619
   9.7070065  61.6881142  12.9678040   9.3806562  63.1637344  12.8839703
  71.1789474  32.0433426  86.6001663  71.4445496  31.4895878  87.3343658
  71.1531525  31.4498539  85.8496094   2.2329125  28.0508232  33.6077690
   2.0919666  27.1040936  33.5994530   1.4357151  28.4150467  33.2229958
  26.0988884  35.7835464  18.2752132  25.4326267  36.0458641  17.6399841
  25.6083450  35.3411293  18.9679356  74.6236191  66.9375916  70.7819519
  74.6780243  67.8910599  70.7173462  74.0624771  66.6796036  70.0506592
   8.5314894  13.1761189  63.8963737   7.8221908  13.1877632  63.2537308
   8.0994606  12.9741096  64.7263031   1.7453779  53.6575584  45.4976768
   1.8073268  53.2744713  46.3726845   1.9717023  54.5791206  45.6231117
   8.9257126   5.3810019  63.6540642   9.7976999   5.2461505  64.0251236
   8.3861055   4.7008395  64.0570984   1.1472408  63.0316544  37.0330429
   0.2006374  63.0275879  36.8910675   1.4275645  62.1454926  36.8042068
   2.6415539  67.3970184   0.7923674   2.5896387  67.4126129  -0.1632965
   1.7445555  67.2239761   1.0781687  63.4085007  37.0321274  87.7936401
  63.5308800  37.9460869  88.0504074  62.6353989  37.0433350  87.2293549
  13.4640942  70.9688873  17.1319408  13.9677429  71.6219864  16.6461048
  13.5717125  70.1612091  16.6296463  13.3206329  57.1332779  26.3879471
  12.4907904  56.6883087  26.5599785  13.1311436  58.0595894  26.5371895
  52.1954575   5.5523572  45.6287727  52.7836380   4.8481274  45.9014206
  51.7349167   5.1986542  44.8678360  17.6936970  67.8385391   8.3315744
  17.5309772  68.7697296   8.4820595  18.6373615  67.7371521   8.4558601
  86.3038940  55.4346619  57.8727989  86.1886063  54.5335274  58.1742973
  85.4222107  55.8069916  57.8880882  39.4927292  17.5305042  30.1818829
  40.0411911  18.2403793  29.8479691  39.1861610  17.0754662  29.3975430
  33.7666855   8.8099384  75.0369339  32.9669991   8.7580204  75.5604172
  34.4448471   9.0693150  75.6606827  66.8477707  48.2578583  41.4014664
  67.5429306  48.7821045  41.0037956  67.1258850  47.3515320  41.2693481
  26.0279942   7.4402676  88.9751816  25.5501957   6.7854290  88.4661407
  25.7709045   8.2777596  88.5895157  64.5746613   1.7414957  78.0269547
  65.4436646   2.0878129  78.2297668  64.6262436   1.4901267  77.1047897
  76.3414154  58.4669800   0.3992893  76.6493530  58.5029259  -0.5063131
  75.6549606  59.1324768   0.4454464  25.8452168  47.9360046  20.6183605
  26.1915455  47.3645630  19.9329796  24.9086285  47.9955215  20.4299717
  55.7380257  64.7915802  41.8543892  55.5882301  65.5525208  41.2933502
  56.5971832  64.4636230  41.5888290  33.1697426  30.9981365  23.3918762
  33.8741951  31.0960178  24.0324974  32.7856636  30.1433506  23.5869541
  83.0623322  39.5600471  52.7861786  82.8846283  40.2031898  52.0998726
  82.7271042  38.7354202  52.4342690  10.5320673   2.4585440  78.2205582
   9.9448214   2.9033687  77.6094055   9.9482603   1.9721084  78.8026047
  82.7997055  27.1683159  12.8509045  83.4313507  27.7558231  13.2657423
  82.7116089  26.4392757  13.4648848  20.8549118  26.8550434  80.9966812
  20.0677032  27.2349873  81.3867798  20.5251312  26.2567463  80.3262177
  27.9978924   5.9899850  72.4610596  27.7516022   6.1265211  71.5462189
  28.5253143   5.1912699  72.4504623  10.5062647  57.8613129  37.5516319
  10.7044706  57.3257179  38.3198051   9.5633192  58.0169868  37.6050262
  13.8109446  59.5606003  42.9402351  14.5599899  58.9972496  43.1346512
  14.0097113  60.3850327  43.3841171  42.8838463  63.7816200  76.7639923
  42.1332893  63.7615471  76.1702805  43.4750137  63.1091652  76.4255295
  23.2928066   0.6037492  44.1401482  22.5628128   1.2087635  44.2716713
  24.0240707   1.0050794  44.6096344  61.8280296  60.4117050  56.2003059
  61.1855621  60.8995094  56.7155838  62.5968742  60.9813194  56.1747627
  20.5570316  38.0671082  50.0645027  20.6181316  38.9846840  50.3301163
  21.4109821  37.8721237  49.6785202  12.6497183   4.5943651  35.3802757
  11.7880507   4.8254275  35.0333290  12.7345314   3.6569681  35.2061348
  56.3218689  71.1176224   3.2734365  56.1561928  70.2493134   3.6406088
  56.3454742  70.9769135   2.3269298   3.7456207  57.7390022  32.0530968
   4.5939517  57.7310371  32.4963837   3.2050312  57.1327934  32.5595627
  39.3579788  11.2710848  66.3478394  38.8623390  10.8893480  65.6233749
  39.8726120  11.9698734  65.9440002   6.6187253  23.8518581  54.3208542
   6.6291304  24.3059082  53.4782600   6.8971767  22.9593849  54.1154518
  41.5792351  70.1083603  80.7203369  41.2361832  69.2194595  80.6286469
  42.3462868  70.1292725  80.1481323  26.6602230  41.9613724  18.1514168
  27.5256252  42.3430710  18.2984371  26.3009491  42.4583740  17.4164734
  82.0559921  64.3011551  35.6813469  81.1646805  64.4129486  35.3507385
  82.3418579  65.1871948  35.9037094  29.9653587   1.4682629  53.8545723
  29.4727840   0.7367932  54.2267990  29.5395412   1.6411563  53.0149193
   9.5223627  16.1593571  22.8680630   9.9492807  15.3267946  23.0700874
   9.6935472  16.2964115  21.9363194  81.3839035  18.0072536   5.6483045
  82.3264694  18.1705704   5.6817288  81.3008499  17.0601234   5.7591090
  51.4695663  36.9125595  78.9720764  50.7556076  36.8368225  78.3390121
  51.9974289  36.1262779  78.8329697  84.9029312   9.8247786   2.5512917
  85.6779099  10.3431969   2.7678084  85.1574936   8.9220982   2.7425921
  45.4358063  64.8915329  15.4641304  44.7567444  64.7134476  14.8134441
  45.7414093  65.7744141  15.2559080  70.2404327  22.6689339  47.3353539
  69.3806534  22.6894875  46.9151230  70.0686874  22.9148769  48.2443352
  55.2924194  27.6935673  29.4826813  55.8830223  28.4422283  29.5658836
  55.8175659  27.0213165  29.0484772  78.0559616  67.5747223  27.7770901
  77.8737335  66.6693878  27.5253067  78.5417252  67.5017014  28.5986309
  12.7008686  66.0699997  79.4056854  11.8061647  66.3953018  79.3061066
  12.5992994  65.1283875  79.5445557  38.1401672  12.9332705  12.2520428
  37.3087692  12.5267611  12.0075951  38.3607788  13.4935064  11.5079336
  15.3853912  37.8183060  15.7237549  16.2862415  37.5735550  15.9354029
  15.2071085  38.5780869  16.2779942  54.7096214  26.3631516  76.0859680
  55.3827744  25.8929176  75.5940628  55.2000427  26.9329948  76.6784210
  37.9628372  13.6908121  42.5119286  37.5159760  12.9294834  42.8819656
  38.1242676  13.4533787  41.5988045  -0.2570662  10.0021925  85.9888916
  -0.0363629  10.8207827  85.5445557   0.5726954   9.5281372  86.0436554
  14.9415150  51.5548592   7.9988809  14.2092676  52.0712814   8.3355627
  15.5201921  52.1982193   7.5896749   0.6516435  58.4488297  17.0104923
   0.0031440  59.1461830  17.1073322   0.1619220  57.7166862  16.6358318
  11.0349016  61.7130623  27.7376747  11.8440828  61.3108826  28.0534420
  10.3408766  61.1338120  28.0523643   5.3157706  46.4247856  25.4265804
   5.4404454  47.1903419  24.8656769   4.3662338  46.3122063  25.4706001
  27.7588787   9.6415176  68.6833878  27.6812611  10.0402088  67.8166428
  26.8965607   9.7626572  69.0808411  81.6484985   4.0582070  75.7482986
  82.5358124   3.7417712  75.5786514  81.1176071   3.6655779  75.0553207
  15.6580353  17.0610275  60.1664619  16.4176178  16.5192814  59.9525108
  14.9530678  16.7108860  59.6218033  40.0693817  37.4592896  15.4375887
  39.9461403  37.6527672  14.5082827  40.3991585  38.2767448  15.8107452
  22.9723911  22.9692326  19.0756969  22.0294743  23.1223030  19.0147991
  23.0587730  22.2546234  19.7066517  25.7786961  26.5620232   1.6666427
  24.8285103  26.4466743   1.6752501  26.1178761  25.7892761   2.1183629
  78.9782944  47.0837326  23.8716106  78.3924255  46.3406410  24.0158405
  78.4962997  47.8380623  24.2105789   4.3305564  48.2426414  43.1063385
   4.5680881  49.0476036  42.6460686   3.4655051  48.0173721  42.7640381
  27.5222988  49.0693626  26.1172199  26.8409786  48.4555359  26.3915462
  27.2819614  49.3097153  25.2224026  43.3747215   5.7958832  64.7752075
  42.5197144   6.2053452  64.9076233  43.2996407   4.9416556  65.2005157
  72.6213989   3.5953813  48.6287460  72.7972107   2.8268075  49.1715317
  73.3972702   4.1458883  48.7345619   1.3686095  26.9557037  82.9824524
   0.9159831  27.7080173  83.3637466   1.0302378  26.2022152  83.4661789
  42.8492012  45.2519035   0.5214621  43.1417961  46.1631966   0.5087504
  41.8963165  45.3052483   0.4480124   4.3745046  10.8295364  32.7957687
   3.8901584  11.3911018  33.4009819   4.0262675   9.9518423  32.9526596
  36.9420624  14.1816978  30.0835056  37.8739357  14.1018085  29.8798771
  36.5906677  14.7335329  29.3847713  82.0860367  57.1458664  47.1970139
  82.8508148  57.0530968  47.7651215  82.4464951  57.1590881  46.3103790
  74.4167404   7.7786760   6.7723117  74.5427704   6.8636618   7.0235052
  74.7124710   8.2787914   7.5330091  15.8290901   3.2287195  51.8602638
  16.0422935   4.1583571  51.7793350  16.6637268   2.7791688  51.7279167
  57.9063148  58.7917099  60.2951965  58.4822731  58.0953789  59.9795570
  57.2635422  58.3410339  60.8428879  69.1157303  61.9140511  20.7830410
  69.9578476  61.5587578  21.0673599  68.7490997  62.3192368  21.5689411
  13.7303791  34.9132462  44.5095062  14.0934067  34.9830246  43.6265717
  14.1565828  34.1420479  44.8834496  64.2292252  29.4258194  40.7285347
  64.5256653  29.3045540  41.6305580  63.6676025  28.6698456  40.5573120
   4.6156430  14.9230623  67.4119034   4.2610006  14.0848465  67.1155014
   5.2984810  15.1329584  66.7747955  29.2689953  38.9751816  30.0419044
  28.6828041  38.2623940  30.2959595  28.7858467  39.7720642  30.2604847
  39.2792130  62.8526535   8.7510166  38.7104073  63.3888283   9.3034735
  38.6802788  62.4067879   8.1520939   3.4562755  62.0835419  42.6712303
   3.2252066  61.8848877  43.5786324   3.2249668  61.2913818  42.1862488
   5.0659776  71.4177322  61.6316414   5.2392106  71.4990387  60.6937675
   5.8873763  71.0918884  61.9995575  27.9248390  53.5644112  75.3718796
  27.6413136  52.7058640  75.6861115  27.8391209  54.1383629  76.1331024
   2.0107095  47.1472931  74.6536789   2.1195254  46.1985703  74.7194061
   2.2185371  47.3495827  73.7414703  61.8947792  40.9212494  59.4679451
  61.3924561  40.2447052  59.9220238  62.3669281  41.3771858  60.1646729
  73.0682907  59.3824348  55.6371574  72.9284058  59.7982483  56.4878998
  73.0877380  58.4448814  55.8291130  39.7607422  15.7958755   6.5331445
  39.8748627  15.4097185   5.6647606  38.8866119  16.1851807   6.5091581
  73.7138062  54.6034508  21.1764565  73.0289078  55.1819267  20.8410301
  73.5589600  53.7681046  20.7354889   3.5904055  16.0400257  78.4716949
   2.7342787  16.0851917  78.0459747   3.4144163  16.2571907  79.3871765
  13.6075315  16.8235073  56.5300179  13.8708601  16.5518684  57.4092789
  14.3880558  17.2395363  56.1640472  54.4923515  65.9381256  60.4442368
  55.3953781  66.0431976  60.7437973  54.5101471  66.2150192  59.5281334
  25.7794476   6.4211135  12.7112646  26.3446198   6.7049031  11.9927406
  26.3207226   5.8144827  13.2164917  67.4263535   5.1360488  58.3118744
  66.7813644   5.7353182  57.9362373  67.2342606   5.1345243  59.2495995
  34.8119469  63.5237694  64.9845200  34.6062546  62.7689056  65.5359726
  34.1758499  63.4792900  64.2706299   9.1362762  49.9078140  34.2464218
   8.8272295  49.4854202  35.0478592   8.3378086  50.1078224  33.7578735
  83.6356201  17.7810192   3.2144849  83.9475021  18.6140442   2.8608897
  84.0169754  17.1184978   2.6384084  36.6821175  60.9673920  22.2571602
  36.6352005  60.7071457  21.3372135  36.6042595  60.1461411  22.7426662
  51.9703636  57.8280411  27.9017334  51.3861351  57.4104500  28.5346050
  52.4568634  58.4735069  28.4144878  41.8709145  65.5779877  44.0948029
  41.5486679  65.7091370  43.2030678  41.3103828  66.1337967  44.6362000
  39.7734985   3.9756393  17.5982914  39.3903885   4.7801113  17.9479828
  39.4368477   3.2831531  18.1669388  70.4805984  60.3031311  66.8799591
  69.7141724  60.8446693  67.0685196  70.6684113  60.4673576  65.9558411
  75.9582596  30.6084881  63.2458839  75.4617538  31.2327404  63.7750587
  76.8476944  30.6509571  63.5970650  50.1986656  66.4033508  18.6440105
  50.5152016  66.9347610  17.9135075  50.8856316  66.4738770  19.3068314
   8.6048431  56.1577797  29.0418873   8.3704128  56.2733231  29.9627151
   7.9546432  56.6716347  28.5629063   5.7807798  69.1039429  82.6129379
   6.4300756  68.5119019  82.9925842   5.9774771  69.1061935  81.6761703
  25.4594288  10.6771059   4.2351751  24.9765110  11.4993992   4.1523657
  25.4813728  10.3217096   3.3466687  54.2840004  30.2717686  20.9854660
  53.5976067  30.0359516  21.6095562  55.0972481  30.1988888  21.4850140
  79.4866943  38.2835846   8.4210043  79.5446548  38.6518250   9.3026342
  80.3137283  38.5268402   8.0049887  53.6068382  67.9990768  26.6776485
  52.8083534  67.4759827  26.6067333  54.2360725  67.5537872  26.1101875
  59.7799339  24.9510517  24.7822189  60.6614075  24.5830956  24.8441811
  59.8087463  25.5127182  24.0076656  30.4532738  53.4580612  46.1252975
  30.6015759  53.8370628  45.2589302  29.7648315  54.0008698  46.5095329
  13.1407948  28.8195419  21.1671906  12.9818888  28.3412304  21.9809456
  12.2723475  29.1056519  20.8840427  65.0819168  20.4408493  33.5052643
  64.4292755  20.2589855  32.8290825  65.7960739  20.8746624  33.0383453
  86.3846817  41.9287033   3.9013710  86.9180222  42.6904106   4.1284814
  85.6518707  42.2895966   3.4024060  30.6288872  68.5937729  52.6412544
  31.1831112  69.3580780  52.4834518  30.9563217  68.2258377  53.4620132
  24.5585442   5.2534399  64.5212479  24.3020363   5.4022360  65.4313507
  25.4995441   5.0829816  64.5624237  64.4082794  57.9301987  54.8127594
  64.7940903  58.8055038  54.7776871  64.1792221  57.7328453  53.9045677
  76.6324921  61.7335968  48.1589279  76.4373550  60.8329926  48.4178925
  77.5852737  61.7561150  48.0698624  51.7981949  17.4819355  26.8621788
  51.1327248  18.1697083  26.8808575  51.3360939  16.6937332  27.1475430
  54.0233536  18.7008286  15.7760859  54.7012672  18.1067829  15.4539452
  53.2885323  18.5736008  15.1760178  51.6757698  60.0665207   8.4972591
  51.7813530  60.9011383   8.9538784  50.8836594  60.1794815   7.9718680
  73.5951462  15.5038424  75.7670059  72.6598206  15.3007469  75.7791977
  74.0230484  14.6552057  75.6532059  21.1795216  37.1715088  81.2496262
  20.2708721  37.1639366  80.9487381  21.1214600  37.0083618  82.1910324
  65.5428772  37.2455635  51.0403519  64.6579056  37.4418144  50.7328606
  65.8911896  38.0911064  51.3231354  31.6488857  36.4540672  20.4507694
  31.4996014  36.1954041  19.5413513  32.4803009  36.0409775  20.6838799
  60.7252464  47.1544571  23.0805950  60.9528999  46.2369728  22.9301853
  60.1610909  47.1376152  23.8536930  64.5421066  24.4862900   7.5104003
  65.1111450  24.6697922   6.7629032  64.2369003  23.5907898   7.3649297
  61.7006531  10.5344629   2.4874909  61.8894348  10.4788523   1.5507408
  62.3672981  11.1291285   2.8312771  26.1669426  13.6832981  75.8488159
  26.2716064  14.6334705  75.8983078  25.9709301  13.5115824  74.9277725
   6.3734856  44.4929619  78.8214951   5.9604669  45.2400169  79.2545700
   6.6582031  44.8348122  77.9739685  16.6394787   1.0946939  77.8678055
  16.3870735   0.1716828  77.8917694  16.0545006   1.4862043  77.2191544
  28.6236858   2.7287812  19.2469826  29.4954662   2.8428771  19.6254158
  28.7881584   2.4392006  18.3495846  76.5477753  25.9091663  21.2512150
  76.4632111  25.1025543  20.7428265  76.3988342  26.6094475  20.6158772
  21.4524364  28.8861103  76.8105774  21.9220467  29.5302448  76.2806854
  20.8309822  28.4839973  76.2036743   7.6727943  32.4256783   8.5305653
   7.4835887  32.6310806   7.6150088   7.0259237  32.9269142   9.0271025
  29.1909637  29.3431377  82.1562424  29.7383900  30.0733070  81.8674316
  29.1637383  29.4265766  83.1094055  82.2891006  55.0234299   9.0286283
  81.6007462  54.4954453   8.6241188  81.8395920  55.5195618   9.7127533
  60.4941864  38.1019058  21.0545979  61.2277756  37.8142815  20.5111389
  60.3309174  39.0038300  20.7787209  62.0925865  36.6402321  57.3053322
  63.0263100  36.4316826  57.3353462  61.7177544  36.1683540  58.0490150
  53.2750969  55.2443428  32.9565582  53.7814751  54.4352188  32.8849220
  52.3829651  54.9902687  32.7203903  54.2279968  15.9598026  14.8251104
  55.0184669  15.4703550  14.5974503  53.7302551  16.0040855  14.0087013
  51.4577866  36.4449768  30.3448849  52.0121346  36.0905762  29.6496639
  51.1313324  35.6733170  30.8077106   0.5114567   9.9154644  81.9897003
   0.0602008   9.0788755  82.1024780   0.9700034   9.8294983  81.1538925
  58.6525688  39.8166504  79.5634613  58.6369514  40.7412910  79.8104935
  57.7455025  39.5271454  79.6616592   2.5508306  61.3571777  27.5448551
   2.8075843  61.0125847  28.4001713   3.2297857  61.9970436  27.3307915
  55.9603882  39.9555244  51.8962975  55.8773499  39.7112694  52.8180771
  56.3322830  40.8373299  51.9147491  49.9360809  59.0047798  76.0034485
  50.7258759  59.5389481  76.0878143  49.2216873  59.5933380  76.2473145
   5.9952145  27.4776707  58.9363861   5.9410539  26.5353127  59.0953178
   6.8211570  27.5942974  58.4668655  27.1081791  44.3061180  78.7057953
  27.3119869  43.8282280  77.9018631  26.4168530  43.7911339  79.1218414
  66.4851913  69.2152634  19.0594883  65.5336456  69.1157379  19.0893860
  66.6818848  69.8462219  19.7519054  38.0257111   9.3361845  19.2069569
  38.1421547  10.1183882  19.7462444  38.9108543   9.1060915  18.9244518
  63.0710754  55.8746719  14.5556583  63.4688950  56.7160110  14.3317842
  62.5782242  56.0485992  15.3575783  84.0465317  70.9174042  25.3687592
  83.2040634  71.2140274  25.7129803  83.8476486  70.0914764  24.9277096
  37.6894302  14.4298229  14.4077072  38.4558716  14.9722452  14.2217522
  37.7085381  13.7494364  13.7346992  71.9582977  47.0068092  80.9216919
  71.2337341  46.8951912  80.3062363  72.0685349  47.9550018  80.9924545
  58.7500801  49.7401390  27.5413761  58.6306839  50.4442368  26.9040203
  57.9721832  49.7858276  28.0972748   3.5474834  48.6024094  37.8062782
   4.0473747  49.2585297  37.3206367   2.6680427  48.6450996  37.4307861
  52.2157593   3.8308740  28.8755722  53.0784950   3.5729198  29.2001953
  51.8471107   3.0266848  28.5100460  69.9153290   4.1875253  53.4800644
  69.8868561   3.2818029  53.7884254  69.4045639   4.1811008  52.6705513
  21.0779285  26.0512791  21.5993404  21.9431381  25.7416325  21.8672295
  21.1426125  26.1506729  20.6495132  78.7205200  68.4127045  83.3455124
  77.9275665  68.4330139  82.8097534  78.6999207  69.2349701  83.8350830
  72.8845749  39.2354431  26.2756310  72.5152206  39.7011261  27.0259266
  72.6350327  39.7651749  25.5184364   0.3434993  10.2455931  21.4929466
  -0.3955980   9.6377802  21.5159740   1.0201744   9.8198929  22.0193710
  28.1289196  45.1314049   5.3687572  28.9420166  45.2554626   4.8791513
  28.0789146  45.8926735   5.9468617  53.7115440  62.6138725  51.0301971
  53.9347687  61.8767204  51.5985413  52.7832375  62.7744064  51.1996346
  36.0800056   5.8833995  16.8738098  35.3560143   5.3553863  17.2103596
  36.6268654   6.0562325  17.6401691  56.9339828   3.4092891  88.6757050
  57.3707657   4.2267470  88.4365082  57.3466911   2.7463441  88.1221619
  34.3267212  43.8757744   6.7179227  35.2384300  43.9140663   7.0069761
  34.1981659  42.9656258   6.4508300  80.2377625  12.4446239   4.4648795
  80.0593262  12.0552864   3.6088369  79.4473495  12.9438686   4.6703877
  15.5006447  55.9629669  61.0827179  15.1335554  56.4301872  61.8331718
  14.9065123  55.2250290  60.9460258  81.7944107   4.7632647  78.4478912
  81.8717651   5.5242200  77.8723984  81.8012238   4.0123730  77.8543015
  77.2919922  48.4768600  35.6123009  77.1269226  47.5546494  35.4160576
  77.7105637  48.4673691  36.4730835  37.2617569  33.0750465  84.6259155
  38.1250153  32.6934853  84.4664459  36.8024292  32.9856911  83.7908859
  15.8381252  58.3404007  74.5719376  16.4728241  58.2387314  75.2812042
  15.3837261  57.4987564  74.5346832   7.5349321  40.7051163  41.4550743
   7.6876283  39.7701988  41.5923500   8.0693016  41.1356010  42.1224289
  37.3989677  58.8124619  28.5152493  37.5529213  58.1321259  27.8597565
  38.0267639  58.6203728  29.2118168  81.3216324  12.6295443  35.8948936
  81.4645462  11.9275675  35.2600403  80.4929428  13.0279894  35.6288986
  63.4225006  23.0895748  76.7825241  62.5857162  22.6605663  76.6037064
  63.8708229  23.1019878  75.9368973  14.2770529  52.8333473  28.4528179
  14.6136427  53.1728287  27.6235466  13.5734472  53.4370918  28.6908512
   9.7247667  33.0666161  66.6889114   8.7823238  33.0428848  66.5231705
   9.8237114  32.6902428  67.5634308  19.1743832   0.7151177  19.0656033
  20.0840111   0.9776989  19.2065220  19.0939522   0.6305011  18.1155491
  14.7499027  71.3869934   4.1231647  15.1059246  71.8648682   4.8722425
  15.3648796  70.6667480   3.9843001   7.8785710  66.4675903  46.1113167
   7.2504773  67.1892395  46.0804596   7.7638903  66.0143738  45.2760506
  63.2863884  48.4305344  83.1851578  63.7343254  49.2734680  83.1141357
  62.4406509  48.5721474  82.7598267  15.1243229  16.6603603   8.7666912
  14.3004045  16.1773281   8.7028961  15.1177530  17.2461700   8.0097132
  13.0648556  42.9771004  73.2767334  13.7778873  42.4258499  72.9543381
  13.3187323  43.8661842  73.0291290   4.1065388  52.7886009  86.5479126
   4.1911502  52.6033096  85.6126328   4.8016334  52.2738380  86.9579010
   3.3844442  70.5371933  52.0807381   3.4445345  70.3374481  51.1465416
   3.1694760  69.6997070  52.4913864  51.7549629  45.5653305  54.4098778
  52.6147728  45.2759781  54.1045380  51.4646530  46.1931801  53.7482452
  44.3864975  16.4673252  21.1206589  43.7447205  16.9878845  20.6375751
  44.0092773  15.5880423  21.1488838  66.7859421  35.3534393  64.7117767
  67.6464996  34.9534111  64.8368683  66.8012161  35.6778297  63.8113480
  67.8359833  12.4191866  10.3344631  67.5805664  12.3959694  11.2566652
  67.2537079  11.7899323   9.9087515  30.5813789  66.6417389  88.8325958
  30.0681629  66.5682678  89.6372299  30.7138577  65.7369919  88.5495529
  50.6957779   0.0331068  10.2265377  50.4290314  -0.4442019   9.4408827
  50.9231644   0.9073682   9.9100027  80.9145889  31.4253998  13.7355604
  81.0207520  32.3616333  13.9041595  80.0470047  31.3504658  13.3381662
  68.0606766  65.5166397  36.6025543  68.8257294  65.0257416  36.3026390
  67.4828873  64.8529892  36.9793396  56.5677567  64.4173965  21.0384655
  56.4428291  63.5644417  20.6224155  57.1738472  64.8797684  20.4595909
  79.7098007  31.8841248  50.7032471  78.9115372  31.3642464  50.6097412
  79.9771881  32.0761986  49.8044472  10.2028418  70.9525681  38.6586113
   9.7498856  71.3994598  37.9435234  10.2212944  71.5943146  39.3685799
   3.3612483  19.6014977  63.1567955   4.1576676  19.9670639  62.7716827
   3.3831589  19.8883705  64.0697327  46.7650795   3.4511817  17.6840496
  46.9558563   4.1421089  18.3184433  47.3331261   3.6467388  16.9388561
  37.0201607  48.0323105  72.9763184  36.6266708  47.5629845  73.7119293
  37.3061523  47.3424721  72.3775177  17.1116772  50.7009048  59.2536583
  16.2400951  50.7037773  58.8579712  16.9477558  50.6238670  60.1935692
  13.8191662  25.5956650  40.0805702  14.6412535  25.6338539  40.5693893
  13.1551466  25.8866920  40.7055626  34.9875870  46.8619308   4.7033391
  35.8758430  47.0895233   4.9779887  35.0758972  46.6235847   3.7805040
  22.9699097  26.1300201  63.9370041  22.4658508  25.7726383  63.2059555
  23.0431557  27.0645409  63.7432556  15.9890556  35.6281853  69.5007553
  15.6809006  36.5020332  69.2606201  16.0993080  35.1750069  68.6648712
  59.6208687  28.3807392  71.7214584  60.5658836  28.5151997  71.6500473
  59.2603722  28.7921371  70.9359512  58.9703865  70.6606445  39.3452187
  59.8624229  70.5594025  39.6772614  59.0183640  70.3655777  38.4358978
   6.5322766  52.7301788  40.6766243   6.1688561  52.8996925  41.5457764
   7.4776721  52.6801796  40.8179016  13.0960274  42.0672989  78.9872894
  12.1707382  42.1455498  79.2195587  13.1339474  42.3221931  78.0654373
  73.6254959  68.6450729  59.9177742  74.1602097  67.8634491  59.7785950
  72.8921204  68.3414154  60.4527359  66.3930893  33.9625435  26.8241062
  66.1939163  34.4323196  26.0142441  66.6619034  33.0904694  26.5352173
   4.2861533  67.2588501  50.1426315   4.9272280  67.3353043  50.8493233
   4.4597397  66.4017258  49.7534752  75.6331100  40.8660278  15.4096775
  75.1041489  40.9018784  14.6127186  75.0890884  41.2839317  16.0772305
  59.1153450  20.2788811  33.8854294  58.7255898  19.4829712  34.2471581
  58.8665199  20.9684868  34.5008659  39.4170303   2.7536387  78.7938461
  38.7134285   2.9734542  79.4044647  39.2054062   3.2424886  77.9985657
  75.1085205  49.7134094  76.6444931  74.5201263  49.0094948  76.9174957
  75.5673599  49.3599968  75.8823929  63.6053085   8.1357908  17.9782066
  62.9530907   7.5923271  18.4203472  63.9441299   8.7098703  18.6651306
  56.0143776  66.6520309  39.6784897  55.1480408  67.0434799  39.5668488
  56.3167191  66.4811096  38.7865219  58.7267075  46.2636375  17.7913094
  58.5694771  45.9471931  18.6809025  59.4229813  46.9133530  17.8877735
  85.6289597  26.6956444  81.0379486  86.5140533  26.7919807  81.3894577
  85.0986557  26.4373894  81.7918167  71.1121902  20.9269676  57.0143013
  70.6731415  20.5481148  57.7758369  70.7304916  20.4690685  56.2653923
  17.0535297  60.2086487   2.0437303  17.6917953  59.9063301   2.6898341
  16.2077217  60.1202393   2.4830735  11.0798855  23.5542507  16.6817188
  10.8709793  23.9211750  15.8226757  10.3596144  22.9514408  16.8662777
   5.3120947  23.4944973  68.8278122   4.3934388  23.2484341  68.7193832
   5.7207828  22.7254124  69.2249451  80.6099472   1.4686316  31.8183155
  81.1760178   2.1947720  31.5565567  80.1625900   1.2110711  31.0122337
   4.4229617   1.7596351  24.4170017   4.9151096   1.9126211  23.6103916
   4.3926048   2.6152825  24.8449936  40.0255013  50.8846130  84.6109772
  40.6927490  50.9118347  85.2967453  40.5177040  50.7355576  83.8036728
  68.3069305  30.3248577  67.7632599  67.6142960  30.1865044  67.1172409
  68.3232803  31.2724323  67.8976822  49.6624985  34.5573120  73.2517014
  49.9611778  35.1681747  73.9253998  49.1951828  35.1056023  72.6214371
  87.1072464   3.5599027  62.2838211  86.6863632   2.8921499  62.8252945
  86.3828201   3.9962614  61.8354530  75.6908798  21.1999893   5.0776210
  75.7122650  22.0775299   5.4593225  74.7842865  20.9131241   5.1872993
  43.0341606  60.7298088  13.5277634  42.1423836  60.5925331  13.8473186
  42.9222984  61.1892586  12.6955233  12.3935070  66.1761093  62.1252403
  12.7346916  65.3736115  62.5199776  11.8742304  65.8743973  61.3798866
  61.2123909  41.5686874  76.1048050  60.3779221  41.4923172  76.5674820
  61.8636093  41.6649132  76.7997055  21.0444431  29.7207336  35.9243813
  21.0626106  28.8282089  36.2697830  20.7946072  29.6171799  35.0061836
   6.0106330  56.1833191  29.8941250   5.7286382  57.0906639  30.0100231
   6.4762988  55.9720154  30.7032852  38.1239777  65.3644562  83.2323303
  37.9568367  65.3984985  82.2904510  39.0068932  65.7205124  83.3319244
  78.9862823  53.8391685  43.1217422  79.6957703  53.2760506  43.4311829
  79.0792236  53.8398857  42.1690636  39.6397743   9.2274065  11.0983620
  39.9158592   8.5031710  10.5366755  38.8447342   9.5624371  10.6837540
  68.6807404  23.5341625  87.2091217  69.2740250  23.1214485  87.8367462
  68.4976959  24.3958817  87.5835190  41.5417747  13.9732075  68.1699753
  41.9434204  14.6801805  68.6750565  41.1096687  14.4161463  67.4396896
  33.2814407  66.8697281   0.5951000  33.7105675  66.1435394   0.1426280
  32.3968353  66.8901672   0.2300139  75.2900848  30.4092045  28.0648880
  75.1811066  30.9239674  28.8644962  76.2364960  30.2917194  27.9827919
  53.4623260  55.5101089  62.4461594  53.5053596  55.1239014  61.5713882
  52.6257744  55.9750519  62.4618149  39.4336777   0.0611771  43.0431938
  39.5200653   0.7314879  43.7210236  39.4973984   0.5441464  42.2192345
  35.3955650  10.9702244  41.2988472  35.7562599  11.1051979  42.1751556
  35.5361328  11.8043728  40.8508873  58.7768059   8.5320368  64.2991028
  58.6689758   9.2401638  63.6641502  58.7431221   8.9670715  65.1510620
  43.0882835  39.2273331  37.0309029  43.5060997  40.0726204  37.1956711
  42.9299583  38.8644943  37.9024048  30.9029884  31.2765217  81.1183319
  31.8488541  31.4165382  81.0740356  30.5783176  32.0014191  81.6525116
   3.9511032  31.9755096  29.0498848   3.3625102  31.8545170  28.3048019
   4.4386120  31.1536655  29.1059227  38.2433319   0.4370917  58.2784233
  38.9005165  -0.0336925  57.7658768  37.5852127  -0.2249817  58.4900131
   4.4529576  57.1256027  51.8516121   3.5913808  57.0274353  52.2569275
   5.0722880  56.9631844  52.5631447  33.5421181  55.9945297  27.9164715
  32.8470154  55.9582520  28.5735474  34.3304443  55.7227936  28.3865070
  12.3879414  69.4861069  81.0289459  12.3077478  69.9236908  80.1814117
  12.2083750  68.5649185  80.8408279  13.9546461  35.0550117  10.2980566
  13.7364235  34.7926483  11.1923590  14.9003305  35.2019997  10.3155813
  68.4415894  33.9002075  29.4591331  68.1674042  33.0143204  29.6963196
  67.8083420  34.1777573  28.7971687  60.7190781  55.3520660   5.5760384
  60.7978630  55.7492409   6.4433770  60.0379257  54.6873322   5.6779833
  11.4033470  20.0470676  54.7602234  11.2044315  19.2473927  54.2732124
  11.4407797  20.7314034  54.0920067  62.2785988   8.1109409  48.6371651
  62.7942810   7.4011102  49.0198479  62.2286072   7.8955212  47.7058640
   1.0990525   9.1295538  18.0078392   1.3934424   9.9574795  18.3874512
   0.1540928   9.1188574  18.1600513  77.5136032  64.2379608   5.5906367
  77.2624283  63.5943069   4.9281783  78.2208557  64.7377701   5.1829309
  31.1625443  14.2013311  86.4576035  30.6400299  14.9686508  86.6909027
  30.5309105  13.5852823  86.0864487  71.5084457  37.3168335  53.3359032
  72.3840714  37.3588066  52.9515305  71.5013504  38.0135117  53.9922714
  12.6847792  33.8704605   4.4949307  13.4259186  34.3439865   4.1171508
  12.1501875  33.6215057   3.7409649  67.6602478   4.6031909  73.9487762
  67.5818253   5.4689808  74.3493805  66.9649658   4.0868011  74.3563919
  50.3842545  40.0216255  67.0570679  50.3855858  40.4492149  66.2006760
  49.6859436  40.4605217  67.5428238  47.0079575   1.3527580  56.1717758
  47.8196831   1.5380602  55.6995506  46.5734024   0.6807578  55.6466026
  71.2342834   6.6964149  14.3924255  71.3650589   7.6432133  14.3404531
  70.3052902   6.5719337  14.1982355  54.1655655  64.0894089  37.5010757
  54.9076729  64.6417236  37.2551994  54.5564957  63.2397728  37.7048607
   0.8897185  66.5898285  50.5194435  -0.0495222  66.4522171  50.3964729
   0.9512874  67.1341858  51.3043747   2.7154279  49.8230438  83.4594345
   2.4247580  49.1991768  84.1246719   2.8498993  49.2913513  82.6749268
  64.1796188  34.6472549  47.0034180  64.6049728  33.7914925  46.9488258
  63.8927155  34.7144585  47.9141312  68.0999603  32.6830330   9.3684444
  67.1647110  32.4938698   9.2926607  68.3193359  33.1364670   8.5544996
  86.6200714  68.5361786   9.5505505  86.2558594  69.3792648   9.2807522
  86.4840622  68.5085754  10.4976358   2.4617794  49.6240158  78.1979828
   1.7454194  49.9949188  77.6827240   2.8279824  48.9379387  77.6399231
  64.1625214  49.2156181  68.9832611  64.9663696  49.7319107  68.9241104
  63.4839668  49.8534088  69.2046738  36.1574287  32.1386070  86.8746490
  35.4234314  31.6328354  86.5258331  36.6250381  32.4482536  86.0989609
  68.5477142  54.7994194  61.4667511  68.5609818  54.0041542  60.9342041
  67.7359161  55.2410965  61.2174683  85.1196518  42.7465477   7.7490168
  84.3631516  42.4587173   7.2380476  85.8507614  42.2340546   7.4039612
  77.9809418  54.7119522   0.5134781  78.2199326  55.3332520   1.2013009
  77.2519836  55.1303864   0.0554817  15.9674301  37.1610298  87.1108170
  15.1671991  36.6626587  87.2766113  15.6998138  38.0767365  87.1889038
   1.6117152  23.7586880  11.7998323   1.6422874  23.6392860  12.7490635
   1.1548145  22.9826584  11.4754105   5.9264917  18.2386436  88.9515762
   5.3558192  18.6091557  88.2783127   6.6289883  18.8812809  89.0503082
  81.0815125   3.0432010  83.7595520  80.2993469   2.6655769  84.1618652
  80.8936768   3.9801428  83.7039642  61.9098015  11.0005283  28.3013935
  62.1872330  11.4414883  27.4983864  60.9573784  10.9421577  28.2257900
  77.7324829  27.1830006  56.9114799  77.2433624  26.4237652  57.2285843
  77.5085983  27.8845825  57.5229454  49.6516418  46.4897728  28.4161682
  48.8953247  47.0592461  28.2750454  49.3255692  45.7962685  28.9897213
  82.7860641  48.9494019  51.2664986  82.2284775  49.5762138  50.8055954
  82.2054749  48.2156792  51.4684677  86.2841492  20.0324726  41.6182861
  85.3915710  20.2925148  41.8461494  86.8021622  20.8293324  41.7318954
  60.4519043  42.2052536  13.3602476  59.6276970  41.8667984  13.7100477
  60.2594719  42.4042282  12.4439449  61.8660736  25.9426918  26.8861904
  61.7851830  26.8941116  26.9532032  62.4936142  25.8050594  26.1766243
  73.3318024  54.1303864  34.3077011  74.1994858  54.3935089  34.0009041
  72.9150085  53.7386398  33.5402107  65.8596573  12.0751400  12.5822468
  65.6578598  12.4915142  13.4201841  65.0607910  12.1780882  12.0650959
  63.6887169  40.3836708   5.6251349  64.4202042  39.9006615   5.2406106
  64.0032959  41.2855949   5.6868529  44.7223892  48.1278419   7.8782229
  44.5821762  47.2453918   8.2215157  45.0039215  47.9910126   6.9736528
  78.1473007   9.0497417   1.4974731  78.2559967   9.2823067   2.4196072
  77.2326355   9.2557917   1.3047000  59.7368736  16.1348858  16.3415337
  59.7791214  16.3414059  15.4078331  59.0985565  15.4240761  16.4009686
  60.6563148  53.0350342  33.4746208  60.9397545  53.9016647  33.1833420
  61.0817986  52.4278488  32.8692131  80.0374298  67.2927322  33.6860275
  80.6523056  67.4908066  32.9796791  80.5935059  67.0558243  34.4282379
  86.4885330  52.7123260  30.9284935  86.4469833  51.8779640  30.4612141
  86.5721283  52.4668999  31.8499107  79.0495071  32.3903275  59.0784721
  78.8053894  33.1526222  59.6033936  79.9600601  32.5514717  58.8311653
  83.3512573  69.3304901  16.8483372  82.5829391  69.8496704  16.6108913
  83.0439377  68.7541275  17.5480480   4.4512467  63.1512909  26.6402397
   4.5015483  63.0803490  25.6870003   5.2689233  62.7639999  26.9527187
  77.5394363  21.5653419  44.5031586  77.5982590  20.7877483  45.0582466
  77.0191498  21.2836761  43.7507019  65.3428040   2.6301291  58.2977715
  66.2471695   2.6369264  57.9842377  65.4200668   2.5889742  59.2509613
  16.0127010  36.7984772  37.5472260  15.3437958  37.0320053  36.9035912
  16.8124104  37.2122574  37.2224426  33.8579330  54.9038048  25.1107292
  33.8768921  54.6510201  26.0337524  33.3529167  55.7167969  25.0953751
  79.8508148  23.9674664  53.3223419  79.5154877  23.9933872  54.2185097
  80.3961716  24.7505875  53.2479324   6.9727182  68.2497711  76.7046432
   7.1674547  67.9257278  75.8252640   6.6347485  67.4858398  77.1719971
  72.9349594  25.6197510  31.4419193  73.3416443  25.6296005  32.3083725
  73.4100494  26.2870789  30.9467468  84.2564545  60.3857079  38.6562920
  83.5239716  60.9134254  38.3381577  83.9561768  60.0416107  39.4975166
  64.6504517  54.6231270  83.3463669  64.0635147  54.7994919  82.6110840
  65.4912415  54.9917793  83.0754318  63.8738289  24.6115189  49.3824043
  63.4397392  25.4438381  49.1952019  63.1564903  23.9943180  49.5263252
  73.0218811  26.8531933  19.1161518  73.5859146  27.2926369  18.4797668
  72.3395081  26.4405651  18.5866795  64.0782471  71.7295151  71.5694504
  63.9732132  70.7796326  71.6234818  63.3861465  72.0793152  72.1305771
  34.2253647  23.0402393  20.8946934  34.5215378  23.2625637  21.7773514
  34.7231674  22.2554207  20.6655998  85.8393707  62.6230202  66.4940720
  85.0444870  63.1517334  66.4243622  86.5535355  63.2599030  66.4699173
  24.2038765  53.5126762  74.2753601  24.5133018  52.6212349  74.1146622
  24.4312706  53.9923668  73.4788513  56.7332916  24.3704662  71.9863586
  56.6227608  23.5199604  71.5613174  56.7859764  24.9948120  71.2627258
  79.6075974   5.6453738   7.8963823  78.9130936   5.9254522   8.4925804
  80.3268051   5.3851070   8.4719095  24.7953053  10.2346792  44.4904938
  24.7524986  10.4512711  45.4218864  25.6368256  10.5872240  44.2010384
   5.0344405  56.6574020   3.4810219   4.5984187  57.0680466   4.2276735
   4.4764757  55.9123344   3.2579100  30.2474365   0.3624440  80.7137146
  31.1456738   0.6929441  80.7006454  30.1634846  -0.0694402  81.5638123
  74.7483521  19.6482754  16.5722694  74.4235382  19.1660271  17.3326416
  75.4955597  20.1453400  16.9051991  21.1339378  41.6691170  22.8913021
  21.9117622  41.2941551  22.4782314  20.6008835  40.9109879  23.1307373
  51.8178864  39.8034515  76.1502914  52.4872818  39.9729309  75.4874115
  52.0379333  38.9389420  76.4973297  11.9005728   8.4124432  83.8906708
  11.0926189   8.2843838  83.3936386  11.7838545   9.2580261  84.3237991
  24.3201675   3.9872046  77.0074844  24.0389004   3.7873781  77.9003372
  25.0970726   4.5353012  77.1181183  46.5751114  47.7612381  77.7623672
  45.6662979  47.4609756  77.7739182  46.5315208  48.6424103  77.3910599
  60.7945747  15.4026003  32.2769775  60.2490883  15.3095140  31.4959431
  61.6916084  15.3164539  31.9542770  71.4805832  44.5552940  74.1713715
  70.8667068  43.9481773  73.7581024  71.8567886  44.0581169  74.8976822
  71.7853928  36.6658592  47.8627167  71.5187073  36.6683235  48.7820129
  71.9961395  37.5798874  47.6720161  26.8650875  12.1789227  14.5649662
  27.1790047  13.0523672  14.7990227  27.6567516  11.6422596  14.5263710
   2.6907825  21.9615536  50.9529572   2.9514239  22.5983295  51.6184006
   1.7648925  21.7954311  51.1300507  18.4324245  11.5558128  27.9241505
  18.6895885  10.8721342  27.3055401  17.6195831  11.9109144  27.5643959
  68.0563354  69.6080856  13.8106403  67.4506760  69.9767227  14.4536896
  67.6832352  69.8511963  12.9633379   3.7244704  33.3409233  24.4061794
   3.6384850  33.9947357  23.7123718   3.9199455  33.8504639  25.1925564
  60.2818108  26.1502838  76.5597458  60.6945801  25.8879776  75.7369156
  59.4799309  25.6293049  76.6021957  69.6553421  69.9446335  37.4931984
  69.4314575  69.0268173  37.6472130  69.9701996  70.2597809  38.3404160
  35.0159454  35.8526039   6.6993113  35.2255898  36.1655312   5.8193355
  35.8589172  35.8286247   7.1521425  50.6190186  57.9604225  70.2864609
  49.7594719  57.7468109  70.6494751  51.1332283  58.2471695  71.0411758
  67.6455383   3.8043385  40.4987831  67.1203308   4.6004310  40.4174080
  67.0434875   3.0958831  40.2710648  44.7298088  71.0647736  21.8064861
  45.0775223  70.1761322  21.8816071  45.5046120  71.6171494  21.7025681
   3.6293738  38.6127396  13.3664637   3.4119840  38.4569664  14.2855434
   4.5392132  38.9096680  13.3825474  70.2872467  56.7333450  29.4117088
  69.6444321  56.6262436  28.7106056  69.7718582  56.6935387  30.2173290
  34.8959084   0.6343489  47.4007607  34.4538727   1.0358703  48.1488342
  34.2008057   0.1736641  46.9308281  18.9543419  54.3186340  33.9712868
  18.9261017  54.9017944  34.7298126  19.8753662  54.3089142  33.7108078
  81.5919342  31.2632332  19.2384090  80.8233261  31.5413685  18.7403049
  81.9102020  32.0641975  19.6548157  71.5517502  69.2658234  64.5379562
  71.8543167  70.1525955  64.3422012  71.0804825  69.3510437  65.3667450
  44.1933403  50.8817978  88.5408020  44.6521416  50.8814735  87.7007217
  44.8840485  50.7536545  89.1909790  49.3044090   1.1747780  30.5400906
  49.2637177   1.9358817  31.1191387  48.8708153   0.4768202  31.0310936
  75.6984177   4.1505613   4.3045235  75.4140396   4.1746740   3.3908608
  75.9673843   5.0491357   4.4954453  56.2921715   4.3851705  64.6652222
  56.4808846   3.8040307  65.4020386  55.3377647   4.3775973  64.5925446
  53.0551643  65.8386230  23.2594566  52.4523392  65.8654785  24.0024986
  52.6200294  65.2767792  22.6181965   2.2575159  67.4884796  87.3911057
   1.8413033  66.6295013  87.4629822   2.3663688  67.6238632  86.4497986
  42.6701241  59.8896446  82.4777679  41.7611008  59.5919876  82.5139847
  42.6249504  60.7461052  82.0527191  63.8902245  19.2498665  63.6364822
  63.0933685  18.7198334  63.6543503  63.5763016  20.1525726  63.5834961
  18.2937775  43.7137146   2.6539047  18.2329884  43.5193634   3.5891931
  18.2069988  44.6655006   2.6009197  63.0112762  23.9285603  43.2156982
  63.5898933  23.2320251  42.9054184  63.4693222  24.3030109  43.9681664
  14.9793978   1.3162848  83.5293350  15.4640818   0.4940879  83.6021729
  14.7457457   1.5372543  84.4309006  27.6423817  65.5492783  70.8186417
  27.0772133  65.8901520  71.5119095  28.1103096  66.3176117  70.4916306
  80.1471100  20.7768307  24.0482750  80.3289337  20.8512077  23.1114502
  79.7313004  21.6077557  24.2782631  42.6721573  46.4812851  22.4498863
  42.0633011  45.7467537  22.3725033  42.5865097  46.7686348  23.3589115
  20.5053730  60.0937080  38.8429070  19.7273884  59.7158241  39.2529984
  20.5619850  60.9776497  39.2057686  22.0613518  68.0404739   4.8251224
  22.0940285  67.1799469   4.4071956  21.1676559  68.1099014   5.1608615
  31.5119705  17.8979168  62.5005188  31.4331074  18.6095142  63.1358452
  32.4427223  17.8775673  62.2779922  13.3311644  12.0685663  78.3592300
  13.0691957  11.1483631  78.3880463  13.5219049  12.2344961  77.4360199
   1.7451690  64.1938400  66.1630249   2.1020527  63.3800621  66.5188828
   2.5143239  64.7352219  65.9854507  85.9435883  68.5314026   2.2363434
  86.1153870  68.2562256   3.1368976  85.0724335  68.9267197   2.2687480
   7.1361008  50.6616669  61.6358566   7.6911602  50.9180374  62.3723450
   6.3295531  51.1624336  61.7581100  74.8083801  23.3181515  30.0689964
  75.3384933  23.7940807  30.7082939  73.9056931  23.5528297  30.2841988
   5.1202521  25.0846882  12.6221857   4.2614927  25.3699570  12.9342518
   5.6591501  25.8753643  12.6477175  61.4939995   0.4681895  33.3908119
  61.5043716  -0.3523333  33.8836250  62.2404480   0.9614061  33.7310867
  61.3662605  41.6407623   8.2360239  61.2062912  42.5843010   8.2553501
  61.0391083  41.3598213   7.3814621  40.0109367  58.3313789  47.4953232
  39.3628273  58.1715012  48.1813469  39.8312263  59.2237511  47.1993256
  35.3030319   4.0885515  66.3601379  35.9077072   3.7810812  67.0354614
  34.4488106   4.1024036  66.7918167  38.9170647  10.9039469  88.9544373
  38.8475494  10.7975273  89.9031601  38.0694618  10.6130142  88.6180420
  86.1160507  47.2097168  22.6452236  85.9386063  47.4096565  23.5643349
  87.0473328  46.9895248  22.6234856  27.3436642   8.9067888   5.1021876
  26.8185101   9.5644112   4.6461411  27.3829231   8.1681795   4.4946132
  22.1123390  60.6970520  20.4450607  21.5551033  61.4753189  20.4403477
  22.5907745  60.7500420  21.2724190  10.4538908  13.9913588   4.0651803
  10.6700115  14.5647860   4.8005066  10.7317858  13.1209536   4.3504887
  40.0693741  39.6994858  82.0095444  39.6464806  40.3032188  81.3988876
  40.7813644  40.2093468  82.3959885  72.4504547  24.3096848  11.1445971
  72.5969467  25.0882816  10.6074190  71.7077942  24.5400944  11.7028151
  73.3572083  65.1685333  32.9482613  73.9507980  65.8937073  32.7533150
  73.9051056  64.5245209  33.3969078  19.9679050  48.0189857  44.4325829
  20.2657452  47.3998337  43.7661171  19.0873089  48.2678833  44.1518135
  45.8236465  42.1175156  29.2688293  46.1514893  42.5543480  30.0549145
  46.2922325  42.5382347  28.5479584  12.0569534  32.3518867  47.2360229
  12.7066031  31.8432198  46.7507935  11.3034668  32.4014130  46.6477737
  28.1771717  17.3864250  21.4377193  28.0262318  17.7329330  20.5582981
  27.7519665  18.0163784  22.0196056  67.3603363  49.8822174   6.0058446
  67.0338364  50.7809372   6.0498214  68.0502930  49.8453636   6.6682897
  58.4968872  18.9800549  70.9227295  58.4466667  18.3027859  71.5972824
  58.2091522  19.7793064  71.3639069  64.1191177  58.8510818  50.2930031
  63.6788368  59.6893463  50.1526680  63.6964836  58.4857330  51.0702667
  70.4073944  56.0501022  59.5307274  71.3162613  55.7565842  59.4670982
  70.0987244  55.6947174  60.3641853  70.6591034  27.9554672  15.5057373
  71.1946106  27.1640434  15.5615368  69.8923035  27.7643833  16.0458679
  69.2544022   9.1144009  10.5931234  70.1892395   9.1044874  10.3876905
  68.9944992   8.1934299  10.5708389  10.4179783  42.4674759  16.8539925
  11.3562384  42.6475334  16.7950153  10.1707850  42.7686882  17.7282925
  52.0557404   0.5999543  88.2383881  51.4279976   1.3223039  88.2188339
  52.1117706   0.3066477  87.3289566   2.4371138  10.0120354  56.4895630
   1.7661101  10.6944485  56.5068512   3.2182827  10.4526606  56.1551132
  67.5544128  43.7912407  51.9659233  67.3609543  42.8805199  51.7436867
  68.1721191  43.7338791  52.6948814  77.8260498   9.3057213  24.4365940
  78.2970352  10.0029793  24.8929234  77.9091034   8.5447311  25.0112495
  76.8737030  34.7105751  26.3210926  76.1525116  34.5867157  26.9381599
  77.4408875  35.3565483  26.7421131  32.4934959   2.2736394  84.0982819
  32.2011147   1.6496638  83.4338989  33.2871361   2.6616125  83.7297058
  74.3332062  49.1152382  30.5430241  73.7840729  48.6760941  29.8935375
  75.1780396  48.6692276  30.4832802  50.0151558  23.5654469  70.9348602
  50.5260544  23.8882923  71.6771469  50.0964546  24.2510471  70.2718582
  36.6638908  65.2480087  36.1251450  35.8854141  65.1554718  35.5759239
  36.6909409  66.1786499  36.3474388  56.3834381  66.4719696  88.1467514
  56.7348099  66.4363403  87.2570877  56.0742760  65.5823975  88.3179703
  56.5142174  37.6072769   5.9145455  55.7936783  37.2511787   6.4343982
  56.5118713  38.5439110   6.1118755  22.3825874   7.3604650  18.4419975
  22.0630379   6.6687608  19.0213623  23.2871037   7.1131306  18.2498837
  64.0905609   8.5255384  10.5898218  63.5418968   7.7775435  10.8258371
  63.6242790   9.2845774  10.9400673  31.7939453  34.8936615   5.8157778
  31.8143177  34.1739883   5.1849952  32.7129784  35.0445213   6.0367966
  14.7334213  50.3050995  57.1881065  14.4646139  51.1171646  57.6176682
  13.9122934  49.8933487  56.9189568  55.1520844  12.9467182  87.7619858
  55.4468994  13.1519709  86.8747482  55.9600105  12.8283043  88.2614517
   0.2263356  41.6637650   1.0430555   0.9776019  41.1565933   0.7354729
   0.3660425  41.7508926   1.9859886  83.7965851  45.1069260  59.1383514
  84.7183990  44.9709740  58.9192657  83.3594437  44.3091469  58.8405457
  64.5643692   2.0397701  83.2196503  64.2131424   1.1954342  82.9368515
  65.4986649   1.8785652  83.3512878  62.5350761  57.4461136  70.6340637
  62.2713051  56.5552750  70.4037170  62.7809868  57.3918610  71.5575485
   1.9880334  60.1833000  37.0534325   2.4161179  59.6752548  37.7425346
   1.0815063  59.8760109  37.0573425  48.5032005  14.8211412  80.0305710
  48.2107658  14.9712591  80.9295578  48.0992470  15.5273190  79.5262222
  14.3193378  24.9584885  64.3925934  13.8675337  24.4566059  63.7142029
  15.0645962  24.4108353  64.6393661  82.0298157  57.2642479  37.3574409
  81.7609024  57.6675262  38.1828384  81.3020706  57.4344902  36.7594109
  29.3141308  18.2472725   7.8626347  29.8763542  17.9212456   7.1598954
  28.5407925  17.6840611   7.8314619  11.9836273  14.2729921  89.0033264
  11.0524626  14.4899569  88.9576035  12.4128084  14.9472761  88.4766617
  15.5785971  33.3133774   8.2733879  14.7691240  33.1853294   7.7788277
  15.7886000  32.4453888   8.6179581  77.6293259   0.0022486  54.1235428
  76.7567215   0.1909494  54.4687767  78.0156326   0.8635806  53.9650955
  58.6405487  10.1230488  66.9192886  58.2503738  10.9440231  67.2192841
  59.2735786  10.3884287  66.2521515  70.4657669  24.6579742  52.1221619
  70.4949951  23.7601719  52.4528084  71.2123032  25.0903587  52.5368385
  30.0372810   3.2546985   7.8121629  30.2656593   2.6824834   7.0796013
  29.7445030   2.6573696   8.5004292  68.7866821  28.0042973   6.0204444
  68.2168274  27.4650822   5.4720392  69.3132553  27.3735657   6.5114889
  72.4938736  19.0291004  78.0183258  73.2750397  19.0788593  78.5692596
  71.8715591  18.5133877  78.5311508  37.4456596   0.8858062  38.2158699
  36.7689285   1.4006127  37.7762718  37.3841972   1.1447971  39.1353111
   4.6812859  53.8648109   5.0167022   4.6858153  54.0357971   5.9584951
   4.0210366  54.4635811   4.6677370   0.1456348   0.9515959  88.4297409
  -0.3323804   0.4211451  87.7922821   0.5901793   0.3130958  88.9873581
   4.6261983  57.3077087  45.1183891   5.2646933  56.6298103  45.3397675
   3.8144014  57.0170059  45.5339737  50.2878761  32.8487663  38.2948303
  51.0715218  32.9890785  38.8262825  50.2797623  33.5835342  37.6814117
   5.8003092  67.9806671  65.4787903   6.5052524  68.3465652  66.0130234
   6.1247230  67.1210709  65.2103195   5.6093497   6.0350099  41.8529396
   5.4512644   6.4932661  41.0275650   4.8067851   5.5368929  42.0078621
  26.1060028  61.0275536  64.1734238  25.1522713  61.1064568  64.1533737
  26.3858204  61.6699333  64.8255615  47.8429909  15.9595442  16.8186970
  47.8069229  15.0381508  16.5618572  47.1763382  16.0444584  17.5003090
  39.1432190  58.0485420  79.6272049  38.9063225  57.8895836  80.5409088
  39.9183464  57.5058022  79.4828415  38.2879562  10.0889091  73.3791809
  38.1280479   9.9761562  74.3161774  39.0139847   9.4954624  73.1869965
  56.3084030   6.3371387  40.3481331  55.8270493   5.7594953  39.7558022
  55.6940346   6.5159893  41.0600281  15.0982189  21.8835659  42.4060249
  15.1249132  21.8797626  41.4492035  14.1687956  21.9665546  42.6193695
  85.4187698  54.6925201  44.9157219  86.3382263  54.5977821  45.1644211
  85.3005905  54.0737152  44.1950645  60.3747940  31.1133270  29.9420891
  60.4401360  31.6067028  29.1244431  60.4633331  30.1978035  29.6771183
  60.5159111  68.4009628  37.3572311  60.8532372  68.9465408  38.0677109
  61.2633247  68.2817383  36.7712364   6.0490270  33.3992844  36.1451874
   6.3442545  33.9369240  35.4103317   5.5684328  32.6790352  35.7371407
   7.0960183  17.9730835  57.7614250   7.1114998  18.8422413  58.1621208
   6.9774771  17.3722687  58.4970894  21.9733868  51.0051842   1.8528885
  21.6990433  50.4288788   2.5662198  21.7960835  51.8882980   2.1767781
  69.1761627  39.0999298  32.5900421  68.9870682  39.3754387  33.4870186
  68.3746872  38.6649399  32.2990990  12.6965332   8.4038134  51.4322243
  12.0941343   7.6619086  51.3781433  12.6615610   8.8045425  50.5636482
  77.8752747  23.0809536   9.6896057  76.9386444  22.8958683   9.7580709
  77.9297943  23.8192768   9.0828609   7.2322230  13.2973700  19.0619793
   6.8405933  13.9160843  18.4454975   6.6725330  12.5224810  19.0117207
  68.4806519  10.3671827  37.3502388  68.3377151  11.1050205  37.9430275
  69.2411575   9.9126863  37.7125778  65.7572327  52.4471169  46.9618988
  66.3975067  53.0859108  46.6484947  65.5358963  51.9300652  46.1873703
  42.1085739   8.9246092  40.6549072  42.4873581   8.1233044  41.0163879
  41.5980949   8.6292963  39.9009666  17.9088421  37.4753838  21.0872860
  17.9831448  36.6257439  21.5218220  17.1447105  37.8855629  21.4923630
  62.0199127  59.2826729  47.7857437  61.1147308  59.5119095  47.5751915
  62.2920876  59.9428024  48.4232216  38.0951195  56.8179588  34.1780243
  37.8943024  57.2055244  33.3261452  38.3932381  55.9316292  33.9736366
  30.5279942  39.0062675  33.8255424  31.0139790  39.7461548  33.4613724
  31.1980724  38.3494797  34.0149040   3.7374675   8.7618771  81.9543686
   3.0678279   8.9618196  81.3002777   3.4563477   7.9315996  82.3388748
  24.5759811   1.2138215   9.0889769  24.3162804   0.7319477   8.3037481
  25.2221756   1.8478822   8.7781181  39.5717316  55.3991814  46.0716820
  38.7716789  55.8468819  45.7965279  40.2628899  55.7967072  45.5420570
  53.6258621  65.2200546  53.3622742  53.6168404  66.1707001  53.4737549
  52.9816589  64.8987961  53.9931641  21.4514217  12.1034279  10.4942093
  22.2435226  12.0449257  11.0284262  21.6961422  11.7057056   9.6586494
  64.0933380  31.6477947  37.1815987  64.5151291  32.4213753  36.8075676
  64.8009109  31.0095978  37.2725372  73.9936218  50.7766266  25.7540188
  74.1930313  51.2836571  26.5410347  73.3612595  50.1200294  26.0459461
  56.7630196  37.2950325  71.5817337  56.2464752  36.6351242  72.0442657
  56.5940437  38.1082191  72.0575638  80.0521240  10.8218861  82.3795929
  79.5774612  10.9980707  83.1919250  80.9180298  11.2048168  82.5202866
  47.2796745  37.3516769   3.9319806  47.9420738  36.9580803   4.4999084
  47.4084206  36.9270363   3.0838442  41.2623787   5.6031680  79.2806168
  41.3455048   4.7816663  79.7648239  42.0240135   6.1172805  79.5486221
   7.2174535  14.0737238   2.5501890   7.5405159  13.2130041   2.2836850
   7.9982247  14.5412741   2.8468783  16.2812824  26.2320175  61.2003403
  16.0244560  25.3197575  61.0659752  15.5438356  26.6217785  61.6699028
  79.1278763  39.9804916  65.4482117  79.7850647  39.2850647  65.4750595
  78.3226852  39.5388298  65.1783218  52.9417763  48.5590286   3.9978104
  53.5992889  49.2515640   3.9321833  52.5337219  48.5333862   3.1323245
  67.3331985  36.0910339  62.1552734  66.9036179  36.8017654  61.6792984
  67.1993103  35.3191795  61.6052361  53.4907570  71.3060303  82.7580643
  54.3713837  71.6353989  82.5784836  53.6267662  70.4034119  83.0461731
  22.3864689  14.6602516  27.6787243  21.6940861  14.9190798  27.0705738
  22.0680428  14.9395599  28.5371075  79.5939636  69.1624756  57.1907349
  79.9311142  70.0331039  56.9796257  78.7649002  69.1050339  56.7157707
  17.8643723  40.1269302  45.1023064  18.2416992  39.2580338  45.2396774
  17.1822243  40.2000847  45.7698059  78.9135513  35.3033791   1.1721647
  78.7710876  35.0546417   0.2588935  78.9827805  34.4707146   1.6391830
  21.7738819  31.9791756  19.6774197  22.2950954  32.4259186  20.3444977
  21.5384579  31.1423607  20.0781021  32.5603638  56.8939819  50.0666504
  31.9106140  57.3790054  49.5579224  32.5590553  56.0170670  49.6829185
  58.6556587  28.4466457   2.8814969  58.7753830  29.3406353   2.5610578
  58.7003937  28.5257530   3.8343728  39.4568100   4.9129405  20.1977062
  39.6865959   4.8107753  21.1212826  39.2166100   4.0316000  19.9117432
  80.1737366  57.9525146  23.8406467  80.7201233  57.1967278  24.0562382
  79.7591476  58.1925278  24.6693459  54.7335167  33.8791275  22.8205833
  55.3036079  34.3088264  22.1829376  55.1485825  34.0495987  23.6660957
  66.9528427  16.1403446  83.4278336  66.0197754  16.2868042  83.5833054
  66.9800720  15.5352192  82.6866760  63.2821579  54.6222534  60.2956314
  62.6074524  54.7975998  60.9515724  63.3870125  53.6708984  60.3082848
  79.9125824  46.3086128  29.5325241  79.5607910  47.1647415  29.2885532
  79.2660446  45.9480896  30.1393604  11.2126341   6.3304148  49.8840790
  11.8416595   5.9537005  49.2687340  11.2490940   5.7535715  50.6470680
  71.6791611  13.0782318  46.1214371  72.3429260  12.5268497  45.7071571
  72.1649323  13.5970745  46.7625809   9.9589968  45.9211578  78.9827881
   9.4133778  46.6359901  79.3107376   9.4131651  45.1405220  79.0771561
  76.2267075   2.4292641  40.9757729  76.6482697   3.2657759  40.7788887
  75.5137863   2.3649075  40.3402863   0.5148572  53.8343658   9.0893555
   1.2889726  54.2602158   9.4576330   0.6410103  52.9042854   9.2771435
  69.2711945  54.2660484  43.6595306  69.4496841  54.7781525  42.8707809
  68.6623230  54.8062820  44.1631660   8.3077545  27.9126167  57.7046394
   8.9270439  28.6153793  57.5075645   8.2014322  27.4473953  56.8748817
  45.2236786  69.0489655  15.2136860  45.3409119  68.2561874  14.6902437
  44.6172714  68.7902832  15.9076471   6.1869864  37.3164711   2.6630626
   6.7564006  36.5591927   2.7991955   5.9267640  37.5821037   3.5450802
  36.4514694  16.1915817   8.5193939  35.5301323  16.4431572   8.4555187
  36.9331017  17.0017586   8.3524370  19.2745876  47.7110214  25.3880711
  19.2842922  48.0975571  24.5124397  19.5450535  46.8029594  25.2520409
  53.8980179  62.0739441  59.2691345  53.5186539  62.7472954  59.8338623
  53.2010155  61.4257507  59.1678162  32.0948219  17.2389259  85.6139221
  31.6778812  17.3634815  86.4664993  32.8815079  16.7279701  85.8043900
  43.9846382  48.4446144  70.8995590  44.5420952  48.9932098  71.4513931
  43.4996719  47.8977852  71.5176315  61.9168282  70.9034576  54.4608727
  61.4708290  70.1348801  54.1050682  62.4166336  71.2531967  53.7232323
   0.4641278  12.6229839  62.2896194   0.0889330  12.7136297  63.1655464
  -0.1514033  13.0805016  61.7168808   7.1648436  60.3823929  28.8197708
   6.9751477  60.0400696  27.9462357   6.9170609  61.3058395  28.7741470
  29.9524975  44.0923462  78.1376419  30.2476025  44.2247353  79.0385437
  29.0861511  44.4982491  78.1073074  15.4013071  27.5312901  29.0805531
  16.2801476  27.2907829  29.3738613  14.9507208  26.6949654  28.9632359
  57.4690781   6.0109873  74.2823868  57.9627113   6.6245952  74.8264847
  56.8352585   6.5583315  73.8187943  80.6459656   7.8510752  35.8739586
  81.5532684   7.5503755  35.8229027  80.3286362   7.8091807  34.9718628
  16.9122353  63.1161232  30.1323147  17.7857895  62.7881737  30.3458233
  16.4253616  63.0532875  30.9540443  20.9048176  64.4156036  66.1605453
  20.5427971  65.0984344  66.7252655  20.5063591  63.6055069  66.4786682
  46.5441399  23.7151127  19.4930782  46.7720146  24.1002007  18.6469040
  46.0347519  22.9354401  19.2720108  17.4366360  15.3968658  33.3116226
  17.3691368  14.6914701  32.6681252  18.3511238  15.6759186  33.2660789
  65.4763336  62.3502197  37.2589493  66.0311737  62.8193245  37.8821068
  65.9842682  61.5739098  37.0232010  72.9023819  23.8315811  39.4202614
  73.1006546  24.6465549  38.9590225  72.5639191  23.2482052  38.7410355
  21.3507061  33.2800522  34.6977463  21.0010757  33.4776115  33.8288612
  22.2731533  33.5306206  34.6473923  40.5997620  63.5704956  12.8688402
  40.7406731  63.6939278  11.9301491  40.1616974  62.7220535  12.9357510
  70.1811066   1.5380501  53.8085213  70.7823944   0.8467979  54.0857468
  69.7896652   1.2053100  53.0008774  68.3922806  28.9369831  47.4353828
  68.3966751  29.4193840  46.6086388  67.7633743  29.4065304  47.9833183
  35.0920830   5.7852707  29.0561028  34.5038452   5.4880953  28.3619156
  34.8204269   6.6863303  29.2308197  18.2370033   1.1602235   7.6236238
  18.9086170   1.0186027   6.9564562  18.7274017   1.3987883   8.4102802
  70.2892303  32.1735649  76.1657104  69.5747299  32.8105011  76.1709442
  69.8571777  31.3300533  76.0313873  38.4752502  47.3076210  78.6078186
  37.5891037  46.9976044  78.4210892  38.8818092  46.5912857  79.0954742
   3.2259347  46.5929337  39.3451500   3.2019014  47.3089485  38.7103462
   2.9144821  45.8302231  38.8578072  84.0468979  21.7208691   0.1044417
  83.6069717  21.0824623  -0.4569282  83.3350754  22.2326374   0.4886672
  34.6039276  62.3967361  77.0687866  35.2919655  62.3320160  76.4064789
  34.2665405  63.2878304  76.9773712  46.5001717  65.0200500  26.0199242
  47.0108566  65.3369217  25.2749271  46.7557030  65.5900040  26.7452431
  37.0879517  28.8121071  11.0520039  36.6874428  29.5426922  11.5232468
  36.5398293  28.0579414  11.2688618   0.8710057  14.4304876  68.8315277
   1.2628018  15.0663919  69.4301529   0.2226415  14.9334116  68.3386612
  71.7827759   1.1576663   1.7230991  72.0492554   1.7650226   2.4132717
  70.8259811   1.1760331   1.7441814  17.6674862  58.5850182  82.5859299
  17.4721394  57.6481438  82.5676422  18.2655487  58.6905785  83.3258057
  83.8234177  31.5167656  41.9161072  82.9763412  31.0722733  41.8827400
  83.7212448  32.1757240  42.6028137  65.2264099   3.6714222  87.1455688
  64.8127441   3.3840253  87.9595184  66.1634598   3.5469489  87.2961807
  31.7248173  18.3118935  80.1769028  31.4671440  19.0547466  80.7228012
  31.9985561  18.7066460  79.3489761  59.6432762  53.6384926  49.6845779
  59.9309120  54.4701538  49.3079605  58.9582214  53.8817482  50.3072815
  85.9470749   1.4644229  12.7114897  86.4449615   0.6993074  12.9994678
  85.2619781   1.1058851  12.1472826   4.3586264  19.4484558   6.8838181
   3.6879752  20.1152153   6.7358623   4.1776128  18.7766647   6.2264261
  14.7981281  16.6201000  75.2954407  14.6598301  15.6763287  75.3754501
  15.5684614  16.7959385  75.8357162  82.0757065  50.0993462  45.7763939
  82.8015976  49.5614243  46.0925407  81.2908859  49.6548386  46.0968781
  28.3644581  47.7517586  80.3864136  27.7038498  47.5557747  79.7220230
  29.1517506  47.9654007  79.8856583   6.8884225  44.6521873  55.9634171
   7.1900024  45.3058205  56.5943260   6.9372973  43.8217812  56.4369888
   8.7452726  22.4424877  24.4437046   9.5516739  22.0044937  24.7159386
   8.6484194  23.1697254  25.0585041  11.8575754  17.0551186  76.4604568
  11.7579260  16.1850033  76.0741882  12.7164555  17.0329132  76.8824310
  56.0505676  26.2945766   5.8204484  56.6262779  25.5318108   5.8750019
  56.6444931  27.0449333   5.8416634  44.1829948  14.5832224  88.0850372
  44.7574883  14.3812695  87.3465271  43.4574318  15.0725203  87.6972504
  24.6202984   8.5195189  70.5589676  24.7658100   8.7414341  71.4786453
  24.9208984   9.2895346  70.0763168  66.4514618  64.2334442  16.3285007
  65.8295975  64.2845993  15.6026220  67.3019257  64.1097717  15.9070253
  50.6141701  50.2647133  21.3491592  50.1108093  50.0235558  22.1267834
  50.2689705  49.7016945  20.6562824  66.5819397  59.7592163  36.1208725
  67.4551773  59.9145470  35.7609329  66.1085968  59.3146973  35.4176140
  46.8672981  42.5998039   5.1696687  46.4112625  43.4076920   4.9339237
  46.4273415  42.2997780   5.9650645  64.6648407  10.4059849  29.9570217
  65.3538055   9.8267155  29.6314335  64.0180054  10.4288054  29.2518196
  78.2964859  39.1164322  28.2172813  77.4836426  39.5293922  27.9257507
  78.8885040  39.1987648  27.4696445  53.4865036  39.0835457  12.7960730
  53.1859207  38.3650131  13.3524818  54.3547516  38.8101616  12.5000391
  35.1452866   1.8539047  43.9857292  35.9707603   2.1223352  44.3891754
  34.4719200   2.1499989  44.5982170  41.5543633  45.7950935   3.4243660
  41.1840134  45.6045265   2.5625334  41.9019737  44.9559975   3.7265472
  64.2971115  65.5051575  45.0208778  63.6272316  65.9107437  44.4704285
  64.7629471  64.9108887  44.4325981   7.9202986  71.2723312  85.8963165
   8.6108570  70.6260529  86.0435791   7.8474026  71.3321381  84.9437714
  71.9491730  67.0399246  29.9049149  71.4158783  67.8285522  30.0043926
  71.3390503  66.3177414  30.0546589  73.4335861   9.2447205  16.7053146
  72.5727158   9.4645395  16.3492012  73.9436188   8.9666862  15.9445257
  35.7034111  54.8879318  13.6769247  36.0682030  54.0607109  13.3624926
  34.9288254  55.0302887  13.1328859  37.4980087  35.4410934   9.6650677
  37.6672401  35.7792549   8.7857265  37.3670731  36.2230949  10.2013159
  67.9902039  17.4314957  69.6447220  68.1939621  17.1246681  70.5282211
  68.8411560  17.6504879  69.2650299  58.1865616  50.0330276  43.2653313
  58.2810135  49.1136169  43.5143280  58.9205360  50.4737320  43.6934662
  60.9555511   2.0537109  51.7814255  60.3935661   1.7703109  52.5025978
  61.5661736   2.6722322  52.1824226  70.3663025  57.4109383  21.4200783
  70.3720779  58.1769791  21.9939938  69.7098007  56.8293610  21.8034916
  18.8760586  50.3932304   0.4573085  19.0282879  51.3326683   0.3547870
  18.7420712  50.2735062   1.3974921  81.0753250  20.4405022  50.5447388
  81.1219330  21.3965569  50.5487289  80.1794968  20.2455235  50.2695999
  67.0080414  24.0288982  26.3954754  66.9785614  23.1348476  26.7361164
  66.5357742  24.5487022  27.0458622  41.6743050  57.5374908  24.5649605
  42.1831017  58.1214600  25.1274014  41.6644669  56.7026215  25.0330677
  45.2911301   2.6946115  63.0425987  45.4477768   3.5224547  63.4968796
  46.1653900   2.3359401  62.8900833  77.0978165  14.2246017  62.6724930
  77.6250992  13.4257936  62.6620407  76.2859192  13.9815006  62.2275810
  70.0399323  58.2005386  53.8159447  70.0348206  58.0878716  52.8654099
  69.9812775  57.3103905  54.1629639  37.7215004  69.2919769  63.9761467
  37.4773369  68.3785782  64.1255188  38.6323242  69.2518234  63.6845703
   1.3502015  22.1593056  55.0999374   1.9197863  22.8257790  54.7157249
   0.4710906  22.3964157  54.8046837  68.7974625  21.0843239  24.7762356
  69.3224106  20.6541328  24.1012535  67.9101562  20.7535152  24.6366482
  44.7870178  19.1834469  33.1875763  44.9967842  18.6242142  33.9355659
  44.1338692  18.6877899  32.6936646  19.6713696  24.6981716  24.1986675
  19.0151348  24.0013332  24.1966438  20.1546478  24.5744286  23.3817444
  85.6551285  67.4879227   4.6695619  85.6444473  68.2061539   5.3022227
  85.0452805  66.8433990   5.0285935  53.0961990  19.2559814  18.4444790
  53.9057961  19.5696793  18.8474445  53.2909851  19.2256699  17.5077991
  76.4476852  29.7749214  47.4122849  75.5980835  29.5045815  47.7605896
  77.0117416  29.0117950  47.5376320  24.1112137  12.5097971  19.3395023
  24.1960316  12.6642151  20.2803497  24.1921997  11.5607948  19.2442837
  80.7926102  53.4059982  25.3739452  80.2195663  53.7206459  26.0731201
  80.3173523  53.6045952  24.5671463  53.2889137  64.2277832  43.5225334
  53.3471451  63.3374672  43.8691902  54.1198540  64.3621826  43.0667839
  22.3086796  48.8792839   0.1081432  21.7448997  48.3326187   0.6554465
  22.3124561  49.7313690   0.5442333  66.3654709  37.8835449  74.0956573
  65.4996719  37.8515816  73.6887054  66.8327103  38.5643425  73.6114731
  19.9965363  25.3144417   6.8699064  20.5172920  25.3736401   6.0689445
  20.4821739  25.8343220   7.5103064  13.3174639  50.9389572   1.3161690
  12.8142586  50.3149109   0.7931187  14.1958103  50.5610771   1.3603048
  47.4927635  60.2553101  17.4394417  46.9740677  60.2234230  16.6355953
  47.1339111  59.5546570  17.9839973  34.4219780  71.8691254  79.8409576
  34.0451622  71.9842682  78.9686127  34.7814865  70.9820557  79.8313904
   2.0691969  60.7458572  58.2670517   1.5253553  59.9731407  58.4199333
   2.9666870  60.4337311  58.3824615  59.0168533  61.9317398  38.5093346
  59.2093658  61.0265198  38.7537727  59.6201859  62.4556313  39.0363655
  30.4224586  15.2426043  72.7266312  29.6884403  15.2056332  73.3398895
  30.0966377  15.7659025  71.9943542  30.1678982  52.6883888  38.6211662
  30.0168571  52.6926727  39.5663643  30.0723495  51.7703705  38.3675041
  75.4839401  56.3847694  79.8170166  74.6351395  56.2236862  79.4049301
  76.1218185  56.0278587  79.1989899  22.9029694   1.2496248  73.4978561
  22.1453762   0.6657993  73.5357285  22.7948265   1.8314433  74.2502060
  10.6908112  70.3338242  66.9323044  11.4128542  69.8268051  67.3035431
  10.3149986  69.7612076  66.2636414   9.4785910  30.3441257  25.0309944
   9.3622084  29.8246555  24.2354832   8.9881773  29.8685532  25.7014847
  45.0295029  49.0056496  83.1731796  45.3378983  48.1759911  82.8087692
  44.7146530  49.4979362  82.4150467   5.3914976  43.3784752  31.6166039
   6.0894008  42.7386436  31.7572403   4.7198114  43.1449738  32.2573433
   3.0631618  11.3505096  76.6202698   2.4579508  11.7998028  77.2102585
   3.1081212  11.9145880  75.8482437  60.6498337  36.5266304  28.1106033
  60.7891731  36.5898438  27.1657104  61.5123672  36.3124046  28.4660969
  81.9684601  56.2906837  25.1448402  81.8469696  55.7561493  25.9295349
  82.8754578  56.1306801  24.8841038   4.1341481  27.2207069  42.6732864
   3.5078850  27.7707043  43.1439552   3.8865571  27.3095398  41.7529411
  81.9970627  43.3559380  16.4462452  81.4904480  43.0685654  15.6866455
  82.1424026  42.5571938  16.9533119  27.4767094  55.7606888  77.3184662
  28.3537979  56.0283127  77.0440063  27.6281281  55.0764656  77.9704895
  50.9294395  11.1202946  20.5572472  50.6993179  10.7656775  19.6984558
  50.5454788  11.9970751  20.5650444  41.3321114  69.7724686  25.6739006
  42.1144409  69.6677628  26.2154064  40.8426132  68.9597015  25.8005657
  15.9794159  29.8709698   2.0783160  15.2434101  29.6297226   1.5158864
  16.4019623  29.0385857   2.2900326  53.9035225  71.4699707  59.1735115
  53.7996101  71.7315521  60.0883942  54.8336411  71.2605057  59.0884514
  11.1804419   1.5884349  89.4207382  11.4425936   0.9556389  88.7520981
  11.2215729   2.4359255  88.9776840   2.0765641  50.5577126  43.0591736
   1.8492590  49.7769737  42.5541878   1.5834665  50.4674873  43.8746147
  49.0096779  21.0807896  70.9433594  49.6234474  20.3969383  70.6752777
  49.5407257  21.8760376  70.9857712  77.2388000  62.9678116  25.2142906
  77.8600845  62.2911987  25.4834270  76.5748291  62.4967194  24.7108612
  38.1378479  14.4624186  78.9525299  39.0864716  14.3345633  78.9539490
  37.8140755  13.8460369  78.2956619  15.0231524  12.7723551  31.9113522
  15.8414650  13.2470770  31.7656307  15.1544323  11.9296980  31.4766941
  16.9017334  17.8871403  66.4606247  17.2303810  17.1014748  66.8976059
  15.9625292  17.8888130  66.6453476  14.4183130  23.6850796  45.6045761
  14.9485588  24.1123009  44.9318542  13.5719194  23.5355549  45.1832771
  24.7494411  41.9227257  23.8089428  25.1884804  41.3102760  24.3991795
  25.4606781  42.4304161  23.4182739  28.4941063  48.9462967  11.3257637
  28.3174782  48.2389450  11.9459972  28.9523106  49.6090775  11.8424864
  42.1320381  59.0639076  49.1812134  41.6695976  59.5784302  48.5196648
  42.2833519  58.2163849  48.7628288   2.7573347  55.3308487  85.7980881
   2.8364949  54.3865395  85.9331512   3.6398211  55.6132507  85.5578842
  69.2781219  62.6683426  31.7284431  68.7809296  61.8569145  31.6254425
  69.9443054  62.4595604  32.3833008  70.0289383  37.7234764  81.5514145
  69.9555283  38.1929779  82.3823242  69.1286316  37.6578522  81.2330322
   1.3615366   1.3212726  47.1631432   0.5072311   1.0554152  47.5033073
   1.9604230   1.2023847  47.9003220  32.9098053  19.2966080   0.5488441
  32.6697998  19.6968327  -0.2868884  32.5965157  19.9147282   1.2091515
  67.5455780  63.2641983   1.8348435  67.1211243  63.0149689   1.0138969
  67.5427399  64.2213440   1.8249968  31.9551945  -0.3102775  69.9120178
  31.4428654   0.2110607  70.5300446  32.1723289   0.2993987  69.2067719
  14.0785446  29.4681187  30.4333954  14.8022346  29.6970596  31.0165691
  14.4424391  28.8020287  29.8501835  30.3963509  58.1991501  81.3000565
  31.3041801  57.9966927  81.0740356  30.4512444  59.0060005  81.8121262
  38.3769264  27.0126953  16.9773102  39.0794754  27.0314980  16.3274593
  38.6085052  27.7014465  17.6003876   8.0914583  11.3197012  -0.2811406
   7.3134031  10.7935467  -0.0966869   8.4960852  11.4573412   0.5753430
  49.3183250  69.4932251  87.9610519  49.3351021  68.5537567  87.7784119
  49.4222908  69.9058075  87.1036148  75.8256302   4.2433767  17.8022995
  76.7358704   3.9946539  17.6415730  75.4466934   4.3427114  16.9289341
   8.7716341  50.0777664  56.8042107   9.5404463  50.6398964  56.8999710
   8.2116947  50.3095207  57.5451508   0.2685598  63.5574112  11.5995893
  -0.4694452  64.1669846  11.6003399   0.5342372  63.5018349  12.5174990
  41.9404488  47.5566483  52.0672684  42.8518829  47.3083305  51.9128151
  41.9308815  47.8857269  52.9660721  49.0484619  41.7417145  26.8497772
  49.6483459  42.0103569  27.5456238  49.4445190  42.0819397  26.0475197
  71.1266556  65.7439346  44.8478050  70.4098740  65.4980927  44.2629814
  71.6895370  66.3048325  44.3141479  39.6363945   9.0509291  80.0466690
  40.2219315   8.6047573  80.6584778  39.9123383   9.9670238  80.0759201
  56.7424660  29.8894157  37.1748009  57.2703629  29.8005867  37.9683151
  55.8379784  29.8163223  37.4794197  55.6713753  46.6450462  51.8132133
  55.5790482  45.7332878  52.0896149  56.0564728  46.5923233  50.9384842
  66.7745667  52.3244858  87.3695755  67.4900436  52.8991547  87.6417465
  65.9908752  52.8701324  87.4353027  52.6338158   8.3047142  67.2742157
  52.4578476   8.3755627  66.3359985  51.8148270   8.5706520  67.6922607
   2.1763685  11.1214437  19.7641907   1.6105200  10.8407812  20.4834099
   2.3113983  12.0567284  19.9166412  65.9058838  13.5927048  37.9616432
  65.7849884  14.3818693  38.4896927  65.5622787  12.8848410  38.5067062
   9.7807961  46.6359100  35.2707939   9.0021210  46.2212982  34.8993149
  10.1186790  47.1868820  34.5647507   5.3199964  15.1998024  81.3940430
   4.5123725  15.5189657  80.9914169   5.1898208  15.3359852  82.3325195
   1.9588726  50.3958054   4.3545051   2.8788612  50.5445518   4.5729728
   1.8108622  50.9230385   3.5694239  82.4886475  58.7417297  63.7588844
  82.2124557  58.2996826  62.9560509  82.1071243  59.6171837  63.6936684
  27.1839600  15.2148781   2.0508397  28.0421543  14.8687077   2.2955837
  26.7427883  15.3734636   2.8853760  76.9296951   6.3528085  57.5729370
  76.2495346   6.5225477  56.9211693  77.7172623   6.7561665  57.2078629
  13.9264536  32.1552658  69.8628540  13.7326221  31.8391838  70.7453232
  13.7605057  33.0970726  69.9039459  20.5345001  39.7147636  83.8802185
  20.2852764  39.8369370  82.9641418  19.8304062  40.1308899  84.3775330
  27.6903305  66.9157028  75.6913834  27.5956535  66.0259171  75.3514557
  27.2083721  67.4618759  75.0703812  51.6412048  50.9487419  81.7305603
  51.2134972  51.8045883  81.7592697  51.6450729  50.7139206  80.8026199
   9.1471195   0.7048576  65.7323380   9.7667570   0.0967357  66.1354141
   9.5568771   1.5643466  65.8303604  53.7912064  39.4308395  20.1013794
  54.1736832  40.2783241  20.3287773  54.5450287  38.8629532  19.9417152
  45.3084221  49.5491295  80.1137543  46.2543564  49.6662979  80.0259476
  44.9353561  50.3766289  79.8099442  37.3599663   1.5745569  53.7533112
  37.0900421   0.7492408  53.3505363  36.6104736   1.8365377  54.2879715
  60.2601891  21.7636375  72.5000381  60.6480942  21.7051506  71.6269150
  59.3158836  21.7535343  72.3437576  85.4231873  70.8761978  84.3049164
  85.4235535  71.5418243  84.9927979  85.7769928  71.3250732  83.5370865
  63.3177032  31.3651161  79.2275925  63.0165939  31.0258446  80.0704803
  63.7943459  32.1654053  79.4479980  73.4215317  47.8405380  69.8753357
  72.9141312  47.1516151  69.4461975  73.9515991  48.2196350  69.1742325
  48.7657471  43.7534981  13.4540215  49.7024994  43.5937881  13.5689907
  48.4261742  42.9356613  13.0906172   8.7382526  45.6190147  39.1201591
   7.9199796  45.3193741  39.5162354   8.5499487  45.6589394  38.1825142
  79.2609024   6.3157635  53.3058167  79.7132339   6.0793543  54.1155930
  79.3717422   7.2640762  53.2376366  71.8847961  49.2332611  72.6154709
  71.9450150  48.3934212  73.0707474  72.4287567  49.1225204  71.8356781
  13.1406927  25.7392616  12.3425159  12.5298738  25.1725464  12.8136492
  13.6060057  25.1492920  11.7495146  80.1158524  40.9951477  25.6542969
  80.5087357  41.4802742  24.9286785  79.2367096  40.7744408  25.3466816
  29.9202633  12.2434626  39.5881500  30.7088432  11.7633772  39.8409157
  29.4011459  11.6084795  39.0946465  69.1819992   6.5493975   9.4608231
  69.2895203   5.6376314   9.7316628  68.2613068   6.7442336   9.6357613
  63.4471741  62.8512115  24.9822712  63.0618210  63.5239258  24.4208565
  63.8089790  63.3364906  25.7237759  63.3540192  21.9501724  63.6379967
  63.7216530  22.0656281  64.5142059  63.2862968  22.8384018  63.2877197
  29.5724545  44.8413925  17.4813328  29.5798321  43.9319191  17.1829453
  28.9110584  45.2670822  16.9358273  73.1426697  13.4501200  30.8111610
  73.9517746  13.9556112  30.8889866  72.4488983  14.1094217  30.7957630
  41.5819931  56.8709068  79.4611588  41.4304466  56.2958527  80.2112045
  42.5020332  56.7331886  79.2358017  72.0912399  30.3997250  21.9360676
  72.5977631  30.0080395  22.6475754  71.5340500  29.6888428  21.6191730
   9.5461731  35.0991859  73.8348007  10.3349209  35.3361969  73.3470154
   9.7537098  35.3132133  74.7443848  10.6051712  60.3222504   0.3017148
  11.4654493  60.6737137   0.5311225  10.7417965  59.8836632  -0.5380508
  36.2198677  70.6040573  56.8790665  36.1281662  71.5559998  56.9194603
  35.3737717  70.2691193  57.1760063  39.2457047  69.2306442  29.8997631
  39.3001366  69.8381042  29.1620274  38.4652557  68.7060699  29.7210064
  21.9840431  57.0376205  18.2982922  21.9247551  56.1814346  17.8744240
  21.5889874  57.6432457  17.6710930  50.3513527  54.6795883  14.6186972
  50.1809120  53.8872566  15.1280012  49.7080574  54.6520500  13.9104280
  18.7690220  48.2849731  87.4558411  18.6217499  48.8635025  86.7076111
  18.6864243  48.8557243  88.2198105  33.4229736   1.4915745   9.6983480
  33.1011391   2.3415539   9.3980341  32.7160416   0.8806735   9.4903088
  42.2171288   9.3077164  66.2628708  41.6350670   9.9965143  65.9419403
  43.0644341   9.7402449  66.3688202  80.6520309  21.3672104  70.4427109
  81.2173767  20.7230949  70.8690186  80.4094467  21.9734497  71.1426086
  38.1691818  59.7364693  55.1346703  37.9808044  59.4977188  56.0422745
  38.1296654  58.9084625  54.6560555  13.3352861  64.2459412   5.2834344
  12.6272020  64.7776794   4.9199739  14.0163898  64.2621994   4.6110759
  63.0935097  13.8694077  17.2983475  62.4398460  14.3779297  16.8183880
  62.6850357  13.6935177  18.1459599  35.1264343  47.5758629  42.5611305
  34.5373306  48.3209152  42.6798439  35.9732475  47.9708176  42.3534126
  63.0517845   9.0272179  32.3922577  62.7756500   9.1995487  33.2924156
  63.0550270   9.8880768  31.9737568  40.9203758  16.0242081   8.8542986
  40.3802071  16.7743626   9.1027346  40.6287918  15.8014145   7.9702311
  70.5842209  22.5370426  72.4884186  69.9021912  21.9538212  72.1553650
  70.3855743  22.6303711  73.4201126   7.0152755  61.5110741  60.0077858
   6.9685483  62.4630508  60.0960388   7.4149299  61.2140808  60.8252869
  40.9302177  20.9248981   6.3255391  40.8530731  20.2587795   5.6424832
  40.2564392  21.5693264   6.1088252   1.3688767  45.5496445  88.9051514
   2.3122776  45.5580444  89.0668793   1.0172014  46.2076340  89.5048294
  80.4396973   8.7805977  52.6017075  80.5988235   9.6782856  52.3100510
  81.2661362   8.3258648  52.4390755  13.3029337  32.5855560  57.7574310
  12.8094177  32.1250076  58.4360809  14.0466738  32.9700432  58.2213821
  25.3497505  19.1402378   3.9034421  25.4274616  19.1490860   4.8574414
  24.5253239  19.5931149   3.7260833  21.9838772  70.9249344  88.2806320
  22.3872166  71.5516586  88.8812714  21.6591206  71.4612732  87.5573807
  26.1894550   3.8278153  17.4335842  26.4945374   3.1730688  16.8055191
  26.7627735   3.7174909  18.1921120   1.6561090  10.8665581   0.3454489
   1.3018329   9.9783735   0.3884557   1.0617688  11.3333025  -0.2420379
  41.0852470  52.8588104  79.5385513  40.4734726  53.0787354  80.2411118
  41.8374748  53.4315758  79.6879578  25.4747314  35.4546547  27.6119137
  26.4178696  35.6079826  27.6685963  25.0899029  36.3310089  27.5998955
  12.2359314  59.3786850  64.4262009  12.8690910  59.6518898  63.7623444
  12.5113602  59.8342285  65.2217178  47.7522354   9.5354548  72.4254684
  47.1084976   9.2269821  73.0631790  48.5912437   9.4709301  72.8816833
  79.0625305  58.8608360  31.4969730  79.2814255  58.0973778  30.9627018
  79.4998322  58.7012138  32.3333473  49.4291420  46.5459328  73.5242920
  50.3426285  46.7373772  73.3118744  48.9237442  47.0787773  72.9103775
  61.6052399  10.1844625  18.4118271  62.1680794   9.4229956  18.2717857
  61.8773041  10.5303020  19.2618904  50.7493019   5.6850224  21.0749950
  51.3872604   5.7612472  21.7845249  49.9193268   5.5068178  21.5172787
  30.3540936  14.7790937  15.7992439  30.2587414  13.8326597  15.9060240
  30.4977856  15.1070089  16.6869698  27.7733803  43.0862427  76.2294006
  28.5843849  42.8670578  75.7706451  27.1672783  43.3436203  75.5346909
  17.0172653  14.6856575  77.9529114  17.4266701  14.2998142  77.1784821
  17.6094723  14.4651661  78.6718750  82.5435562  17.3644276  35.4679985
  83.4480286  17.0598297  35.5413551  82.2108231  16.9387741  34.6778450
  44.9278183  37.5378838  23.2843800  44.2503967  37.0136833  23.7116337
  45.3900185  36.9180336  22.7201195  43.4537697  68.7087555  35.4016380
  44.3394394  68.9440536  35.1251335  43.0360451  69.5456543  35.6049423
  56.2196388  43.2591515  37.6201553  55.6725769  42.5207291  37.3524132
  56.0517120  43.3540916  38.5577126  66.1870346  42.7233391  44.9374924
  66.5205994  41.8680305  44.6665382  65.2378616  42.6074829  44.9808311
  80.1455994  10.5406981  13.4338932  79.7551498  10.9116688  14.2251978
  80.8488770  11.1487684  13.2061129  21.7800636  23.6380405  26.1595268
  22.6990128  23.3779545  26.2236977  21.8063297  24.5218811  25.7929649
  18.9090462   6.0072064  37.2771492  19.4564877   5.5365639  36.6486320
  18.2416515   5.3718848  37.5363503  75.6687317  21.8235264  85.1940002
  76.1760406  21.0489635  85.4367294  74.9630203  21.4846897  84.6431885
  59.9610634  31.2492695  81.1224899  59.6008301  31.3933315  81.9975357
  59.5196648  31.8962936  80.5722504   7.6220002  57.9316902  37.9479561
   7.1462293  58.6783943  38.3116989   7.4461641  57.2154083  38.5580826
  47.4099350  11.2296848  13.6785574  46.6086082  10.8980436  14.0836763
  47.6224174  12.0179710  14.1782455  24.7601318  10.3088455  14.9896269
  24.1014442  10.8379679  15.4395065  25.5617161  10.8294382  15.0413675
  21.0108738  64.1731339  63.1175194  20.3944321  63.6825943  63.6612091
  21.6813755  64.4763641  63.7296562  28.9032040  63.6343231   3.9756346
  28.2497902  64.2338181   4.3360281  28.4022503  62.8600159   3.7192652
  43.7299500  42.0021095  33.5070953  43.3040962  41.6071205  32.7462654
  44.1578445  41.2690239  33.9495049  29.2009602   2.0361478  78.2982864
  29.3179932   1.6824815  79.1800232  28.3354931   1.7279702  78.0295410
  72.7703629  28.7893181  44.5184784  73.0345459  28.2697697  45.2777596
  72.5113068  28.1413574  43.8632927   7.1256776  52.2489510  72.4556656
   6.5451217  52.2019844  71.6960754   7.9445181  51.8540192  72.1560745
  85.8955841  36.4462357  76.0087357  85.5988159  36.5178413  76.9159470
  86.3035049  35.5818138  75.9577026  29.6488113  41.0065689  36.0993385
  29.0917664  40.3075485  35.7568436  29.7310200  40.8116341  37.0328674
  33.9949608   8.3111219   1.8935663  34.5328827   9.0618172   1.6419139
  34.5923271   7.7392712   2.3756194  64.6964722   1.1729696  10.1392727
  65.4845581   1.0337505  10.6644077  64.3264008   1.9895862  10.4745636
  37.5504303  65.0441589  46.7059860  37.4723854  64.2800980  47.2772636
  36.6694069  65.4177094  46.6839180  80.5737991  68.6780853  38.4594803
  81.3015366  68.0918198  38.6666794  80.9315338  69.5571594  38.5839005
  63.6980362  57.1208115  63.5520477  63.9325066  56.2021599  63.4203720
  62.7694511  57.1002007  63.7834244  38.8461266   6.5550151  71.4409332
  38.3216324   6.7580996  70.6664047  39.2363892   5.7023048  71.2490692
  81.4164963  70.4678955  72.8233643  80.6988373  70.9842453  72.4564972
  81.0032578  69.9286118  73.4976349  85.7237930  23.4730339   8.7114382
  85.3765869  22.5982418   8.5370350  84.9609146  24.0486526   8.6575003
  66.9785690  60.5489502  44.0550194  67.8112259  60.9878120  43.8809013
  66.8049622  60.0414162  43.2622375  64.3802109  55.8800163  50.0865860
  63.8797188  56.6874390  50.2040787  63.7952805  55.1884499  50.3961372
  30.4246731  65.2952576  13.1594944  29.5193367  65.5424118  12.9710436
  30.5880413  64.5376968  12.5976725  28.3223839  38.7689171  26.3656769
  29.2499256  38.9880028  26.4545555  27.9770164  39.4286385  25.7642422
  50.4274635  41.3689499  73.2224503  50.1897888  42.1512566  72.7247162
  51.1621132  41.6470833  73.7694016  40.5940552  59.2686577  33.7660103
  40.2035408  59.4076767  34.6287956  40.2509651  59.9835167  33.2298164
  48.9721718  52.4356995   6.8918633  49.2647629  52.0959778   6.0461612
  49.7419052  52.3673286   7.4567237  82.6147995  27.6250572  20.9524918
  83.1931839  27.6815643  20.1918926  81.7576141  27.8939075  20.6220551
  39.0010262  53.6636124  80.9898453  38.4629784  52.8777390  81.0854340
  38.3932343  54.3889618  81.1336899  50.0871773  58.8452988  43.8292618
  49.7514191  59.3987274  44.5343933  49.6677246  57.9965744  43.9705276
   4.2415543   8.5284977  44.5818329   4.9659891   9.1499815  44.6538353
   4.6522083   7.6695018  44.6804276   4.0884461   8.6141348  34.2971420
   4.6246896   7.8262992  34.2077599   3.2472625   8.2954540  34.6243820
  59.8411980  22.1342411  30.4768543  60.4053230  21.5398674  29.9821644
  59.0875854  21.5985584  30.7245331  76.8325424  57.2447014  31.8397579
  77.0318298  56.5680466  31.1927204  77.4653397  57.9404068  31.6614246
  85.8981171  38.0111008   7.7114282  86.3422165  38.7068291   7.2266922
  86.6052856  37.4426193   8.0163422  26.6632862  14.5811291  82.2379837
  26.9495926  13.6721239  82.3272552  26.5399456  14.8828783  83.1379623
   1.6103065   8.3845253  45.4919243   2.5057945   8.5081596  45.1772079
   1.4519615   7.4449291  45.4007263  33.1886024  28.5258656  16.2568493
  32.9660645  28.2753277  15.3602219  32.6469650  27.9585438  16.8054943
  45.6630440  71.5064621  44.7531624  45.0807648  72.2175522  44.4857140
  45.1919861  70.7083054  44.5138054  30.2853966   8.7329626  44.5416298
  30.0587406   8.6918449  45.4706993  29.5428410   9.1781654  44.1334190
   9.1151304  52.2191429  77.6879807   8.5598536  52.2819328  78.4651260
   9.7098875  51.4932442  77.8765793   2.8723428  58.4959831  38.9125786
   3.4421709  58.2590637  38.1808701   2.7182674  57.6710625  39.3730164
  52.0068626  51.3180885  76.7379913  52.6556473  51.9243202  76.3805084
  51.7204247  50.8020706  75.9843979  49.0357056  71.5085983  82.6644821
  49.0887756  71.8642731  81.7774048  49.5767784  70.7194061  82.6388702
  58.2555809  42.9862442  19.8106041  58.5316200  42.9896278  18.8940773
  58.2636299  43.9085464  20.0665760   5.7669277   8.8521624  20.7029247
   4.8467789   8.8912945  20.9637432   5.7431188   8.8031912  19.7472744
  17.7865810  70.5250397  65.9881210  17.6934414  69.7838669  65.3896027
  18.6332703  70.3854752  66.4122391  81.4398041  38.0001678  72.2386627
  82.1785278  38.4683723  72.6276398  80.6941910  38.5886307  72.3569870
  16.7846375  32.4218941   5.0595398  17.3833771  33.1204567   4.7954378
  16.5546761  32.6329117   5.9644275  16.7637310  41.2337646  31.8412647
  17.2347984  40.7838783  32.5426407  17.2536354  41.0188599  31.0475121
  78.1318512  49.8263168   0.6898276  77.5396271  49.4844856   0.0200127
  77.9072952  50.7543793   0.7570176  29.0491428  25.3598957   9.8431921
  29.0690899  24.9287796  10.6975756  28.1796417  25.1619892   9.4952936
   2.3548880  52.1826706  25.4372101   1.8580483  51.5211678  25.9186611
   1.6927239  52.7993507  25.1250000  62.1647987  65.0531235   5.7298670
  62.6160507  64.5802231   5.0306010  62.8624496  65.5125961   6.1971979
  51.2845879  58.4318810  50.8793030  51.6156845  58.0808678  50.0526237
  50.3333588  58.3505135  50.8101997  29.5290337  63.4311752  60.0695381
  28.7404881  63.7430153  60.5135918  30.2255840  63.5339699  60.7179832
  46.5699921  23.7297020  23.1076603  47.1416779  24.4823647  22.9563274
  45.8053589  24.0953236  23.5525074  18.3929520  69.8204727  10.7656145
  17.6459465  69.2219620  10.7655010  18.0012341  70.6924438  10.7159863
  33.1350670   4.7080393  74.3544312  32.6069336   5.1957779  74.9864349
  33.9785805   5.1604376  74.3474350  63.1753387  57.9670715  83.7587814
  62.9370461  57.0733948  83.5122299  62.4701233  58.2512093  84.3403091
  45.2297859   1.8934587  19.3294525  45.7169762   2.4382780  18.7113533
  45.5519485   1.0059587  19.1720181  21.6601772  57.1593323  85.8939362
  22.0877266  56.3054085  85.8287430  21.1525841  57.1118164  86.7040787
  47.8145485  65.9113083  28.4840660  48.4337425  65.9302673  27.7543621
  48.2274170  65.3424454  29.1338100  47.5624008   0.6376246  88.6469574
  47.9689674  -0.2279477  88.6054916  48.2089272   1.2249272  88.2554092
  72.5396347  16.6246395  59.0415993  71.8649597  15.9671555  58.8720016
  73.1974564  16.1639614  59.5624428  69.3869705  32.7343788  79.6998291
  69.9773026  33.4711990  79.5422211  68.5098724  33.1051407  79.6025696
   6.3868442   5.9296322  12.2777090   5.6743531   5.2958541  12.3608570
   5.9995689   6.6643038  11.8017807   6.8554072  18.8268585  85.9228134
   5.9193821  18.8377800  86.1227341   7.2177987  19.5510216  86.4331970
  14.7778912  33.9291649  62.8880997  14.9109268  33.0385742  63.2127304
  15.6294804  34.1844940  62.5333672  33.1611786  52.6459732  12.4232082
  33.3006630  52.5753403  13.3675528  34.0277786  52.5051346  12.0418987
   9.7507439   5.7466331  89.3924484   8.8660698   5.9024568  89.0618362
  10.1369791   5.1360283  88.7645798  29.2360935  44.0907402  33.2958183
  29.9216766  44.5361938  32.7980385  28.4374657  44.2394905  32.7895584
  42.7802773  23.0162067  28.8674698  41.9697380  23.4893894  29.0555058
  43.1232834  22.7770824  29.7285156  50.4741325  32.7458382  21.9241676
  50.1547813  32.3503113  22.7352200  51.2616234  32.2464600  21.7080364
   7.0284724  70.3513489  63.1773796   7.9289341  70.1737137  62.9056320
   6.6065841  69.4921722  63.1847000  27.3781624  71.6230621  44.2624168
  27.1995125  70.8996277  44.8632088  28.1634121  72.0402985  44.6167221
  66.9942093  49.8091125  57.3622398  66.0543900  49.7337036  57.5273895
  67.3823013  49.9148369  58.2308273  29.3127022  18.9164543  86.9863052
  28.8408432  19.7488461  87.0128403  29.6280441  18.8485184  86.0850983
  79.8583374  24.7563572  70.1172714  79.2030640  25.4130268  70.3531418
  80.0098495  24.2678032  70.9263382  16.6848030  30.4813957  30.9832649
  16.8667412  29.9222641  31.7385807  17.4119148  30.3169460  30.3828526
   3.3376069  25.9927197  21.3603325   2.3897097  26.0536194  21.2419510
   3.6924326  26.6973877  20.8183250  79.5947037  20.3330517  15.3373194
  79.4523239  19.7601204  16.0907841  80.0914001  19.7968941  14.7192106
  11.3038568  17.9460220  31.9622898  10.6087761  18.2074699  32.5662270
  10.8514147  17.4618607  31.2715530  56.7911301  55.3417702  50.0424042
  56.1691818  56.0540085  50.1911583  57.1925735  55.1916771  50.8982964
  63.4827309  37.0031013  28.8444538  63.9686470  36.2305336  29.1329956
  64.1568222  37.6626244  28.6805630  84.8706894  53.4766579  42.3850212
  84.8321075  53.3484154  41.4372368  84.9448471  52.5922432  42.7435570
  25.9385853  25.4784451  17.0784740  25.8418350  25.8421230  17.9585934
  25.3506660  24.7231884  17.0654411  39.8754463  53.0934792  16.9370842
  40.0082436  52.5824776  17.7355061  39.6382713  52.4448853  16.2742825
  22.1651039  52.7403908  15.5753918  21.6840057  52.0428391  15.1301966
  22.9019928  52.9312210  14.9950399  48.0693741   3.7567205  14.9782162
  48.0864677   2.8486130  15.2803421  48.9611778   3.9246619  14.6737223
  42.5327454   9.6595173  25.7597370  41.5778389   9.5934391  25.7639923
  42.8357697   8.7521420  25.7925835   6.8811049  42.0112572   7.5044804
   6.6878619  42.3105202   8.3929224   6.1283150  42.2964859   6.9866166
  23.9978695   7.9444280  11.0918369  24.3131371   8.7637663  11.4733124
  24.5189915   7.2649446  11.5195818  29.5239201  10.5784874  73.4684525
  29.0684910   9.7366877  73.4822693  28.9259815  11.1667585  73.0073242
  18.1368332  41.1369438  39.3629265  18.2467251  40.1984444  39.5158310
  18.9756737  41.4201775  38.9991226  44.4978142  10.4656639  19.6163559
  44.7705460  11.2830868  20.0330925  43.5861588  10.3523121  19.8851852
  67.1921844  60.4270096  10.7283249  66.9211731  59.8087692  11.4069729
  66.6817474  60.1763763   9.9583445  51.5288391  27.5148258  38.8895569
  51.7627563  27.1205578  38.0492783  52.1109772  27.0937271  39.5220337
  35.3469505  68.3733521  54.8630676  35.5837364  69.2697678  55.1009789
  35.9893074  68.1242905  54.1985588  20.2770729  40.0160599  30.3060551
  19.5765533  39.4921722  30.6947002  19.9431610  40.9129639  30.3233032
  45.2118225  69.2178421  79.9429169  45.3688354  70.0140686  80.4504700
  44.3191490  69.3169327  79.6119308  18.7844524   9.2190533  14.4189348
  19.7084217   9.2430935  14.6678066  18.7873116   9.3653650  13.4729872
   8.8475275  17.8516903  52.2012215   8.3524837  17.1824112  51.7287521
   8.1847868  18.4761410  52.4962959  76.2727814  32.8438416  21.0187492
  76.7760773  32.0407104  20.8849335  76.8363266  33.3913651  21.5654392
  68.7278061  22.3534489  77.1228561  68.0591965  22.8449879  77.5999069
  68.5549698  21.4381218  77.3431625  84.7137222  50.1424026  82.5571213
  85.3664780  49.6826515  82.0291290  84.6144257  49.6008568  83.3401260
  55.4068604  68.1073990  53.7788506  55.5902328  67.1840668  53.9522743
  54.6865845  68.3238602  54.3709526  14.1320152  30.2272911  60.3528290
  14.0215187  29.2917957  60.1829147  14.8242483  30.4999809  59.7505951
  56.4607353  56.5475159  57.8294106  56.0243073  55.8051796  57.4114380
  56.6539726  57.1480713  57.1095314  74.9551697  43.9886246  46.4334793
  74.6399155  43.1255112  46.7015915  75.2816315  43.8584404  45.5431404
  81.4078293   1.6775291  78.1040497  81.4261856   0.7519203  78.3472443
  80.4961166   1.9403222  78.2303619  73.2342224  63.6529083  64.8919754
  73.2334976  63.1949577  65.7325211  72.6162338  64.3740311  65.0115738
   0.4775354  38.3965416  72.4722977   0.2538526  37.6437912  71.9249725
   0.7529327  38.0136490  73.3052292  31.6084805  53.3904572  76.1503143
  32.2880898  53.9654922  76.5020218  31.3414993  52.8517494  76.8951263
  48.3274231  62.2897072   4.9807520  47.4236336  62.0341568   5.1653924
  48.2572403  63.1724358   4.6173038   5.8100605  24.5355682  59.1950226
   6.0538645  24.1508675  60.0369263   4.9214401  24.8645992  59.3303909
  33.3200188  67.2618790  34.9772072  34.2057228  67.4723358  35.2729607
  33.1540985  67.8759537  34.2619362  59.2613945  33.4761391  16.8412151
  60.1118240  33.3168335  16.4317989  59.3400574  33.0915604  17.7142239
  21.7584076  68.7518616  50.8000412  21.7661591  69.4266663  51.4788628
  20.8320389  68.6344528  50.5895958  28.7113762  64.9851303  16.5812035
  28.4866695  64.6235123  17.4385090  27.8729591  65.0594864  16.1253948
   7.0865788  32.8999100  66.4682236   6.5136986  33.4153824  65.9004898
   6.7776446  33.0879250  67.3544769  64.0209351  26.3035488  19.5071621
  63.5529709  25.5647984  19.1179485  64.8194580  25.9180851  19.8677330
  54.7422714  27.8483906   8.7964621  55.3422165  28.5640755   8.5864782
  55.2420235  27.0539551   8.6084499  11.2217064  69.1916351  73.3316269
  11.6813793  68.8709335  74.1075668  10.9069376  70.0603256  73.5816803
  60.2405548  14.2912884  26.9818897  61.1279526  13.9663420  26.8296852
  59.9464493  14.5957708  26.1233883  61.4248657  30.7410851  10.8948774
  60.6408463  31.2399979  11.1242905  61.0955162  29.8759022  10.6515322
  50.7283478  41.8947487  29.2416725  51.6828575  41.9657898  29.2318916
  50.5584717  40.9823570  29.4760170  47.8052292  19.3971367  86.2540436
  48.4760094  18.7916412  86.5697327  46.9783974  18.9401817  86.4082413
  20.1096325  65.6899796  56.9819832  20.6865730  65.4209366  56.2671471
  20.7019444  66.0289154  57.6531868  18.7929230  53.8147240  82.6299362
  19.4330139  54.3499794  82.1608734  19.3122120  53.1195755  83.0340805
  58.5780220  50.5705910  82.5127792  59.2909546  49.9544411  82.3445053
  59.0055695  51.4259834  82.5545197  34.1009445   7.2261028  54.2097740
  34.7297401   6.6546865  54.6506081  34.5432396   8.0733509  54.1570549
  70.5624542  66.5956497  54.3694878  69.9490128  66.2535782  55.0198059
  71.4250946  66.4711075  54.7651749   0.6259432  25.7294617  49.1575012
   1.2931923  25.0467072  49.2271996   0.6956311  26.0412407  48.2551880
  63.6854095   6.3337831  31.8575020  63.5218353   6.2622418  30.9170990
  63.7509880   7.2751031  32.0182724   1.6106031  49.7891998  26.7116795
   2.2081430  49.4278793  27.3663750   1.2363218  49.0215340  26.2794380
  26.3937798   3.4182637  59.0217476  26.8008709   4.1156669  59.5356903
  25.8038216   2.9812825  59.6359406  30.5690880  45.3586502   4.1140585
  31.0388317  45.8919563   4.7552733  31.0194893  44.5141678   4.1289272
   7.0485454  70.0498276  38.9479294   7.4112296  69.2010345  39.2013817
   7.3086543  70.6418228  39.6537056   8.4511318  28.3373680   2.5082386
   9.1256533  27.6821442   2.3295381   8.9024353  29.0143318   3.0124972
  76.8363876  59.2387924   8.2136335  76.5429993  59.9256439   8.8122902
  77.5561752  59.6382103   7.7251663  44.1735344  59.7834816  20.0111618
  43.3363190  60.2434845  19.9503002  44.3150330  59.4266090  19.1343193
  58.9697800  65.8869400  33.8345947  59.5383072  65.8799210  33.0645561
  58.0961914  65.7034912  33.4890175  54.4026375  24.2480679  25.8324947
  55.0027313  23.6561928  25.3788395  54.4265251  25.0544739  25.3173542
  27.1185246  22.5721970  19.5238819  26.9323864  22.1018753  20.3365211
  26.4301853  22.2907581  18.9212112  66.9821777  53.7870865  27.7988033
  66.1550598  54.0436096  28.2066078  67.0435791  52.8445587  27.9540424
  18.9955158  52.8967667  10.9293013  18.5922947  52.3475914  11.6016483
  19.9363041  52.8148689  11.0856323  24.3650761  11.7622023  77.2026749
  23.8348141  11.5413113  76.4369965  24.9983921  12.4026728  76.8787308
  17.7247753   7.7301908  70.8217392  17.3024826   8.3468361  70.2237015
  18.3661861   8.2584581  71.2968826  26.9596519  23.0567894  26.9196949
  27.2310925  23.5865726  27.6692810  27.7221184  23.0521355  26.3410282
  40.4146690  54.9043121  14.6468821  40.3801193  54.0334740  15.0427055
  40.7206039  55.4756279  15.3513222  75.0235825   9.4041805  48.7767258
  74.4534760  10.1725197  48.7472878  74.4655762   8.7047911  49.1169014
  70.5186920   8.4542923  33.5648880  70.9660416   9.2205915  33.9239120
  70.0674667   8.0670776  34.3150139   8.7803421  39.7380028  50.0900383
   8.8954515  40.6831474  49.9916534   8.9701900  39.5683670  51.0127602
  81.1995010  41.9650955  49.1077766  81.6060944  42.2064400  49.9400406
  80.3908310  41.5177460  49.3571014  84.4936600   2.3562706  58.3274155
  84.9109955   3.1859877  58.0958328  85.1579285   1.8866105  58.8317871
  53.4704437  40.3976936  28.9627209  53.5401039  39.4435692  28.9948025
  53.7249260  40.6860275  29.8392677  75.1273575  50.4990311  47.6137657
  76.0718307  50.5553360  47.4687157  74.8820343  49.6423149  47.2643547
   7.5002174   9.7511148  72.0656509   6.7586098   9.1971874  71.8218994
   7.7434430   9.4535923  72.9423218  21.3612690  65.4835587  16.5905685
  20.8752804  65.2562790  15.7978573  20.7514381  66.0164108  17.1008720
  80.9496307  12.8251390  25.7216549  81.7352066  12.8381557  26.2684097
  81.2183685  13.2481861  24.9061527  69.6930237  36.6499825  55.8149414
  70.1552200  36.9092407  55.0178261  69.2019501  35.8677979  55.5634079
  83.9709473  67.8400421  39.1808357  84.9199753  67.8677063  39.0591202
  83.7233810  68.7506790  39.3410873  69.2768784  67.4121399  31.6968021
  68.6478500  66.8085480  31.3015423  68.7576294  68.1828156  31.9263039
  58.9440956  46.0401077  71.2923737  59.0511208  46.5576859  70.4943237
  59.6471596  45.3917160  71.2534180  12.0986052  48.8357773  89.4327545
  12.7372990  48.6133003  88.7554016  11.2625055  48.5260353  89.0845795
  58.6141167  70.0083084  55.6162491  59.0896835  70.0488205  56.4459648
  58.0917587  69.2086105  55.6783905  64.1496353  27.9497375  62.8437386
  63.6941681  28.7397499  62.5527725  64.3894196  27.4994755  62.0337982
  63.4024811  12.7543859  11.2171631  63.0607491  11.8724880  11.0698347
  63.7748413  13.0109978  10.3735209   4.1198993  54.4329758  53.3821106
   4.1654415  54.6506119  52.4510956   4.5979109  53.6072235  53.4587097
  76.4560776  12.1313267  85.1555176  76.0694427  11.7208138  85.9289703
  77.4003601  12.0390148  85.2821426   5.7697873   6.9023585  57.9336967
   4.8182983   6.9739275  58.0097122   6.0699177   7.8047495  57.8248672
  64.0899582   9.6310244  41.1126099  63.9288406   8.6884155  41.1545715
  64.2791443   9.8821564  42.0166969  39.2762108  33.7008514   5.6903591
  40.1187096  33.2740936   5.8462548  39.4728928  34.3976173   5.0642085
  59.3041420  15.3983364  70.6850128  60.0919647  15.1625175  71.1748657
  59.3335648  14.8460197  69.9037857  31.3651581  69.7127914  56.1706200
  30.5024452  70.0553818  55.9369736  31.3839588  68.8334198  55.7930183
  33.1912270  29.3020954  28.4354248  33.8864899  29.4287415  27.7898235
  33.0345268  30.1759758  28.7932091  29.0908718  56.3204880  16.9663029
  28.5372353  56.5313148  17.7181473  29.9226322  56.0444221  17.3512688
  51.9004974   0.8252549  31.6345387  51.1346970   0.8314140  31.0603065
  51.8914413   1.6850748  32.0550842  35.1863556  70.9493484   3.3715940
  36.0877724  70.9926300   3.0525262  34.9410324  71.8624420   3.5209277
  74.4979630  30.6044235   1.0967367  74.5456619  31.0011253   1.9665555
  73.5609741  30.5531044   0.9079468  22.0047131  30.2504616  17.0681381
  21.5300789  30.7570267  17.7271862  21.7935581  30.6791039  16.2387333
  53.7262001  59.4867096  13.2988014  52.9438553  59.6189957  13.8342152
  54.2961121  60.2228088  13.5214911  61.0689316  42.6741753  84.9749985
  61.1151619  42.7234802  84.0201874  61.9812202  42.6016541  85.2555389
   8.7036276  38.0275040  78.1709137   8.4274721  37.4384003  78.8730011
   8.5795097  38.9052391  78.5320435  71.1546402  43.2729912  38.3483582
  70.9472046  44.0895157  38.8027687  70.6203690  42.6116943  38.7882118
  46.5237885  57.6238937  73.5363541  46.9636002  56.9005852  73.0895691
  45.5962982  57.5022774  73.3333664  17.9278526  43.9649315  53.2120476
  18.4219971  43.3092041  52.7200356  18.5653934  44.6535950  53.4005051
  77.6978073  70.5089798  81.5902328  77.4471970  71.4084778  81.8007660
  78.6499100  70.5411987  81.4969482  39.6798935  13.9856701   0.7037805
  40.1706161  13.2146921   0.9884140  40.2314606  14.7266893   0.9545659
  41.9126587  24.5200977  22.7385426  41.7263412  23.5846920  22.6577015
  41.2630119  24.9431133  22.1770706  86.1499405  21.8963184  35.6164360
  85.9194870  22.5818768  34.9894333  85.3086853  21.5380020  35.8995018
  17.4930286  65.9565659  41.7237015  17.1900940  66.8494644  41.5587730
  18.4459496  66.0095825  41.6504669  57.5840874  63.8702660  23.9493217
  57.1957970  64.3210449  23.1994820  57.8761444  64.5749969  24.5274982
  51.4476433  30.3362656  39.2002182  51.2958260  29.3921165  39.2422295
  50.7745476  30.6607018  38.6019592  84.1459122  11.6586819  11.3412962
  84.0848846  11.4847746  10.4020071  84.5089264  10.8537569  11.7108192
   1.1302578  63.1855812  84.7833405   1.6163235  62.5617905  85.3226471
   1.6991527  63.9538002  84.7340698  48.7933960   1.3865999  16.1839542
  47.9728165   0.9206975  16.3446445  49.1733551   1.5095056  17.0538731
  64.2395706  69.8778763  33.2242813  63.4260178  69.3737640  33.2396584
  64.2492142  70.2907410  32.3607521  61.2111511   9.8609543  44.1376648
  61.2356606  10.3542337  43.3177223  60.5547562   9.1804705  43.9882698
  57.0103798  47.0829697  40.3797417  56.9921875  46.3796539  41.0287781
  57.2507668  46.6478539  39.5617447  12.1072617  26.8495445  88.5046997
  11.6220760  26.7424984  87.6865463  12.5076828  25.9939957  88.6593933
  82.3763428   0.9233513   9.0291529  81.5970612   0.7244559   9.5481863
  82.3889542   0.2504411   8.3485174  28.5814095   8.5594044   0.0872762
  28.5006084   9.3443060   0.6291556  27.7789574   8.5448256  -0.4343471
  57.5445213  60.8155479  40.8692665  57.4417534  60.8031654  41.8208542
  58.1651077  60.1101494  40.6861877  76.8504333  54.4736099   8.9378738
  77.4113083  55.2028961   8.6736860  77.0503311  53.7784157   8.3109922
  17.0062428  19.5959167  36.2014961  17.7541618  20.1221180  35.9187202
  16.9715729  18.8729172  35.5751534  62.1502838  46.9080772  78.4729996
  62.9471474  46.4346962  78.7120590  61.9261551  46.5760727  77.6036530
  10.5383663  62.7597313  25.0492973   9.8637228  62.1414185  24.7686272
  10.6344118  62.5995750  25.9881020  82.6406555  45.1289139   7.0550737
  83.1518173  44.4073524   6.6886096  82.4821243  45.7115440   6.3123507
   0.3913687  65.5896072  81.3174210   0.1156263  64.8417511  81.8474350
   1.2470994  65.3356857  80.9717712   2.4532256  67.0753860  20.8062515
   3.4051573  66.9753494  20.8134212   2.3067298  67.9903488  21.0462837
  64.1545792  62.9338531  31.8884640  64.3609085  62.7066727  32.7951317
  64.4886627  63.8246117  31.7827740  26.7059994  70.0279465  84.5507202
  26.4123745  69.5056839  85.2972183  26.7549744  70.9222183  84.8885117
   5.1058064   4.5864158  23.5676689   5.3552899   4.9636464  24.4112835
   5.0788083   5.3334770  22.9698372  19.9040318  50.8248978  14.9827223
  19.4146557  51.3713341  14.3677826  19.3700161  50.0364761  15.0799246
  43.2963181  65.9664688  57.8241844  43.3784027  65.4141312  58.6016312
  43.7351379  65.4722061  57.1318169  11.7125311  31.5037060  75.8517761
  10.7754545  31.6824169  75.9303970  12.0925722  31.8604107  76.6546249
  43.9193115  67.1683273  37.9416618  43.7474709  67.6331406  37.1227341
  43.1424866  67.3307648  38.4768181  19.4072704  69.1690598  86.2442856
  19.7598972  68.6131210  86.9391403  19.9650593  69.9468842  86.2536011
  18.3314457  17.8762302  57.6536636  18.2905807  17.1866188  58.3162346
  18.6020927  17.4246025  56.8542786  12.3873901  11.6346397  74.0889435
  11.7377253  12.3369036  74.1204605  11.8801298  10.8331432  74.2174759
  39.8482056  64.4030762  71.8808365  38.9226265  64.3537521  72.1197968
  39.8435860  64.5877762  70.9416351  54.1821861  28.7443085  26.5781918
  55.0877037  28.9862270  26.3838959  54.2318230  28.2834663  27.4156837
  63.5004539  45.4501190  87.3118896  64.3554535  45.5321732  86.8894272
  63.4631958  46.1865768  87.9221954  40.3748055  10.9421244  71.0058823
  39.9087143  10.4484701  71.6806412  40.2517166  10.4301548  70.2065277
  35.2245941  51.8860168  50.4002380  34.6958046  51.0956917  50.5097771
  34.8340034  52.5206947  51.0009499  32.9701118  16.9787807   9.1191359
  33.6962128  16.5587959   9.5802469  32.3324966  17.1757088   9.8053532
  26.1325283  39.6283875  19.6597881  26.0711651  40.3564835  19.0414505
  26.9416676  39.1772194  19.4190102   1.4048526  21.9530296  39.3086395
   1.2692331  21.9974232  40.2551422   0.6108803  22.3351746  38.9347343
  29.5450058  56.6682129  75.8018417  29.6237850  57.6176109  75.7087555
  30.1140900  56.3125877  75.1192703  67.3668747  30.1627560   6.9495463
  67.1594620  30.8082771   6.2738872  67.7931671  29.4486198   6.4757171
  29.0119190  66.4893341   4.9560256  28.5437450  66.0703659   5.6781855
  28.7223206  67.4013596   4.9799304  49.0833054  63.9210892  59.0492439
  48.9256897  63.2308998  58.4050217  48.9846916  63.4855309  59.8958817
  81.1018677  36.8022423   0.4665760  80.2869797  36.4343910   0.8084402
  81.7916031  36.3415375   0.9443257   2.8499446  57.6398048  18.8731995
   2.7215788  58.2413177  19.6066418   1.9959008  57.6013794  18.4426594
  76.8987198  48.0604134  52.7981987  77.5560989  48.3043251  53.4498024
  76.6251984  48.8919907  52.4110260  56.5811653  50.6840172  58.6218948
  57.3912582  50.3237419  58.2610893  55.9096947  50.4535370  57.9798393
  84.3316879  70.1841431  21.4079170  84.9079742  70.9481583  21.3876972
  84.3861008  69.8196411  20.5245075  63.4782562   3.1873901  11.8064146
  63.3052139   4.0810776  12.1024055  63.2902870   2.6415763  12.5699501
  37.0738792  65.7422638   7.3108997  36.1879234  65.8632736   6.9693341
  36.9450226  65.3898544   8.1914883  61.3454971   9.8826303  50.2449684
  60.4243813   9.6586285  50.1123199  61.8219833   9.2925673  49.6610031
  20.2974377  33.9587517  59.1759567  21.0074291  34.3169098  59.7087440
  20.5605659  34.1394424  58.2735443  10.1479750  63.2200279  20.5254002
  11.0659733  63.3433113  20.2839222   9.7073784  64.0053482  20.2007809
  59.6048088  55.1707916  36.8751907  60.1406517  54.3789139  36.9202423
  58.9730835  54.9931908  36.1783295  34.9549484  18.9956093   8.6209202
  34.2182083  18.4682350   8.9296560  34.6091766  19.4712067   7.8656178
  36.1465797   1.4413424  19.5299339  36.1087036   1.7466832  20.4363365
  35.2698746   1.6085823  19.1840267  52.9034462  61.3722496  71.5170746
  53.2116470  62.2620163  71.3451614  52.8202133  60.9758415  70.6498032
  54.3154373   1.6291827  54.1177635  55.2084045   1.4481484  53.8243942
  54.3212547   1.4131606  55.0502510  72.3358917  19.8163509  88.6416931
  72.5530853  19.9517899  87.7193527  72.1112366  18.8877773  88.7009964
   8.2226858  57.0233345  35.3382187   9.1185760  57.3493118  35.2524757
   7.9189439  57.3749275  36.1750870   4.4501262  43.3692245  19.9961834
   4.2944036  43.8245888  19.1687622   4.5757003  44.0704308  20.6355343
  41.0763741  48.6513596  27.2709770  41.7557793  48.0256233  27.5221615
  41.4411087  49.1099205  26.5140610  86.0514679  24.9887428  56.3441238
  86.2841873  24.7413349  57.2390327  85.2162323  25.4479542  56.4320984
  78.0607300   8.0059824   6.4468007  77.4831390   7.8415613   7.1921754
  78.7962646   7.4074612   6.5771627  62.4528084  14.9851332  40.0915489
  62.3507080  14.6414089  39.2040443  63.3622437  15.2811632  40.1305962
  13.3777199  64.8149567  54.0197334  13.1353655  64.5515900  53.1319618
  13.2018948  64.0414352  54.5554466  64.1256104  48.5732346   9.5327511
  64.0179672  47.6221771   9.5441723  63.2576332  48.9151039   9.7471809
  64.0935135  27.7850208   1.4103796  63.4507523  27.4558735   0.7820836
  64.9319992  27.4494362   1.0932870  76.4589462  62.8157845  73.2507248
  76.4508972  63.3264465  72.4411697  75.5398178  62.5979729  73.4056625
  41.2529831  20.6783199  65.4046021  41.8746414  20.2160587  64.8423920
  40.4465637  20.7153473  64.8902588  75.2957458  47.1590652  16.3001633
  75.2163620  46.9117737  17.2214546  75.7478409  46.4206276  15.8920603
  66.5205002   8.4934273  54.7756157  65.9021988   8.6197386  54.0559044
  67.2059937   7.9359670  54.4074211  30.9171486  68.2115250  75.0623245
  31.0228462  67.3111038  74.7552490  30.3010445  68.1450195  75.7918625
  60.2488785   4.1919670  82.3188248  61.0763168   4.6705284  82.2682800
  60.4806061   3.2892096  82.1007385   2.2000535  64.8416901  71.5834198
   1.5631590  64.5924835  70.9137192   2.9127097  65.2534866  71.0947647
  69.7753754  53.7668877  47.9595833  69.7557983  54.6896820  48.2131538
  70.4473267  53.7195740  47.2795258  61.0704918  66.9542465  18.9512596
  61.2437592  67.1174088  18.0241203  61.9298859  67.0103531  19.3690186
  38.2506523   5.5472422  25.5492554  37.5422630   5.1762176  26.0753307
  38.4883842   4.8479562  24.9403915  34.4272194   9.9363537  53.6148491
  34.5027962  10.6914635  54.1982231  35.2837067   9.8736296  53.1920853
  60.6841125  10.6856174  15.4957466  60.2143402  11.3706951  15.9713659
  60.9537239  10.0654945  16.1732368  15.4212217  37.9875603  28.3862095
  15.5671835  38.1131363  29.3238449  14.8428545  37.2266655  28.3336391
   6.2928886  47.5680962  83.0527039   7.2113295  47.3413582  83.1986084
   6.0197730  47.9953346  83.8645554  62.2043800  37.2428131  50.6725502
  61.3888092  37.0369759  51.1293945  62.3657112  38.1645584  50.8740234
  83.9359818  33.8586044  17.3773785  82.9941330  33.9787827  17.2560577
  84.1244736  33.0143929  16.9674873  20.9397602  10.2061701   0.0787479
  20.9216671   9.3045845   0.3997607  21.6856632  10.6050272   0.5268254
  24.4136105  42.6698341  54.2092743  23.6266766  42.9848061  53.7645721
  25.1030788  42.7310829  53.5481300  11.1165724  36.1500511  30.6418915
  11.0367956  35.9824982  31.5809307  10.2937441  36.5774155  30.4040966
   7.7887568  22.5149803  43.5667953   8.6641417  22.8178368  43.8080635
   7.8210683  22.4231873  42.6145554   5.7312517  38.6240349  48.7689247
   5.2907372  38.6270714  49.6187286   6.5395308  38.1340065  48.9198799
  30.6712341  49.6367607  38.8356438  30.4365273  49.2190552  38.0069923
  31.6185532  49.5178070  38.9039574  70.1264572   1.5937266  46.3491707
  69.1878281   1.5172251  46.1778526  70.3505783   0.7900563  46.8183365
   9.1742182  60.1430283  72.5024872   8.9371004  60.0104637  73.4203262
   9.6797075  60.9558716  72.5006943   7.3816199   9.1119890  40.9728546
   7.9292779   9.4422331  40.2606430   7.9906707   8.6498413  41.5487938
  71.9121780  45.3785820  33.2819557  71.6811371  46.3074684  33.2773705
  72.8569183  45.3675117  33.4354935   2.5112996  41.1659584  20.0704155
   3.1295824  41.8701324  20.2656002   1.9489480  41.1198235  20.8436337
  55.8064270  12.7159386  49.0736465  56.1942368  13.0278893  48.2560158
  55.1917267  13.4051256  49.3254318  66.6620865  57.8142548  28.7319736
  67.0024948  58.6444702  28.3986549  66.2989349  57.3776474  27.9614391
   3.9779563  54.5556526  79.3740921   4.4898114  53.9837875  78.8020782
   4.1584673  55.4391823  79.0531158  74.9190750   5.3660917  49.2668610
  74.5338974   6.1873598  48.9612694  75.2082901   5.5547652  50.1596031
  71.8040085  45.1225891  64.1646347  71.9284210  44.3904686  64.7685852
  71.7673035  44.7154884  63.2990990  85.7663422  39.5231552  21.7600212
  86.0623322  40.4157448  21.5814056  86.5184402  38.9730682  21.5409718
  19.3675079  44.4376602  81.6875839  20.0861473  44.8199196  82.1912384
  19.7368755  43.6385002  81.3118973  52.4446373  56.7438812  58.6845589
  53.2060242  56.9886932  59.2104797  52.4138832  57.3996124  57.9879265
  63.5281944   4.9298224  29.2052059  64.2442093   4.3141928  29.3619232
  63.8054619   5.4291615  28.4370823  59.6504593  61.4587059   0.3361277
  59.3304253  61.9644699  -0.4108741  59.2864418  60.5830269   0.2061035
  34.0072632  32.7849770   6.6097136  34.6091042  32.1331291   6.9690332
  34.3473015  33.6231956   6.9227581  69.5908737  69.8871231  81.2950897
  70.1540375  69.3933792  81.8911591  69.6779099  69.4365997  80.4550400
  73.4716721  39.6189194  35.0728416  74.2551651  39.3150749  34.6145363
  73.5323715  40.5737495  35.0438156  45.8383942  70.8459549  54.7656288
  46.6665764  70.5025635  54.4303207  45.4061546  71.2205582  53.9981194
  80.6724091  40.6244087  88.1210251  81.5126877  41.0015221  88.3816910
  80.0728683  40.8638687  88.8277283  20.9404373  26.7741489   8.8204355
  21.5605583  26.1635227   9.2189512  20.8123169  27.4523373   9.4836693
  73.9976120  70.8236465  58.5411835  74.9476318  70.7157135  58.5863457
  73.6483307  70.0769119  59.0276108  35.2318993  20.6154823  29.3132534
  35.5531998  19.8293591  29.7548504  34.8207321  21.1294651  30.0082321
   9.8944492  64.2578125  40.6927834  10.2663012  63.3759155  40.6781082
   9.0106993  64.1509933  40.3409195  55.3005219  63.7690125  87.6819687
  54.5511208  63.7243767  87.0881271  55.0131607  63.3008614  88.4658585
  82.0243912  35.8567619  63.4627914  82.0602875  34.9015808  63.4120674
  81.4856339  36.0356064  64.2334976  14.8293247  45.2245827  83.1180649
  15.1417494  44.7033997  82.3784790  15.1934557  44.7890778  83.8887634
  63.0967026  66.6295471  88.4577408  62.8236732  66.1962280  87.6490936
  62.3783226  67.2278290  88.6632080  17.9157219  10.6766453  38.3114166
  17.4015102  11.1826172  38.9405518  18.6305447  10.3062315  38.8291550
  84.9007645  14.6371069  62.9918633  85.8076630  14.9125137  62.8580360
  84.5941010  14.3904915  62.1192970  30.1474209  40.9701881   6.3725662
  29.6624336  40.6213074   7.1204329  29.9499760  40.3665810   5.6563911
  63.9295807   0.5712750  80.3905334  64.5185928   0.9141050  79.7183990
  64.4930649   0.0431758  80.9560623  58.7960930  12.8863735  45.1623535
  58.6284828  13.2054005  44.2755852  58.1865997  13.3779192  45.7129288
  84.1053696  30.1967335  81.9462509  84.5016327  31.0612755  82.0547485
  84.4991760  29.6643124  82.6373901  27.9347820  70.0898132  69.1770096
  27.0477180  70.1867142  68.8306580  28.2304096  70.9867935  69.3327408
  72.3375092  18.4204311  15.0788279  73.0246735  18.8906975  15.5509377
  72.8107224  17.8356266  14.4869652   5.4641452  57.5714073  86.7357483
   5.5431008  56.9557800  87.4644470   4.7247424  58.1307411  86.9737930
  59.9705238  45.8098412  67.1120300  59.7171593  45.9368706  66.1977539
  59.7491837  44.8972015  67.2973175  36.9140129  67.4948883  80.8228531
  37.4461975  67.8582153  81.5306702  37.5067749  66.9064255  80.3553391
  12.9341898  31.0049305  53.2161827  12.5322104  30.6648998  54.0155716
  12.7212601  30.3554554  52.5460510   5.5350957  66.9593048  41.3853645
   5.3338847  66.0235062  41.3806000   6.4291482  67.0103378  41.7234421
  19.3163605  51.6045189  18.0405636  19.8004036  52.4154243  18.1966743
  19.5682011  51.3419113  17.1552124   5.9553280  56.5572739  70.1541595
   5.2013130  57.1131210  69.9573669   5.7428107  56.1546402  70.9961548
   0.6954993  25.5766010   8.7997169   0.3051792  26.1151047   8.1113167
   0.3164743  24.7075863   8.6678648  80.4366531  69.9074173  47.2283974
  80.9904785  70.2167206  46.5115662  79.5512466  70.1711655  46.9779625
  49.2380829  48.0906105  12.2705784  49.2672539  47.8566246  13.1982813
  48.7149467  47.3989258  11.8654451  62.6559601  42.3502388  32.1082039
  62.0115738  41.9850235  31.5018921  62.9116211  41.6109886  32.6599083
   9.5875521  22.2325363  74.4360123  10.0931358  23.0446930  74.4041061
   8.8720388  22.4195442  75.0437164  67.9273224  16.6531944  11.7530222
  68.3499680  17.4729996  11.4970551  67.5965500  16.8196659  12.6356936
  57.1429710  47.7219429  84.4280396  56.9059372  48.6469421  84.3615265
  57.7449608  47.6817932  85.1711655   7.2625213  59.7225380  70.8329620
   7.1271563  58.8026161  71.0602264   7.7477942  60.0836296  71.5748215
  67.6050186  44.1111221  72.9813690  68.1872787  43.3514748  72.9692459
  67.2181931  44.1303940  72.1060333   6.4030700  40.9957619  88.5390472
   5.7600660  40.5381508  89.0806808   6.0720515  40.9043465  87.6455688
  79.5047760  13.7088842  65.3579102  80.2464218  14.0659542  64.8693466
  79.3241196  12.8677864  64.9382019  14.9351730   6.0799413  35.5831108
  15.0743093   5.4806423  34.8498192  14.0934477   5.8140907  35.9533195
   1.0181948  65.9773636  55.5982475   0.3089340  66.6002579  55.4395523
   0.8603254  65.2701950  54.9727745  18.0029144  17.9063568  17.5379963
  18.2673512  17.6939812  18.4330940  17.4368343  17.1800327  17.2767715
  70.8268280  42.8630524  20.0043964  70.1234283  43.1292229  20.5965195
  70.4910965  43.0599060  19.1298904  10.9137611  21.3162708  52.2285080
  11.5178366  21.9858551  51.9075966  10.6240482  20.8573570  51.4400291
  16.1708508  33.2712593  67.3854675  16.6067009  32.4686966  67.6721115
  16.8806515  33.9047394  67.2800369   0.5815107  22.1252441  57.8220482
   1.4554603  21.9659557  58.1785164   0.7004104  22.0926113  56.8728218
  67.9078445  20.8960247  68.1843414  68.1798706  21.6442242  67.6529007
  68.7282867  20.4984550  68.4759674  47.9880142  60.8119583  32.2779999
  47.7234077  60.7077560  33.1919823  47.2328529  61.2208099  31.8551502
  32.8332672  42.2635193   1.0472471  33.3307076  42.3020096   0.2303618
  32.7965546  43.1713943   1.3483213  18.5484772  20.8653793  82.0786285
  19.2380009  21.4577255  81.7787704  17.7402115  21.3681297  81.9777298
  71.4534073  29.6642475  10.4449053  70.8792191  29.5592899  11.2035360
  70.8701172  29.5843639   9.6901703  32.4292259  54.1318703  85.1741638
  32.3038177  53.8733902  84.2610931  31.9083672  54.9290771  85.2711105
  18.5854244   1.4585086   3.7387967  19.5277672   1.5036922   3.9006021
  18.3257866   2.3661330   3.5805619  28.0931168  37.7084198  19.1734962
  27.5189972  37.2485237  18.5610256  28.2024269  37.0986633  19.9032078
   3.1967151  32.8077774  56.1168365   2.6979747  33.6176300  56.0090065
   2.5745468  32.1933823  56.5062714  60.6344643   1.4473678  57.0758133
  61.5762901   1.3727870  57.2295609  60.3392677   2.1007969  57.7099457
  31.0098705   3.3552110  20.9517365  31.8434887   2.9501517  20.7124901
  30.9932785   4.1768928  20.4610271  83.7160034  47.8621140   2.8605201
  84.4543839  48.4574699   2.7317967  83.9157944  47.1090202   2.3044920
  56.7526550  50.4988670  19.1607666  56.7708778  51.0833702  18.4029694
  56.3815880  51.0308495  19.8647079  27.5727558  69.1279144  45.5152626
  27.2474632  68.2282333  45.5466995  28.2240219  69.1227493  44.8137932
  21.3091431  68.5715942  45.7120018  21.9921780  68.5549011  46.3823891
  21.0722275  67.6524429  45.5885086  71.2490387   9.2889442  71.7548294
  71.3445816  10.2334461  71.8773880  72.1467819   8.9647388  71.6828690
  70.5057449  49.4764900   5.7115445  70.5980072  48.8371964   6.4179621
  70.5725174  50.3261681   6.1472239  59.9383965  26.8560810  40.4797745
  60.3807526  27.7043438  40.5114555  60.1797485  26.4917545  39.6281624
  56.6452560  48.3386421  64.8704987  56.2853622  47.7785530  65.5582581
  57.3623886  47.8271599  64.4958878  17.3164711  64.5103989   5.1704125
  18.2332306  64.3940582   5.4199042  16.9625034  65.1067047   5.8302293
  17.8647690  57.6740646  70.8573837  18.3662148  57.6365509  71.6718674
  17.1391048  58.2678108  71.0500183  41.2837029  62.9465904  49.7046738
  41.1854210  62.1054802  49.2584610  41.4838371  63.5674171  49.0041351
  49.2165756  52.0950050  39.2366066  50.1491547  51.8839912  39.1918411
  49.1761703  52.8901939  39.7679024  54.7520828  35.3209877  31.7093620
  54.9711189  36.1251373  32.1801071  54.3812370  35.6224136  30.8799934
   8.8287849  40.9262657  23.6138058   9.4242163  40.2308388  23.8932247
   8.3077936  40.5293808  22.9157486  15.8701897  46.6448593  69.3953857
  14.9867125  46.8756447  69.1082611  16.0230007  45.7755775  69.0249405
  16.7587967  22.3673763  73.9342117  17.5328197  22.3710461  74.4973373
  17.1079006  22.2740002  73.0478516  56.1901970  23.0157127  28.1232185
  56.3882408  22.1227360  28.4053555  55.2339516  23.0573826  28.1137428
  17.8480968  64.3063965  57.9600143  18.4491615  64.9402618  57.5686493
  18.4175053  63.6844254  58.4129562   2.1623204  60.8650475  10.1970682
   1.9241902  61.5240669  10.8491592   1.4395350  60.2377739  10.2154818
  38.6095276  24.2345905  33.1413231  37.6997948  24.4284515  32.9154205
  38.5682487  23.3978539  33.6043587  63.5314140  42.2655716  73.7457047
  62.5888100  42.1047440  73.7025757  63.6124611  43.2192574  73.7338257
  17.3975525  18.7552395  63.8784790  18.3006496  18.4379959  63.8803864
  17.0446491  18.4783783  64.7240829  62.7215652  58.6244583  30.5401039
  62.8800926  57.7466431  30.1929111  62.2617989  59.0812149  29.8356743
  27.0936165  67.6766968   7.8331313  26.9486618  66.8970871   7.2970161
  27.4234600  68.3321381   7.2184472  13.8469667  42.5567093   3.9959402
  13.8092089  42.5262299   3.0399709  14.3881035  41.8052826   4.2383447
  31.2059021  68.8110275  71.0921402  31.6790218  69.6248398  70.9186172
  30.5472202  69.0512009  71.7438202  71.8534927  16.2563381  43.3945656
  72.3131943  16.6336060  44.1446152  71.1326141  15.7590160  43.7808800
  61.5818901  69.3267822  70.2946091  60.7363853  69.0928726  70.6775436
  61.3950348  70.0919800  69.7507553  65.9694214  32.4425659  16.6412277
  65.8661118  31.6960278  16.0511093  66.0719833  33.1955376  16.0592117
  65.8970642   2.7611463  47.8031349  64.9557571   2.6556737  47.6651649
  65.9845657   3.6239533  48.2082748  57.6981316   5.9806094  31.7801933
  58.3353577   5.3982596  32.1937675  58.0531807   6.8591185  31.9158249
  40.6503716  62.8089828  57.0979462  40.0855865  62.1331062  56.7231903
  40.0468063  63.4117126  57.5322914  83.2979126  15.7749605  69.4239578
  83.6588516  16.4696503  69.9747391  82.3780823  16.0137386  69.3093262
  76.4105301  51.2667542   3.4237225  76.8678360  51.9576912   3.9030042
  76.7508545  51.3287964   2.5312202  42.2321434  69.1377411  21.8218002
  42.7144966  69.7571182  21.2741318  41.6181145  69.6818237  22.3149300
  53.6772537  59.7782936   1.8906426  54.2564926  59.3001099   2.4839835
  54.0065079  59.5713081   1.0160110  56.5422707  47.2642288  27.5711994
  56.3750877  48.1524086  27.8865070  55.8249779  46.7430420  27.9318771
  50.1805916  68.1475754  32.0101280  50.8594627  68.1544113  32.6849060
  49.3575745  68.1751022  32.4981003  32.2485619  25.2284698   4.6477256
  31.5641041  25.1506405   5.3123236  31.9349957  24.6951046   3.9173641
  52.6250877  70.0160751   0.8826728  53.5260963  69.7193069   1.0105108
  52.6928711  70.7134781   0.2305416  64.6439590  25.0694008  88.9699783
  65.4389801  24.6790352  89.3329926  64.9395599  25.5265942  88.1826859
  75.1670303  11.8219805  53.5762444  74.3217239  11.7648821  54.0216942
  75.2105942  11.0285721  53.0425453  21.4056034  51.5799179   9.0003929
  20.4609890  51.7150192   9.0757637  21.6188221  51.8687744   8.1130762
  41.1635284  68.9799957  52.1190567  41.6933060  68.6219864  51.4067383
  40.2990875  69.1142349  51.7305260   3.6475737  38.8989487  82.9493866
   3.2058733  38.0534630  82.8701019   3.0712745  39.4186249  83.5097885
  59.4527893  46.0837402  88.1485062  59.9542351  46.8570671  87.8901520
  59.3474045  46.1720848  89.0957794  18.5889473  17.1304111  37.4565353
  18.8764324  18.0308170  37.6077118  18.0657654  17.1771870  36.6563301
   8.3711615  30.3782368  43.5919113   7.4155374  30.4326477  43.5845833
   8.6613131  31.2103996  43.2183456  75.6354065  21.7442837  68.5485840
  75.8635025  22.5001106  69.0898209  76.0935669  21.8947868  67.7217407
   0.4795489  47.9993591  20.0423527   0.2674892  48.8919029  19.7691689
  -0.0303429  47.8659096  20.8413734  78.5548096  36.6263733  73.3463593
  79.2716980  37.1987648  73.0730896  77.9743881  37.1945724  73.8528061
  80.4469910  24.7711411  13.3825760  79.8402863  24.1448421  13.7774019
  81.3153992  24.4431858  13.6161280  10.5995617  18.3606777  13.3012781
  10.3761568  17.4692898  13.0334177  11.3051825  18.6191845  12.7083998
   5.2050934  61.9321899  77.4140854   5.1595988  62.2860374  78.3023148
   5.0848851  62.6935349  76.8465195  45.5303917  11.0043297  15.6883736
  45.0612602  11.8057518  15.9204760  45.8519249  10.6646137  16.5235043
  68.8181686  36.5192146  18.2194214  69.4995346  36.8496666  18.8048897
  68.1284027  36.2085762  18.8059082  60.4925041  63.4257698  61.9466248
  60.2652664  63.2856140  62.8658371  60.4140511  62.5600739  61.5458221
  47.5619278  40.0796051  17.9028950  47.6489601  41.0227089  18.0415077
  47.5732193  39.9753075  16.9514599  75.3524323  41.8329315   3.8283768
  76.1674652  41.3310165   3.8216548  75.4629517  42.4595833   4.5434475
  16.2511349  48.7585106  44.4074287  16.4901524  47.9400864  44.8425026
  16.2688198  48.5475540  43.4739342  35.8071251  51.2053833   2.2005608
  36.5076637  51.3975983   1.5772357  36.2571297  50.8351822   2.9599528
  18.2558250  60.5925446   6.2538371  18.6210918  60.5994377   5.3690972
  17.3165112  60.4617691   6.1241484  51.1574898  16.2143402   6.0790157
  50.9090195  15.3001165   6.2157345  52.0502853  16.2733250   6.4191103
   9.3840818  66.2682495  50.8694153   9.1062031  65.7051849  50.1469383
   9.0769272  65.8176193  51.6560707  32.9061356  68.4467926  32.0667038
  32.7749252  68.7080917  31.1552563  32.1597900  68.8227539  32.5334587
  56.0373573  62.3583717  38.6730156  56.1506042  62.0678291  39.5779991
  56.9277153  62.5157127  38.3587837   8.3760042  32.5302391  62.3926468
   8.8532734  31.8278809  62.8343925   8.4492197  33.2787857  62.9847145
  81.5833054  21.7680950   3.5243235  81.6144867  20.8834343   3.1601317
  80.7215424  21.8270760   3.9367783  48.6265831  20.9338570  30.8206882
  48.5545616  20.4188690  31.6243248  48.1601143  21.7468948  31.0146179
   4.0682092  17.3101997  30.2270660   4.1145005  16.4107323  29.9029541
   3.9348812  17.8411598  29.4418678  77.0618057  62.9759674  60.7525368
  77.4711227  62.9146080  61.6156273  76.5097733  62.1962357  60.6932678
  85.6295547  58.6514931  68.1591949  86.0356598  58.0864792  68.8165207
  86.3446579  58.8806877  67.5656204  59.9349060  49.3316994  33.4737053
  59.0860901  49.0742149  33.8334885  60.5056305  49.4089546  34.2382545
  78.1847153  48.9037094  77.0826569  78.1305313  49.4552956  76.3022385
  79.1032562  48.9528961  77.3474121  42.8141861  31.7590237  15.7053776
  43.4075699  31.8359356  16.4525108  42.9684868  30.8771152  15.3667603
  29.0762081  56.4733963  25.7061768  28.4891968  57.0795135  25.2542114
  28.5128555  56.0138359  26.3288078  29.9511166  59.4763298  75.5447769
  29.7654648  59.7060013  76.4552765  29.2354965  59.8720398  75.0472488
  34.2215233  62.4074974  52.3550720  35.0622406  62.3240547  52.8050346
  33.6298943  61.8364372  52.8450661  19.9340248   4.3707485   6.4737697
  19.7520638   3.4902425   6.1453929  20.7398586   4.6310124   6.0275331
  37.8302155   4.4916553  39.2705498  37.3415070   3.8103132  39.7322502
  37.8446350   5.2302594  39.8792267  20.4468632  69.1121826  25.6574211
  21.1458282  68.4585419  25.6365223  20.9037685  69.9526062  25.6234360
  84.2462692  21.6608639  72.2234268  84.1089859  22.4282055  72.7789230
  83.9394073  21.9332409  71.3586273  70.4345398  25.3399792  76.6879120
  69.9191742  26.1358280  76.8192902  70.4840546  24.9406013  77.5563965
  18.7809925   9.5063772  30.1781178  19.2720814  10.3104267  30.0090981
  17.9078236   9.8073940  30.4295025  63.0394173  47.2334557   0.2962114
  63.7955246  47.3336792   0.8745589  62.5493660  46.4998665   0.6676063
  44.9484329  30.6049175  86.1917801  45.2333832  30.4714222  85.2877808
  44.6212730  29.7490311  86.4686508  33.3377457  13.6863937  57.7218590
  33.4255219  14.4766550  58.2547874  32.4413071  13.3898687  57.8790245
  53.6671753  10.7417192  24.5143013  53.3671227  10.8242340  23.6091003
  54.5893364  10.9966707  24.4851379  37.7253380  57.4586601  53.7084312
  38.5145226  56.9713478  53.4719009  37.0724792  56.7830048  53.8914604
  61.0703545  57.7190971  50.0673523  61.4253273  58.4427681  49.5510902
  61.0132294  56.9898643  49.4499474  55.4810410   5.1383114  35.4804878
  55.9820061   5.9415464  35.3387947  55.4794655   4.7034502  34.6277733
  30.5043144  53.0293236   2.4738469  31.2755222  53.3344688   1.9959813
  30.5968094  52.0768280   2.4946575  39.2925797  14.1492147  86.8529968
  39.3712273  13.2180214  86.6458130  39.4994469  14.2053251  87.7858887
  48.0861282  27.7394543  18.7888298  47.4564095  27.2062092  18.3037128
  47.7183533  27.8017330  19.6703587  56.2757416  20.0351410  13.8361712
  56.5781326  19.3908463  14.4762306  55.5724640  20.5055542  14.2837687
  23.4511528  41.9329567  15.1618986  24.2877216  41.5803032  14.8585548
  23.3720798  41.6202736  16.0631237  70.3405991   0.6933541  65.1237183
  70.9336166   1.3997430  65.3797989  70.4183578   0.0485976  65.8269043
  57.3787193  68.0946121  18.6205482  57.4775276  67.7895126  17.7186718
  56.5205879  68.5183487  18.6373901  74.0885468   2.5217910  27.1678867
  73.9005814   2.0583785  27.9840679  73.2276382   2.7607405  26.8244038
  29.8212147   2.8778489   3.1665461  30.4518700   3.5911725   3.0681858
  29.6910839   2.5488577   2.2771289  81.5728073  39.4530220  35.4956551
  81.3875427  40.0066795  36.2541885  81.4767456  38.5586014  35.8227921
  70.1291122  11.6335974  81.9892502  70.4190063  10.7254305  81.9030914
  70.6148682  12.1052914  81.3126602  11.0756302  52.3613014  15.6243019
  11.5633535  51.7516594  16.1781006  11.5305023  52.3365288  14.7824526
  25.7950401  29.0666084  24.0194931  26.5466976  29.1378498  24.6078510
  25.5595837  28.1391163  24.0429459  14.7416706   2.4677038  75.9423141
  14.2421598   2.7431564  76.7109756  14.1066589   2.0017347  75.3983765
  58.7462044  20.2249928  41.8374863  59.0725021  19.4564533  41.3693924
  59.1395035  20.1602383  42.7077446   6.0027170  68.5879745  45.7230721
   5.5314698  68.5728836  44.8900490   5.4790220  68.0367279  46.3045349
  38.4595375  47.4831734   3.3038952  38.0925179  47.7556419   2.4628885
  38.7887115  46.5983009   3.1461680  81.2455368  64.5086365  65.8231888
  81.7270966  64.2815094  66.6186447  81.5326767  63.8635368  65.1769485
   1.4860557  49.3309746  70.3698654   0.7305821  49.2480011  69.7879639
   1.1060510  49.4667244  71.2378540   5.9793677  23.4291000  79.1536560
   6.1872611  24.1576519  78.5686569   5.3765469  23.8026466  79.7965393
  64.7139893  13.5152264  14.9025059  65.2213898  14.2031221  15.3332949
  64.2689743  13.0618248  15.6184797   0.2069044  18.5103359  22.9422359
   0.4506673  19.4336147  23.0083103   0.7779376  18.0663929  23.5691872
  15.8590412  55.7117920  72.4759293  16.6138935  55.8210831  71.8975830
  15.9622049  54.8329353  72.8408966  13.0543680  40.5087357  27.4808197
  13.0536032  39.6932449  27.9820194  12.3717928  40.3851357  26.8212395
  47.1735916   2.2446702  60.6666908  46.6344948   1.4617430  60.5542908
  46.5431404   2.9523976  60.8004379   4.7677302  69.2422256  27.2267017
   5.0856833  70.1044159  26.9588089   4.8240891  68.7091370  26.4336872
  82.7303238  51.9540939  33.0822067  83.0904236  52.8113899  32.8550415
  81.7966080  52.1149445  33.2183647  35.8473892  39.2230072  28.7449131
  35.5082359  38.3575668  28.9734211  36.5709152  39.0456696  28.1438370
  21.9683361  61.3971252  61.7450333  21.1663818  61.8728600  61.9613152
  22.6049709  61.6924782  62.3959503  72.1366196   9.6912985  13.2095404
  71.4004364  10.2594824  12.9827719  72.5874939   9.5404186  12.3787680
  51.7381020  49.9796257  74.3852081  52.2316589  49.5835381  73.6670532
  51.2829399  50.7196693  73.9834747  19.1598988  60.5416298  71.7230988
  19.6428070  60.4962502  72.5483093  18.2396374  60.5670700  71.9852066
  73.0584488  30.5993710  17.8042889  73.0631943  31.5472698  17.9373169
  73.0020752  30.2338886  18.6871681  73.0579300  61.4456787  11.3706818
  72.2863235  62.0093803  11.3150663  72.9086914  60.9116669  12.1509314
  15.2966642  41.5534859  80.3185272  15.8409758  42.1541061  79.8094025
  14.4322195  41.6100578  79.9113846  73.9050674   0.4566930  36.0426712
  74.2856140   1.2988621  36.2920036  74.6063156  -0.1770966  36.1936264
  63.3322258  40.0958405  34.1181259  63.7156601  39.4538498  34.7156754
  63.8621902  40.8834724  34.2406044  32.3469620   1.5186125  57.9649467
  31.6227798   0.9677627  58.2621956  32.2636986   2.3217077  58.4790840
  81.8795242  58.1767654  58.7306938  81.6753769  58.2616806  57.7993813
  82.5565872  58.8347435  58.8884392  73.6287384   5.2439084  68.1796494
  74.1440125   4.4763017  67.9316483  73.1503906   4.9687872  68.9617767
  37.0931816  66.9457779  72.8612137  37.5360146  67.4621811  73.5346069
  37.4510002  66.0636978  72.9618912  26.1884346   3.4141374   8.4333982
  25.4457874   3.8836741   8.8131905  26.4727859   3.9653389   7.7043209
  78.5073013   2.3463576  58.1887665  78.2922363   3.1350179  58.6867561
  77.8865662   1.6885310  58.5021095  59.0713463   1.7474413  32.8736038
  58.6309509   1.6149194  33.7130814  59.8739853   1.2301334  32.9399071
  60.6504707  67.8509293  89.1083984  60.0996246  68.2183685  88.4171829
  60.0917931  67.8515930  89.8856506  26.6638756  71.2931900  10.2155676
  26.3673935  70.4162064   9.9722166  25.8955231  71.8496780  10.0883102
  64.4019394  16.9269199  83.7985001  64.4730988  16.5353012  84.6690140
  64.1896744  17.8452091  83.9655991  44.4861641  51.4584274   7.8383913
  44.1120262  50.9499245   7.1188927  44.5615807  50.8334770   8.5594912
  52.0427628   7.7369976  42.1485405  52.0586090   8.6062927  41.7481575
  51.1618233   7.6578703  42.5144806  74.0589294  65.9500427  60.1551628
  73.2538300  65.4596481  59.9891396  74.2066650  65.8563995  61.0962486
  60.7319756  22.9810505  43.8374557  60.9261513  22.0446262  43.7969856
  61.5872803  23.4059982  43.7733955  73.4355087  37.0651512  10.8851805
  73.0907974  36.2884331  10.4445982  74.2737045  36.7813644  11.2500372
  55.7835312  55.4214859  60.2435684  54.9603195  54.9790344  60.0367126
  55.8886642  56.0696526  59.5471077  67.1662674  18.0856495  43.1120491
  66.4175034  18.6644192  42.9684792  66.9415512  17.2823486  42.6425323
  52.8788185  18.3348103  34.3033676  52.0960617  18.3166275  34.8539963
  52.8831406  17.4838772  33.8650475  16.3709698  20.9636440  60.6997681
  16.1113338  20.4089031  61.4353485  16.3636780  20.3772221  59.9432716
  10.9973679  25.2017498   5.5695987  10.6868610  25.2938023   6.4703445
  10.2128963  24.9818478   5.0671248  79.1010971  27.0459919  13.7162724
  79.4698563  26.1664009  13.6352472  79.7354279  27.5233116  14.2510796
  29.1192570   7.6529689  34.3564987  28.2909927   8.0181170  34.6677475
  29.7570286   8.3530207  34.4958115  79.8146362  15.3064299  23.1589527
  80.7052612  15.6515675  23.2214394  79.8997040  14.3810873  23.3885975
   5.8246694  62.6484184  52.6824226   5.8022528  63.0901985  53.5312805
   6.6347027  62.1387100  52.6990013  64.0310669  30.9185467  75.0447464
  63.1239204  30.6437340  75.1781387  64.2990723  31.2784824  75.8902359
  39.3431282  57.6256180  26.8520107  39.9279671  57.2625999  27.5171528
  39.1534767  56.8883781  26.2717171  39.0937767  61.0580826  46.8993683
  38.4546127  61.6163177  47.3421669  39.7678757  61.6637268  46.5911179
  73.8347549  50.9778442  62.1502380  74.3437195  51.7827644  62.2466240
  73.1053467  51.2224350  61.5807037  78.9404984  22.6230888   5.5609570
  78.2620316  21.9998226   5.3012347  78.6897354  23.4420147   5.1335092
   7.9621248  17.5794353  40.0362015   8.4969883  16.9739532  39.5228310
   7.6529965  17.0573158  40.7765121  13.5209303  59.6334534   9.3842373
  13.1078453  60.3273010   8.8702679  14.4282150  59.9202385   9.4882526
  22.3244953  31.8373432  26.5336208  23.0737267  31.8355999  25.9379005
  22.6337376  32.3106461  27.3060112  56.6922874  55.3129692  76.4072266
  56.6936798  54.6063766  77.0529480  56.7132950  54.8647881  75.5616989
  45.2326775  45.1115036   5.8598723  44.6351204  44.7362175   6.5066490
  44.7761421  45.8869591   5.5335646  63.7764473   1.3848548  14.6157417
  64.6558609   1.0852818  14.8462315  63.7053452   2.2506666  15.0176706
  83.4918213  61.0907326   2.1820381  83.8281097  60.3132401   2.6277325
  82.7543030  61.3758430   2.7214868   6.8195796  60.6882553  10.4151754
   7.0776720  61.3035202  11.1015224   6.0002332  61.0435829  10.0707245
  28.6599522  41.5847855   2.9655044  29.1886749  40.8879890   2.5767105
  28.4470749  41.2634087   3.8416512  15.2594395  13.4996386  88.6476440
  14.3154039  13.4599533  88.8007812  15.4337549  14.4228201  88.4643860
  61.0437469  29.6118679   0.6858277  60.9754829  28.7792377   1.1530529
  61.5725479  29.4106140  -0.0862467  78.3975906  23.1689129  23.9867878
  78.3171844  24.1188145  24.0731201  77.5671158  22.8271580  24.3180618
  10.2560854  35.2524414  27.0558681   9.9786921  35.6535072  27.8795357
  10.3566656  34.3235130  27.2637215  30.8728333  13.4224672  20.7335091
  31.1473999  13.6167774  21.6296616  31.5674076  12.8628378  20.3862190
  30.7237453   6.9835205  88.5436020  30.3358288   6.3348255  87.9562836
  29.9756851   7.4674225  88.8935699  69.0465393  49.0358353   8.3558617
  68.5715103  48.2458534   8.0979815  69.9462738  48.7398796   8.4941301
  69.3789978   0.5743669  71.3158493  68.5131760   0.9786139  71.3720703
  69.4839096   0.1159687  72.1495743  15.0529556  51.5225296  48.1299553
  15.3457594  50.9940987  47.3874855  15.3911753  51.0635109  48.8988113
  82.0266266  65.3318329  77.3449783  82.0796051  65.4612198  78.2919083
  82.9340973  65.3839874  77.0449677  52.3467979  19.1272354  80.9054871
  53.0695686  19.5382271  80.4312286  52.3709641  19.5290470  81.7739334
  34.6347733   7.4078355  11.4899549  35.2452507   6.7117171  11.7327919
  33.9037323   6.9509506  11.0739431  85.3848343  71.5994644  52.1732559
  85.6407471  70.8642349  52.7301903  84.4380493  71.6727905  52.2934647
  69.8469620  66.0268402  83.6072769  69.9139938  65.0775299  83.5046234
  69.8296356  66.3639755  82.7115784  43.7657356  12.7902708  66.8150864
  43.7512627  12.8233719  65.8585663  43.0060959  13.3067884  67.0841370
  15.5885487  21.8590145  71.1233139  14.9336443  21.8435917  70.4253922
  16.3495445  21.4164352  70.7474899  60.2972603  48.0628777  48.0733185
  59.7150078  47.6823502  47.4157372  60.9945183  48.4770775  47.5648880
  80.8685684  28.5445652  34.4623947  81.2172623  29.3972721  34.7222748
  80.0578461  28.7492256  33.9964752  58.1295128  35.5655708  69.5137024
  57.6981506  35.6659012  70.3622818  58.0709190  34.6290894  69.3244705
  65.0956955  58.5820274  65.5994492  64.2691803  58.8771744  65.9815369
  64.8406296  58.1376228  64.7909470  26.4485626  38.5257568  56.5314674
  25.9648170  39.1838799  56.0323715  26.8117809  39.0077896  57.2743988
  40.3073578  60.7977715   1.0491005  39.5540009  61.2311935   1.4501387
  39.9933777  60.5189857   0.1889096  48.2917671  52.9977875  16.1459885
  47.5909500  53.2865868  15.5614548  47.9105644  52.2684975  16.6349182
  27.0581284  43.0697479  10.9844971  26.8710938  43.6612015  10.2555046
  27.9309788  42.7252693  10.7955561  15.2617254   9.2978621  12.8229208
  14.5055914   9.8842955  12.8471937  15.5644665   9.3348236  11.9156094
  23.2238121   1.2055504   5.3208675  23.8213501   0.5079278   5.5901299
  23.7913952   1.8687507   4.9281263  47.1217003   3.8351288  36.4036636
  46.2049408   3.6927102  36.1680679  47.5591660   3.0166454  36.1692696
  79.0980988  10.4283152  38.8866806  79.0832977  11.3378134  38.5886459
  79.5185776  10.4646187  39.7458153   5.5525174   4.8827896  20.1155663
   4.9077001   5.5729904  19.9604378   5.5618863   4.3767715  19.3031063
  72.3255615  45.4617348  69.3623657  71.9762421  44.8064499  68.7583771
  71.5572433  45.7918892  69.8281097  52.1809464  35.0880051  21.4361172
  52.6818657  35.0921860  22.2517700  51.5848045  34.3443909  21.5249634
   9.9588470  70.4317780   2.4349148   9.6667118  70.0012665   1.6314536
  10.4096689  69.7440491   2.9248366   2.7139175  12.1576414  86.2513123
   2.7438698  11.5029163  85.5536957   1.7844682  12.2363625  86.4661560
  83.3981705  22.3571129  51.5004158  82.5634079  22.8208351  51.5664864
  84.0330811  22.9479485  51.9054222  48.6400528  68.3249893   3.3467853
  49.2825623  68.8163910   2.8349872  49.1488991  67.6328506   3.7689798
  36.6689377  61.2402420  13.5304794  37.0476418  60.4740334  13.9614544
  36.9539413  61.9811554  14.0653191  11.7008152  29.5437527  51.1119576
  10.7571716  29.4181213  51.2118874  11.7826796  30.3553791  50.6111641
  75.6677399  36.1221733  60.7611885  75.1003799  35.3575478  60.8596230
  75.7794800  36.4537888  61.6521263  61.2993507   1.6390276  81.1693039
  60.5732498   1.1284322  80.8111115  62.0251999   1.0174341  81.2240372
  14.0781803  46.3256760  26.3039703  14.5475092  45.5611839  25.9700317
  13.1926022  46.0062828  26.4770851  53.1877861  68.0355072  42.0778008
  53.2894440  67.8667908  41.1410866  52.2432404  67.9945374  42.2274208
  18.8760090  10.3667107   7.2957354  18.4218636  10.5815678   8.1104870
  19.2840424   9.5176764   7.4656854  20.7166519  34.7285118  73.6554260
  20.7852802  35.6076317  74.0278168  20.7296581  34.8678169  72.7085114
  72.7738037  66.8635406  86.2690887  73.3748474  66.6934204  85.5438080
  72.6988754  66.0227051  86.7203293  45.5223465  36.5419235  77.9656143
  45.6375580  37.1319199  78.7105103  46.1539421  36.8503494  77.3158569
  21.0872383   4.5739603  48.7393761  20.6564789   4.8215871  47.9212341
  20.3711700   4.4760985  49.3669930  33.9462852  54.8256493  77.1427460
  34.5846596  54.5694885  77.8083954  34.3703232  54.6153793  76.3107529
   4.9154716   9.0272970  40.0265617   5.1404057   9.7380190  39.4261360
   5.7201810   8.8662758  40.5192528   9.6159658  60.1552696  29.6083946
   9.8467693  61.0463600  29.8709183   8.6811132  60.1992989  29.4075375
  40.2579041  56.8453979  54.7430687  39.6828346  57.1799126  55.4312744
  40.7176170  56.1114807  55.1508179  49.4164581  10.9092569  33.6658249
  50.1191750  11.0243034  34.3055038  49.0178757  10.0700426  33.8962250
  60.4884415  71.6018143  75.6653976  59.8125801  70.9287033  75.5856628
  60.2763405  72.0589828  76.4791794  79.3386078  53.0064964  47.5105782
  79.6891861  53.6723862  46.9190369  78.8222427  53.5000763  48.1477394
  11.5762005  47.4537849  22.8190536  12.3515091  47.5587883  23.3705082
  11.2523460  46.5770302  23.0255775   4.4464273  21.3484268   0.7366768
   3.5426714  21.4511948   0.4385234   4.4386783  20.5410690   1.2508212
  80.8115005  32.2766571  87.6681290  81.0276947  31.5762558  88.2836990
  81.6570816  32.6595078  87.4343338  66.4649811  70.8484039  30.8788509
  66.8575211  70.5362701  31.6941566  66.8340530  71.7228241  30.7547264
  55.8944969  12.2225227  24.3199387  56.3897018  13.0020847  24.0683632
  56.5539970  11.5324144  24.3909492   1.7234511  31.9767799  68.9144287
   1.5259942  31.9059486  69.8483582   1.8937193  31.0767250  68.6366882
  53.1034927  12.9336767  72.9528122  53.0543976  13.8884907  72.9064255
  52.7276955  12.6340303  72.1250305  62.8164177  32.7081337   6.3571501
  62.7275772  32.4622231   7.2779469  62.5850639  33.6366615   6.3338237
   2.7756648  48.6572876  66.6476212   3.5432103  48.3745232  67.1447678
   2.5698078  49.5241966  66.9973679  29.5300007  51.4512672  28.4341774
  29.9492798  51.8365555  27.6647701  30.2570572  51.1299591  28.9674511
  31.6011372  10.3457479  34.7023392  31.7807293  10.3186626  35.6421509
  31.3183212  11.2453918  34.5383682  84.0150452  12.0345612  55.5194435
  84.4059067  12.6451750  56.1444321  83.4928665  12.5878830  54.9385872
  77.0361328  65.9894104  48.3045883  77.5189514  66.5358353  48.9247017
  76.2646942  65.6991653  48.7912788  38.7562332  12.5396290  76.4561462
  38.0696716  12.1580191  77.0031738  38.3363152  12.6791916  75.6073761
  34.0740547  66.3387451  74.7039337  34.4633331  67.1941833  74.8853607
  33.6214333  66.4539108  73.8684082   4.1505547  19.8215771  22.0229511
   4.7001562  20.3097591  21.4098873   4.7636828  19.4772091  22.6723480
  10.6944284  23.4105320  59.8165398  10.2552290  22.6109505  59.5267067
  10.0815582  24.1128235  59.5988083  51.4854164  14.8393078   9.0293522
  50.8871880  14.9544611   9.7676582  51.6326599  15.7258673   8.6998615
  31.9273167  46.3895912  73.0770187  32.2660942  47.0236092  73.7090607
  31.7606487  45.6015358  73.5941467   2.0592663  67.9623566  84.2778931
   1.1097578  68.0669098  84.3389969   2.3203912  68.5536270  83.5718842
  55.0771561  56.3978615  40.2966919  54.9932671  57.2649879  40.6932869
  54.9612236  56.5511284  39.3589821  24.1487389  56.4032288  40.6421356
  23.5892086  55.6593094  40.4191132  23.7426872  57.1491737  40.2006378
  34.3009987  41.7018967  17.6378441  34.3467255  40.7657471  17.8321724
  34.9474297  42.0994644  18.2211933  19.5474854  22.0187321   7.0423594
  20.0979805  22.7593193   7.2967548  19.8422565  21.2985783   7.5997820
  57.5897141  10.2246990  26.0503235  57.8047218   9.9397087  26.9384594
  56.8511810   9.6724501  25.7937698  42.7880516   3.0736966  77.4583130
  42.7478065   2.5757110  78.2747879  41.9604912   2.8794596  77.0182571
  75.2620163   5.2221651  78.7205048  74.6683502   5.6832623  79.3131104
  76.0068817   5.8146744  78.6188202  55.6668205  60.0828743  62.7777596
  55.0944290  59.9541435  63.5340843  55.9361153  59.1989479  62.5279884
   5.4450679  11.4504318  74.0619125   4.8016214  11.0889540  73.4523697
   5.1363969  12.3394909  74.2366333  64.6458511  39.0232697  26.5627422
  64.2369080  39.8814240  26.6748695  65.5608215  39.1600304  26.8084316
  31.3659840  11.0664167  66.3039169  31.2546558  12.0165482  66.2709427
  31.9197502  10.8638391  65.5499039  43.9773712  70.8294983  87.7299042
  44.2573662  71.3167572  88.5047684  43.0230980  70.7988586  87.7981262
  74.9305954  13.4649868  72.3477020  74.8752060  12.7990456  73.0330353
  74.7862625  12.9831476  71.5333099  77.5872040  70.5209274  77.9599228
  77.4722824  71.3910065  78.3420105  78.5358429  70.4121475  77.8929291
  77.0846634  45.4413147  35.2034645  77.9783478  45.2575111  34.9140244
  76.9829636  44.9300041  36.0062408  57.7878151  68.5519867  27.6085281
  58.4651184  68.1107025  28.1211262  58.2654915  68.9777222  26.8966236
  24.4313793   0.6721365  57.9058685  24.0920086   1.2210935  57.1989670
  24.1763039   1.1289730  58.7074089  43.7297707  65.0339508  67.2752991
  44.6628685  65.2469482  67.2611618  43.3001747  65.8554001  67.5138321
  62.6391449  18.2890339  75.2501373  62.3843231  19.0142746  75.8205032
  62.1787910  18.4577103  74.4280319  57.1498985  22.3427486  69.8683701
  57.8835030  22.9165840  70.0892105  57.5114365  21.7259884  69.2318726
   0.3337962  23.1498337   2.1579576  -0.1509941  23.3812237   2.9502134
   0.6289693  22.2522945   2.3113387  23.7092762  53.4832230  34.5716782
  24.5657082  53.8610840  34.3717346  23.7179279  53.3590851  35.5207558
  22.8554935  58.5533829   3.9609456  22.8328381  58.4461136   4.9118462
  23.7527370  58.3274193   3.7157350  11.8220854   1.3358220  25.0352859
  12.2703533   0.6567634  24.5311356  10.9922485   1.4663203  24.5764027
  65.7995834   2.5274935   3.8856483  65.1452942   1.8713349   4.1256499
  65.9283676   2.4044709   2.9451640  75.8933868  27.7033710  60.4478683
  75.9670563  26.7887421  60.1753654  76.1134720  28.2055283  59.6632462
  52.4390793  58.6640205  24.3961258  52.6447105  57.7621918  24.6424007
  52.3056602  58.6291466  23.4489098  10.2464113  20.2818661  26.9414978
  11.0286417  19.7305756  26.9620819  10.5432138  21.1310749  27.2685852
  31.2768097  16.2183514  60.5283356  31.4834862  16.7092953  61.3236275
  31.7121143  16.7035732  59.8274078  68.2723770  13.0895357  16.9480553
  68.6500168  12.4351749  16.3603191  67.4255066  12.7228718  17.2022209
  72.1194763  47.1101875  74.6635971  71.8287048  46.2363281  74.4027252
  72.7746964  46.9516602  75.3431473  72.7336884  70.3089600  56.0346756
  73.2644958  70.5184708  56.8031654  72.1679840  69.5924377  56.3224335
  63.3778267   8.6092997   4.9216619  63.0964165   9.0418777   4.1154881
  64.1820526   9.0651741   5.1699266  77.4301529  50.8866730  65.6916580
  78.3196716  50.5565109  65.8180618  77.0895996  51.0031319  66.5786133
  45.1957436  61.9947815  10.3613539  45.6713371  61.1778564  10.2107754
  44.3787384  61.7227287  10.7793531  47.5123329   7.5910521  57.9629898
  46.8366547   6.9230380  57.8470230  47.0374908   8.3596334  58.2792778
  23.8026791  37.9057007  75.3999634  23.2042980  37.1724358  75.5431213
  23.5745659  38.5376244  76.0817795  15.9093437  54.9318390   0.3645025
  16.0865402  55.8385315   0.1140173  15.6208420  54.5115509  -0.4456556
  64.0289764  31.8668365  69.3543091  63.1707382  31.9682655  69.7658539
  64.4862137  31.2330074  69.9069672  70.4766846  13.6665649   4.7248688
  70.4744186  13.3429403   5.6256986  70.3706741  14.6140175   4.8104758
  12.2042379  45.5548172  47.1694717  11.3493061  45.1749840  47.3720818
  12.0021629  46.4057961  46.7805862  59.0015869  57.6105003   4.0773001
  58.4602928  56.8211479   4.0647297  59.3798294  57.6275673   4.9564319
  74.9208450  52.2039948  88.1685104  75.0275497  52.0605545  87.2281570
  73.9927673  52.0366440  88.3325272  86.3095779  71.5289001  18.8042583
  86.0710678  71.6789093  17.8894691  86.4963074  70.5913239  18.8524437
  20.6923923  18.9649658  42.8087540  20.8888836  18.6695690  41.9197311
  20.5588379  19.9089565  42.7234573   7.9633131  12.6138153  86.3602142
   8.1559858  11.9782753  87.0495605   8.0768852  12.1249208  85.5451584
  30.2176628  47.5218353  13.9335995  30.7584190  48.0923691  13.3874226
  30.8075409  47.2237511  14.6260014  67.5352173  10.6377497  82.9039841
  68.2160339  11.2777691  82.6963654  68.0149536   9.8703766  83.2157898
  41.0275497  15.0899267  83.4429398  40.4796906  15.7960091  83.1001129
  41.3070107  14.6050358  82.6663971  39.8967323  60.4363861   5.6028891
  39.3733749  59.7270279   5.2298751  39.2978973  60.8891258   6.1967330
   6.7985988  10.2956657  76.1937561   6.9932761  10.8731346  76.9319077
   6.5003977  10.8848925  75.5008545  41.8361778   8.9800014  12.9086199
  41.6503830   8.2751017  13.5289669  41.1148796   8.9425611  12.2804804
  42.5949974   0.5538650  56.5514374  42.9804611   0.2006149  57.3532257
  42.4882317   1.4884511  56.7285881  41.1082802   7.6072826  82.2777863
  40.8228531   7.3411856  83.1518326  41.8329391   8.2122393  82.4363022
  40.3060188  71.3862000  18.9893398  40.0140800  70.5477524  18.6315460
  41.2520294  71.3924637  18.8435345  17.4174538  19.3879356  42.2193680
  16.7123928  18.7633476  42.0490417  16.9742718  20.1583900  42.5746460
  63.5164413  40.4333496  41.7380829  63.3580093  41.3295288  41.4414406
  63.3772354  40.4662018  42.6845360  85.4776535  54.3388710  54.2896042
  84.7138290  54.8897209  54.1182289  86.2037582  54.9565048  54.3763580
  34.5821953  17.3120422   5.5297055  34.2602310  18.1765556   5.7850232
  34.1502266  17.1326180   4.6945753  39.6875801   8.6303663  33.9527664
  40.3202133   9.2867975  34.2444916  39.7852554   8.6100559  33.0007782
  53.6267967   1.8377627  11.5951881  53.0715675   2.1808989  10.8950386
  54.4218636   1.5459850  11.1491337   5.4792290  21.9307022  50.8184433
   4.6421037  22.1611042  50.4154930   5.2505131  21.6594524  51.7074585
  12.4855757   0.8232677  11.0410700  11.7181606   0.9231307  10.4777460
  13.0403280   1.5728537  10.8251944  22.4983559  35.0333862  13.3557520
  22.1415291  34.2461700  12.9444132  23.4474201  34.9327698  13.2823668
  19.4949017  68.0166473   2.5849011  20.0377064  67.9795151   1.7973638
  19.9123516  68.6816559   3.1323774  10.8476381   5.3706951  46.0254517
  10.4905329   6.1943216  46.3576355  11.7282963   5.5953169  45.7250862
   3.7047927  46.0953484  82.4695435   3.8172250  45.7755089  81.5743942
   4.5430217  46.5043259  82.6848145  16.4371872  40.6086388  28.9763927
  17.1851730  40.7236862  28.3902950  15.8454723  40.0276184  28.4983521
   0.4942600  39.9563293  64.4195328   0.1436228  40.3251343  63.6088104
  -0.1393594  39.2842293  64.6706161  45.3994026   8.3276663   0.1847370
  44.7343903   8.3213310   0.8731781  45.9614410   7.5799170   0.3877524
  62.3634033  36.4278488  37.7606316  61.4721069  36.7710762  37.8240356
  62.4035530  35.7411842  38.4262962  40.8346481  44.7554703  31.3662109
  40.5173492  44.0283279  30.8306541  41.7000580  44.4743233  31.6632862
  58.4676781  16.8495445  72.7834625  57.5451813  16.6021214  72.7201080
  58.8960686  16.3584499  72.0823593  17.7253513  59.9055824  32.3565216
  16.9756012  60.0438919  32.9352951  17.9027500  58.9667549  32.4145584
  79.5458603  67.3032379  42.0458031  79.9256134  66.5243759  41.6391106
  78.7160950  67.0004349  42.4146271  50.5598831  44.9740028   8.3213606
  50.6743698  45.5606842   7.5737443  49.6168976  44.9766426   8.4856873
  11.3349314  49.1836205  31.0813713  11.7710352  49.5874367  30.3310547
  11.3709221  48.2440338  30.9021606  36.4983025   3.1080902  46.6466370
  36.0386124   2.2684982  46.6477890  37.0740013   3.0669961  47.4102592
  20.4405193  55.9084053  10.0422726  19.6762810  55.8380165  10.6143017
  20.7755470  56.7914772  10.1977520  47.9625473  60.2254639  73.5698624
  48.4173050  60.2099953  74.4119949  47.5337105  59.3715591  73.5135117
  50.5422478   1.8875036  25.3812275  50.7915001   1.7151786  26.2891960
  51.2735710   1.5501493  24.8639393  79.5093842  27.8254299  68.4114456
  79.2325974  27.5395260  69.2820053  79.0254898  27.2607288  67.8087921
   8.3873787   6.8604221  29.7752323   7.8511791   6.1060414  29.5310364
   7.9435301   7.6088920  29.3764553  24.8640766  60.9992714  33.3906708
  24.5265656  60.3295860  32.7958260  24.5210915  60.7517548  34.2493515
  49.9694710  18.0160637  73.1113434  49.0321198  18.1177006  72.9462128
  50.0300598  17.2530632  73.6861420  72.2208176  58.8926125  19.3323364
  72.0695038  58.0329514  19.7251720  71.5667191  58.9564209  18.6364117
  72.3151093  38.8900909  13.8880482  73.0110321  39.5087547  13.6662922
  72.7532043  38.2102051  14.3999653   5.7339282  41.3010292  53.1853447
   5.8376541  42.2518425  53.1475677   4.9437394  41.1258087  52.6743317
  53.4858398   4.8130898  50.4671631  53.7540359   5.1726971  51.3127327
  53.6796608   5.5086236  49.8387566   3.6112201  68.9560013  34.7453728
   3.0761540  68.4389114  34.1432533   4.4589710  68.5116272  34.7544098
  64.9696808  18.5905914  36.9584579  64.8351440  18.7819214  37.8866425
  65.5304794  19.3007488  36.6463547   2.2536016  57.0604744  71.5498428
   2.0129917  57.3400383  70.6665649   2.8729980  57.7251892  71.8510666
  23.8280296   4.4032922  35.2891197  23.9690952   3.4566200  35.2771149
  23.5758438   4.6192722  34.3913498   0.9902484   5.4205427  47.3068733
   1.1508127   4.4875264  47.1656914   1.1479415   5.8226562  46.4526634
  25.1312714   1.1344013  20.3602562  25.8245487   1.7216259  20.6615295
  24.5845032   0.9929993  21.1330967   3.0177696  31.1066341  13.6763287
   2.2522693  31.1896629  13.1076927   3.5484705  30.4241791  13.2654247
  66.5380325  27.4110756  36.6044769  66.6080475  26.8452263  37.3733368
  67.2157974  27.0911007  36.0090904  52.4605865  44.3237572  86.3217545
  52.1676903  43.4427299  86.5546417  52.8630295  44.2221870  85.4592285
  31.4820747   5.9895849  15.7592211  31.1553631   5.2515306  15.2446651
  32.1108170   6.4238157  15.1827183  15.2444410  11.2865944  54.7381287
  14.8935642  12.1731176  54.6533012  14.8099060  10.7896776  54.0449562
  20.0317497   2.2391939  53.5135574  19.3314495   2.0439992  52.8908958
  20.1734810   3.1818626  53.4268379  46.8591080  53.1857529  35.1458244
  47.3215752  52.6281700  35.7714920  47.4152069  53.1839256  34.3667297
  56.0887108  24.4964790  67.7410431  56.1100082  23.8196392  68.4175491
  56.8858337  24.3509712  67.2314758  18.5776272  50.5448112   3.9459774
  19.4024258  50.2452049   4.3283067  17.9293747  50.4066925   4.6365733
  28.6392002  49.0716362   8.6383524  28.5727081  49.0552902   9.5930996
  29.4570522  48.6124458   8.4473209  15.6449747   9.7548323  28.1161728
  15.7219172   8.8362350  28.3740292  16.1091156   9.8087826  27.2807713
  59.4065323  27.1038151  18.2318954  59.2102852  26.9008522  17.3172779
  59.5989914  28.0414658  18.2331886  59.1120453  45.2494392  64.4138031
  59.7520065  44.6363297  64.7754440  58.8934479  44.8884392  63.5546646
  52.4667015  10.4618769  41.7211838  51.7195587  11.0576324  41.6656265
  53.1225510  10.9463177  42.2225876  46.0429573  23.4071102   6.5596280
  45.7089577  22.5257416   6.7265530  45.5163918  23.9735870   7.1235976
   3.1483352  25.7185326  88.6348419   3.5448818  26.0069046  87.8127518
   3.8373129  25.8389988  89.2883148  69.9272232   1.7024711  86.3940582
  70.6227722   1.5640143  87.0369186  69.4197388   0.8910655  86.4117584
  15.2359505   0.9278091  15.9769068  15.7162771   0.3511101  15.3828220
  15.7774153   1.7148861  16.0365524  22.0741005  15.0601435  20.4047546
  21.8854256  14.6970358  19.5394306  22.7943954  14.5246229  20.7373581
  51.2182312  33.7512856   6.5214262  51.3396149  32.8185005   6.3441973
  51.9507294  34.1770210   6.0759721  85.9404449  66.0247574  85.9066315
  86.4502716  66.7146225  85.4818954  85.0784912  66.0750198  85.4934082
  20.9927063  13.6042280  17.7069645  20.6577988  13.0429888  17.0076237
  20.7148800  14.4862900  17.4599628  69.4933853  53.4595947  17.2113762
  70.1208038  54.0080566  16.7404518  68.6830673  53.5360260  16.7076244
  82.5077591  18.5333862  32.1467552  82.4434204  19.4878120  32.1808777
  83.3971405  18.3424778  32.4447289   1.2433935  36.8957481  62.0492706
   0.7243717  36.0924873  62.0089874   1.7708666  36.8005676  62.8423309
   4.6848235  40.4017220  67.2865906   4.1740499  40.1689568  66.5112457
   5.5882292  40.4471664  66.9735031  68.0459290  31.0486813   4.5697317
  67.5832443  31.1639423   3.7397511  68.9595490  31.2468624   4.3641667
  77.9452744  19.8473282   4.3647032  77.2028275  20.2348480   4.8281989
  77.7820663  20.0458488   3.4426494  57.5189705  31.5116425   5.8265305
  56.9209251  32.1265221   5.4016800  58.1131210  32.0661163   6.3322749
  73.6341553   7.4000759  33.9206810  73.7124100   8.1941891  34.4493484
  72.7134399   7.3755941  33.6600838  78.5116653  54.4206581  36.3157845
  78.3939056  55.3693466  36.2672386  77.9543991  54.0741615  35.6189156
  41.7444077  40.1168098  20.7418251  40.9333954  39.9338875  21.2161980
  41.4749031  40.6765327  20.0136013  79.8368378  69.6961975  75.7030182
  79.5423050  69.1957932  76.4639893  79.0412979  69.8457184  75.1921539
  71.8762589  48.6414261   8.4230385  72.5255051  48.3819122   7.7693076
  72.0930176  49.5509682   8.6279430  28.5927334  54.1846161  42.5379982
  29.2969551  54.3866119  43.1540337  28.6573563  54.8657837  41.8686180
  61.2529106  53.3849678  36.0656624  61.5069923  52.4902191  36.2917137
  60.9037094  53.3175201  35.1769905   4.7722368   3.0489852  64.3832321
   5.4543953   2.3807089  64.3176727   4.4127607   3.1119153  63.4983292
  31.9350815  58.5552025  14.6656179  31.2479000  59.2137451  14.7672739
  32.1819992  58.3264046  15.5616732  82.8609543   0.3819806   1.4143388
  83.4954376   1.0312859   1.1109217  82.0307541   0.6590079   1.0267082
  45.3138390   4.5860953   2.9606867  44.9842682   4.1277409   3.7336853
  45.4094734   5.4953790   3.2440398   8.7855024   3.9313929  44.9241829
   9.4569902   4.3788610  45.4390717   8.3023558   4.6376514  44.4952316
  56.7549362  44.1543503  71.4841461  57.3881798  44.8478470  71.6693268
  57.2660255  43.4742279  71.0454483  78.6879654  30.6936970  86.0453949
  78.2597046  31.3485889  85.4940796  79.2760010  31.1999817  86.6058578
  18.7588367  25.2664280  58.5407257  18.1236935  24.6794415  58.1305199
  19.0547104  24.7933407  59.3184662  45.4688911  39.4834290  31.9701653
  45.2645187  39.6056786  31.0430622  46.0984192  40.1762352  32.1700325
  84.8889542  53.9014053  28.9750385  84.8584595  53.3020744  28.2293148
  85.4110336  53.4403839  29.6316395   5.0758915  50.6506729  79.2730637
   4.1292033  50.5189438  79.2214813   5.4459548  49.7748489  79.1625366
  86.2173309  27.5831203   3.7904565  85.4762115  26.9774303   3.7799170
  86.3341904  27.8025589   4.7148066  17.1343479  58.2904205  11.0357761
  17.7478867  57.9888878  11.7057629  16.4177113  57.6565170  11.0645542
  21.8679352  36.5243034   2.0020154  22.0131378  36.6965027   2.9323356
  22.2437954  35.6559029   1.8576577  49.2923927  65.5427704  72.3228378
  48.5445099  66.1177444  72.1606598  48.9244614  64.8008652  72.8028641
   7.0071955  39.0785255  27.4739647   6.9685936  38.5026932  26.7103176
   7.6033492  38.6357422  28.0779305  58.9096870  53.1563110  29.8541470
  58.6697693  52.4454155  30.4485340  59.7200394  52.8592567  29.4402447
  38.6438484  37.8083763  13.1044044  39.5997162  37.8165321  13.0546026
  38.3577538  37.6944046  12.1980972   0.5627316  50.4973984   0.8126251
   0.7172157  50.0629234  -0.0261829   0.1235290  49.8361855   1.3475388
  85.9069366   1.8559726  40.5246048  85.1839066   2.2910569  40.0727615
  85.4865494   1.3600283  41.2271347  51.6307793  23.8935738  74.1683655
  50.6967278  23.9151688  74.3764954  51.8585701  24.8068466  73.9943619
  39.9118042  26.3349857  27.5442009  40.1133614  27.2706680  27.5339622
  38.9583473  26.2945404  27.4699345  53.1520844  21.8553600  13.1142359
  53.4211159  22.0917873  14.0019035  53.0306282  20.9064140  13.1455221
  61.8620300  31.5362988   2.5027704  61.2099152  30.9377651   2.1384404
  61.9134789  32.2501678   1.8671799  36.5240784  31.2462597  14.6835012
  35.8640938  31.7875042  15.1167507  37.3292351  31.4119053  15.1739273
  23.5641689  40.7603989  21.4192200  23.9356670  41.4990578  20.9369240
  24.0379944  40.7547531  22.2508984  67.6757507  52.9568901  38.2172127
  66.8093414  53.3565025  38.2938614  68.1484146  53.2592201  38.9927254
  36.3395844  22.2825432  34.6441116  35.5616951  22.2473183  35.2007790
  36.1250725  22.9310493  33.9735451  60.6188316  55.8433685   8.8669348
  59.7162285  55.5917511   8.6714115  60.8893051  55.2438583   9.5623941
  25.4003201  52.8451385  53.5312653  25.5263882  53.1039581  54.4441452
  25.6116009  51.9116783  53.5155983  63.3344688  14.5439119   7.2626448
  62.9216194  14.8886900   8.0544243  64.1992798  14.2521343   7.5510788
  78.3493729  39.8414078  59.7740059  78.6908875  40.7048111  59.5413322
  78.4147720  39.3322868  58.9660759  66.4184036  47.0762939  50.2055359
  65.6018295  47.5176811  49.9718323  67.1046066  47.6982193  49.9635201
  12.2609005  10.2903280  68.3355560  13.1514406  10.1725702  68.0049438
  12.3778534  10.6038723  69.2323532  48.4524803  71.1384735  32.4217262
  47.9293289  70.3531570  32.5824127  48.9912529  71.2322388  33.2073288
  71.7047653  53.2412987  87.5651703  71.1425400  52.6432190  88.0575409
  71.8870697  53.9557495  88.1755447  78.7442169  22.4691525  47.5188560
  78.6916122  21.6064034  47.9301071  77.8997040  22.5779476  47.0815926
  13.1499481  50.8155975  25.9715996  13.4886503  51.6973114  26.1268139
  13.9182920  50.3055687  25.7151833   1.9729469   9.6959515  11.2752562
   1.6041781   9.5490980  12.1462755   1.5349793  10.4865036  10.9599085
  81.1477661  38.3118820  54.7816925  81.3954010  37.9834900  53.9173622
  80.4210739  37.7505608  55.0520058  44.1898842  13.7653379  30.0135899
  43.5082130  13.2757378  30.4738598  43.9372253  14.6827602  30.1171761
  37.5917778  48.1523438   0.5082928  38.1236305  48.9403114   0.3966116
  37.0472107  48.1174927  -0.2781323  75.4475327  48.7988472   9.7070427
  75.6931076  48.3720741  10.5278873  75.6249771  49.7273598   9.8574095
  57.6960754   5.4249120  53.1213303  58.4010010   5.1415615  53.7035866
  58.1112633   6.0535417  52.5308418  34.3279266  63.0584450  37.0255051
  35.0897331  63.2847176  37.5590591  33.5829010  63.1547775  37.6187096
  54.9696388  43.4444084  12.2881603  54.8881493  42.9846191  13.1237345
  54.3208847  44.1465340  12.3368731  18.0467110   7.4737883  10.2163038
  18.5049248   7.3109326   9.3918333  18.4617767   6.8803887  10.8422661
  50.3569107  62.5837097  61.8542595  51.0280571  62.9668007  62.4190903
  50.6320686  61.6742859  61.7382164  32.9102325  67.2406921  41.6157875
  33.3266907  67.2817001  42.4766693  31.9716167  67.2571716  41.8027573
  79.2845993  15.2052174  79.3861389  78.6472244  14.9686956  78.7123184
  79.7393265  15.9678392  79.0285568   7.0991001  15.3396654  11.7649622
   6.5890098  16.1392193  11.6355219   6.4730010  14.6301441  11.6207018
  84.6368790  30.0900936  54.4696198  83.9744720  30.6824799  54.1139183
  85.2823105  30.6686516  54.8757286  53.7139244  31.0059299  30.3922234
  53.8372383  30.7070007  29.4912987  54.5936623  30.9990845  30.7693825
  67.5217209   4.4279475  77.3548813  67.3827286   3.7057004  77.9674759
  67.0527115   4.1641889  76.5632401  68.3920441  31.8738155  48.0405464
  68.4104691  32.8237305  48.1569748  67.4694214  31.6689644  47.8887672
  36.2671928  51.5795708  69.0335159  36.8773270  50.8749847  68.8155060
  35.4005089  51.1879463  68.9252625  73.4801178  42.1498642  27.3128490
  73.1222458  42.9966164  27.0460625  72.7771301  41.7410812  27.8177605
  80.8299866  29.5481548  51.9876404  81.6462708  29.1724300  51.6578827
  80.5760193  30.1892395  51.3237572  20.6977482  16.1376553  72.8722687
  20.0223923  16.3424625  73.5189362  21.4568520  15.8760462  73.3933792
  46.8651619  55.5919914  46.2261810  45.9771233  55.5444870  45.8721161
  47.1528282  54.6803207  46.2745018   9.3759909   9.6408453  23.6032887
   8.9799910  10.0548325  24.3701210  10.2947426   9.9075575  23.6347809
  66.2158051  12.7525349   5.3300977  66.6709747  12.3053045   4.6166286
  66.8784866  12.8483572   6.0141330  20.6374130  37.6004410  74.6469040
  20.9793053  37.9749336  73.8350525  19.7007484  37.4896698  74.4837418
  27.4025154  56.5053253   3.8344254  27.5424004  56.0262222   4.6512032
  27.7923470  55.9485893   3.1604033  64.5612411  31.5021210  85.9825211
  65.3835602  31.9911194  85.9524384  64.4919510  31.2056293  86.8899994
  52.4547577   6.7166853  85.7743683  53.0879974   7.0241995  86.4229584
  52.8258438   6.9819269  84.9328308  56.1424904  64.9032974  26.7522469
  55.3019714  64.6712952  26.3573608  55.9101181  65.4191666  27.5243359
  21.5659275  20.3813934  87.7618713  20.6510944  20.6482353  87.8518906
  21.5348587  19.4251022  87.7340546  37.9577065  69.5661087  66.6318054
  37.9184113  68.6605911  66.9395828  37.8722687  69.4997406  65.6807404
  49.7788811   1.8190999  22.5960693  50.2600975   1.0823925  22.2193413
  49.9537086   1.7640694  23.5355587  63.0007935  46.8000717  69.6552734
  63.6300507  47.4427834  69.3278809  62.1486359  47.2222023  69.5463638
  59.4739342  14.5806379  29.9538994  59.2911186  13.6426363  30.0083389
  59.3884697  14.7876959  29.0232792  76.5109253  66.2090225  89.2414627
  76.2289810  65.5381165  88.6196671  77.4518890  66.0638504  89.3401489
  65.8236160   3.5093415  75.4254379  64.9557495   3.9091115  75.3686600
  65.6505280   2.5711231  75.5030136  82.2704697  60.6365433  28.7598934
  82.2677231  61.2721024  29.4756393  81.5301666  60.8922958  28.2096462
  14.7771111  26.8145237  71.3706360  14.4039078  26.0466919  71.8035126
  14.3484087  26.8391857  70.5151596  64.8144989  60.5519791  30.3371067
  64.1542435  59.8706894  30.4641590  64.5740433  61.2377090  30.9601536
  45.1435966  33.6183853  84.1107254  44.8528824  34.5069580  84.3160400
  45.4800224  33.6770630  83.2165146  22.4109745  70.5995483   7.6001306
  23.1377335  70.2488632   7.0852776  22.1496086  69.8758087   8.1694460
  67.3258972  23.4722500  23.7305889  67.9306030  22.8674335  24.1604252
  67.1082535  24.1140881  24.4065361  82.4921188  19.2819004  21.8449020
  82.5206680  19.4598007  20.9048119  81.8586426  18.5699558  21.9348049
  85.2638016  37.6426277  28.4478626  84.3797989  37.6513824  28.8148842
  85.8217468  37.9562645  29.1595898  64.5594482  37.7461166  14.6679077
  64.5797882  37.1768951  15.4371967  65.4614105  37.7480278  14.3474541
  32.8650093  57.2051430  17.0200119  33.5724754  56.7705727  16.5437031
  32.3001595  56.4905968  17.3142948  29.6821442   0.6643832  62.1397934
  28.7612019   0.4039606  62.1231613  29.7724266   1.1740266  62.9449921
  10.4884005  26.6621628  79.8447266  10.8213186  26.6215477  80.7412491
  10.2248011  27.5749474  79.7282410  26.8862877  31.2030525   9.7176619
  26.2315693  30.5958900  10.0625229  26.5562325  32.0701942   9.9529505
  12.2836285  63.0594406  86.3551483  13.1898336  63.0017052  86.6579514
  12.3366461  62.9108849  85.4110336  84.4594193   8.9691973  39.5819740
  83.5112839   8.9714909  39.4505692  84.5739517   9.1981001  40.5043182
   1.7459259  22.6924744  64.5255203   2.3725045  22.0675049  64.8902664
   0.9505417  22.1791496  64.3837662  15.0583448  61.3642921  50.5550003
  15.1499548  62.0846825  49.9313965  14.8719358  60.5989761  50.0111504
  20.9274082  65.8721161  45.5192719  21.1824989  65.4159927  46.3212128
  20.9321537  65.1924438  44.8452950  71.5817032   4.7153387  70.2793198
  71.5107040   3.7642827  70.3610687  70.9500427   5.0579109  70.9116821
  71.4321976  20.3432293  65.8056335  70.7554626  20.9601097  66.0844116
  71.0387573  19.8718014  65.0713425  82.6085587  62.3222275  43.4368477
  82.7146835  61.5312119  43.9652977  83.3233795  62.8943977  43.7159157
  10.2300158  24.0562267  79.0073929  10.4671669  24.7356014  79.6386108
   9.3792820  23.7365494  79.3078766  56.3161964  10.7697544  78.7668915
  55.6055870  11.1835175  78.2769241  56.4387360  11.3319521  79.5318375
   3.0966117  55.9141884  40.6700287   3.4960480  55.7547226  41.5251656
   2.2096293  55.5635300  40.7508545  20.1476536  28.9622936  23.6154022
  20.0549259  29.0805607  22.6700726  21.0831795  29.0792179  23.7807827
  60.2686081  28.3145714  10.7551451  59.3555107  28.0642166  10.6144247
  60.7023811  27.5019588  11.0154076  64.3701477   0.5223599  68.6694336
  65.2590790   0.2071419  68.8327332  63.9072151   0.3710802  69.4934692
  63.5253372  47.9079094  49.9154778  63.3130989  47.6847153  50.8217735
  62.9127731  48.6085358  49.6916046  62.6821747  41.5477524  62.1004181
  62.0646057  42.0446510  62.6370125  62.8527451  40.7528191  62.6056099
  57.7975349  65.5945969  74.8126984  57.7387352  66.3004456  74.1688385
  56.9116249  65.2345963  74.8550186  44.4797325   2.8862174  71.8340912
  45.3921051   3.1673844  71.7651596  44.3482552   2.3124008  71.0793228
  43.3908234  48.0487099  -0.0469134  43.7938309  48.8848877  -0.2806359
  42.6626549  48.2859840   0.5272858  19.3103981  35.6766472  29.7759876
  19.9136429  35.4090996  30.4693470  19.2564831  36.6286621  29.8596001
  27.1668701  29.9050198  79.5891495  27.5744171  29.0615139  79.3925934
  26.5150070  30.0228691  78.8982010   1.6441571  44.4277420  84.3633347
   1.3276324  45.2927666  84.1029892   0.9150179  43.8380928  84.1712418
  51.8532181  50.0248795  59.8307495  51.1543121  49.9801788  60.4832573
  52.3402176  50.8177376  60.0553398  30.9193478   8.8220282  39.0391960
  31.4624062   9.3916845  39.5840034  30.5632038   9.4024372  38.3665009
  16.3004932  42.1974716  34.8519936  15.4073524  42.4239616  34.5926933
  16.2245522  41.9365311  35.7698021  85.3068542  43.9690056  84.2541428
  85.6248932  43.0727005  84.3624115  85.3297958  44.1187592  83.3090057
  78.5215759   3.4653263  17.9535522  78.5497360   3.9383302  18.7852421
  79.3621216   3.0095873  17.9086266  28.6291065  20.9311848   7.2956848
  28.9816723  20.1428013   7.7084556  28.0860500  21.3338966   7.9732866
  63.2533073  26.4684296  85.1938477  62.3629913  26.6532726  85.4928436
  63.2031441  25.5877743  84.8221436  78.1260681  57.1268196  75.2580795
  78.4664230  56.3184814  75.6414490  78.4219589  57.8167038  75.8519974
  37.1003838   2.5315595  72.6381149  36.5244865   2.1323078  71.9860611
  37.0494537   3.4706078  72.4597168  77.8356171  62.7255478  63.4352379
  77.9372864  61.8683357  63.8488655  77.0434799  63.0897102  63.8303795
  73.2812576  34.5002289   4.4815998  73.6831818  34.7883873   5.3011436
  72.4876633  35.0298958   4.4048219  66.4957581   5.7469964  30.0063171
  66.4622803   6.6925931  30.1510849  67.2277908   5.4478889  30.5456715
  28.9519348  53.2861748  85.4854126  29.2664604  54.1043434  85.1008224
  29.3172379  52.6018982  84.9245682  16.0766602  14.2768755  11.7988644
  16.4195709  13.4075584  11.5916691  16.7231579  14.8821754  11.4357061
  22.6833591  40.9392586  17.6143436  22.5647736  40.2698669  18.2882004
  21.9533787  41.5441437  17.7465343  11.0429440  22.7517223  27.8066807
  10.9652653  23.6985798  27.9235516  11.9859943  22.5879345  27.7987938
  69.9910278  45.1875458  21.8874130  70.8937073  45.2587509  22.1977825
  70.0633163  45.2105713  20.9332237  34.8742561  11.2386971  17.1287613
  35.4769363  10.5801449  16.7833347  35.0658150  12.0278912  16.6220951
  64.1350632  17.6159496  15.5462999  63.5965271  17.0347557  16.0833530
  64.3577499  18.3422222  16.1286812  38.3175240  62.2084732  40.6166992
  38.6784248  62.0699654  41.4923668  37.3943787  61.9686394  40.6974220
  33.9152565  57.6347275  74.8397369  33.2319374  58.2587242  74.5949249
  34.3673439  57.4402847  74.0187378  85.5043488  29.4804516   1.8021244
  85.4599380  28.5581207   2.0542452  84.8818283  29.9177818   2.3830156
  48.3177299  38.8751755  27.9876060  48.2333336  38.4698792  27.1245632
  48.2318535  39.8138199  27.8208466   5.1835361   1.2540315   9.4090099
   5.7004952   0.4579063   9.2858458   5.8078656   1.9676729   9.2780142
   5.9042511  56.3664474  73.1278381   5.6690168  55.6329651  73.6960831
   6.7241049  56.6990738  73.4931183  61.9839020   5.6652780  60.6434402
  62.7569046   6.2279763  60.6889420  61.8192368   5.5598240  59.7064285
  80.0502014  45.7307777   3.4342351  79.8597107  45.1315956   2.7124829
  79.3898621  46.4191551   3.3546865  45.3226395  12.6788578  40.8725815
  45.0119171  13.5830126  40.9193611  44.5302811  12.1601954  40.7333298
   2.8894560   5.9183731  15.4622984   3.1585369   6.8368721  15.4486084
   3.6278367   5.4467106  15.0768633  19.7312317  47.6807976  73.5958481
  20.4755211  47.0790825  73.5814514  19.4747753  47.7225418  74.5171051
  42.9749756  50.7925262  32.1733246  42.2224312  50.6557045  31.5978355
  43.2373657  49.9109154  32.4381828  32.7162628  28.6283188  25.2080631
  32.0377731  28.9300041  25.8121052  33.5369606  28.9215698  25.6039047
  84.3185425  24.9894447  88.0481567  84.2982178  25.8606339  88.4441986
  85.1447601  24.6096668  88.3470917  62.4803925  24.9268093  30.4225979
  62.0992889  24.1993008  30.9142532  62.9024239  24.5122967  29.6700706
  81.5882339  47.4469147  31.9346771  81.0221024  47.5160065  32.7034149
  81.2463760  46.6941071  31.4523487  26.4930573  44.7713623  13.0287399
  25.6503277  44.5633202  13.4321766  26.6005898  44.1107521  12.3444395
  68.5419540  30.9909992  19.3325138  67.6124649  31.1105080  19.1375675
  68.6749878  31.4553413  20.1589050  30.7033310   2.7402780  36.1244164
  30.5825768   2.7413936  37.0739670  31.4096565   2.1121299  35.9735336
  54.6261902   5.6478105   0.7823800  54.2176971   4.8122325   0.5561604
  54.7133713   5.6215916   1.7352408  29.1960621  59.7855301  48.9575996
  28.4343433  60.3649292  48.9398956  29.9474716  60.3760567  48.9038124
  26.1741657   0.4182168  48.1357613  26.8871326   0.9506889  47.7830811
  25.4666557   1.0422636  48.2977142  51.2931557  39.9699669  25.9848385
  50.4918060  39.8249779  26.4878807  51.6776581  39.0984879  25.8904228
  28.3803940   2.9747560  39.7368202  27.6179562   2.5001228  39.4056969
  29.0964546   2.7105067  39.1591835  24.0077953  64.2952728  27.5317230
  24.9439926  64.1062775  27.5953388  23.7465439  63.9296989  26.6865387
  31.1523094   1.3644851  75.8485947  30.4719982   1.4732658  76.5131073
  31.2162285   2.2222495  75.4286118  17.1243458  57.7848930  35.0978775
  17.5210686  56.9442291  35.3261871  17.7508907  58.4379501  35.4096260
  61.4357681  14.6258335  87.9357910  60.6549187  14.2465658  87.5324783
  61.2684441  14.5740986  88.8768311  39.7309685  17.2512741  67.6335373
  39.8571548  16.3869057  67.2421646  39.6517639  17.0800419  68.5719604
  76.5620575  18.6870995  55.3642693  76.1313324  18.0721092  54.7705574
  76.5600891  18.2427788  56.2120972  13.9495211  58.9697876   0.8941520
  13.8235464  58.0493584   0.6635634  14.5363331  59.3080025   0.2177690
  39.9458771  66.7975922  86.2732773  39.8793335  67.1942062  87.1418991
  40.1556702  67.5283661  85.6917419  11.7233038  57.2028999  88.0105591
  12.4988794  56.7207909  88.2974167  12.0558252  58.0652924  87.7616882
  55.2312584  66.5559692  22.0688381  54.3314781  66.3451538  22.3181992
  55.6057587  65.7192459  21.7933826  24.4222717  32.4997177  32.4354553
  24.2419987  33.2372475  33.0183640  25.3745441  32.4982834  32.3384666
  76.1107864  27.0520725  82.2679825  75.6247406  26.3426704  82.6883926
  76.9968796  26.9781704  82.6223907  42.2837524  37.0425415   9.7729282
  42.7234192  37.8860321   9.8799076  42.6915398  36.6565018   8.9977417
  60.8449440  45.5291977  48.7863388  61.7277603  45.3588715  49.1147614
  60.8257599  46.4732552  48.6294365  75.7386017  13.3098030  57.2699127
  75.7632523  13.7182913  56.4046059  74.8568344  12.9433851  57.3367615
  39.6809082  65.4031982  53.8543854  40.4925499  64.9916153  54.1511536
  39.4827118  66.0545273  54.5272293  58.0787621   1.7044823  86.8275986
  57.5710983   1.3298723  86.1077576  58.9325638   1.9006227  86.4418793
  76.3422546  42.8059196  58.0652733  77.2635651  42.6375198  58.2629204
  76.0817184  42.0786247  57.5001259  79.2712250  47.4588394  33.3932686
  78.9918060  48.0208855  34.1159439  79.1599045  48.0003357  32.6118469
  71.2674561  50.9889297  34.7966652  71.4002762  51.0970268  33.8549080
  70.4169846  51.3939514  34.9666443  85.1280136  55.3667336   8.8229408
  85.8332062  54.7839203   9.1044798  84.3508453  54.8084373   8.7995396
   5.9209270  52.2079811  10.2340479   6.5363545  51.5101509  10.4588041
   5.0698905  51.7719917  10.1906509  13.2098827  26.7387962  66.1739426
  13.3886042  27.5257511  65.6591721  13.6966419  26.0454426  65.7283401
  15.4728765  18.0839863   6.7296457  16.2361965  18.2350578   6.1721950
  15.2695389  18.9447174   7.0957437  61.8086014  11.8401089  79.0104752
  61.2411118  12.1080065  79.7332611  61.9292183  12.6362286  78.4929047
  83.9662399  42.4742508  71.6773148  83.2495499  41.8924942  71.4240341
  84.5695114  41.9130363  72.1644821  86.7057190   0.2746377  82.0987473
  85.8286057   0.6369612  81.9737473  87.2549438   0.7586994  81.4820786
  55.8610878  65.2924652  56.1984978  56.1360817  64.9359207  55.3538132
  55.3957176  64.5715485  56.6227036  23.8266869   4.8858771  61.1765862
  24.4425163   4.5124631  60.5460739  23.6256084   4.1635432  61.7715912
  18.3798523   8.8583775  63.0459785  18.9132233   8.2291508  63.5315933
  18.7017956   8.8013287  62.1463509  37.7315559  56.4124413   2.9438949
  37.0206337  55.9886360   3.4247355  38.5231934  55.9656143   3.2437065
  71.1346130   9.6212788  56.8288727  71.7094727   9.1654253  56.2140884
  71.4335251   9.3364887  57.6924591  71.6177902  35.8899460  27.6230259
  72.4389420  36.3478584  27.8026276  71.8666687  34.9678459  27.5596085
  80.0751038  70.3877716  27.9408073  79.6881943  69.5563278  28.2151051
  80.3065033  70.2526627  27.0218754  62.7635307  43.9484634  50.6307297
  63.3808250  44.3919525  51.2125359  63.2758064  43.2477036  50.2273178
  22.1154079  35.9049339  35.2024384  22.5571232  36.6867218  35.5339928
  21.1829128  36.1110268  35.2673264  71.6670456  12.4657059  79.9107056
  70.8258896  12.3528767  79.4680252  72.2027588  11.7374363  79.5962830
  65.1201630  28.7572136  34.2799187  65.4155807  28.6490860  35.1839447
  64.6746826  27.9354954  34.0736122  59.3597183  12.4126644  40.4467659
  59.3195610  12.6835356  39.5295677  60.0618935  11.7627115  40.4740334
  37.7957039   1.1587934  28.0226460  38.4219704   1.8735304  28.1374130
  38.3385010   0.3732805  27.9550190  23.2194176  10.4737139  81.9207764
  23.9650536  10.7216606  81.3741684  22.6383266   9.9944487  81.3301239
  33.9658089  57.8769913  52.2168198  34.5315933  58.4972649  51.7570610
  33.5353432  57.3828812  51.5191231  42.4370041  20.6907253   8.6058102
  42.0474319  20.7386074   7.7327843  42.5425301  19.7536240   8.7699299
  60.9568100  61.4652138  42.4060478  60.6404266  60.6088905  42.1182213
  61.0288696  61.3865891  43.3572884  85.3791275  39.2535439  31.7839336
  84.5393982  39.0877991  32.2124329  85.4863739  40.2037582  31.8266144
  66.7399292  37.0003395  48.6239624  66.2331161  37.0308800  49.4354019
  67.0884857  36.1094093  48.5926552  45.3793640  43.7413826   1.0868527
  46.1168098  44.3132935   1.2997400  44.6418800  44.3384094   0.9607159
  46.5963211  43.3972931  87.2137299  45.8158531  43.8715630  87.5003738
  46.8137741  43.7842941  86.3656921  71.1283875  69.3349762   6.8961058
  70.5013351  70.0581741   6.9008241  70.8400574  68.7633209   7.6076584
  48.4440079  59.3404579   4.1076803  49.3598213  59.2422295   4.3681931
  48.1308670  60.0915642   4.6116824  82.8440247  65.0445557  13.2470446
  82.8141479  65.0383224  14.2037582  82.1251678  64.4711304  12.9812260
  14.6000137  19.7569675  16.6621189  14.3275051  20.3328571  15.9477510
  13.8496065  19.7406311  17.2561340  54.6664124  33.2414322  88.4774551
  54.8512421  34.0194588  89.0035248  54.2037125  32.6531868  89.0742035
  42.8169594   8.7903452   1.7341789  42.4585190   9.2808418   0.9944738
  42.0479736   8.5058146   2.2280746  43.1815071  14.6042709  77.1912155
  43.3618889  14.9784050  76.3288193  44.0414696  14.3521128  77.5275345
  54.6885757   4.5343399  83.7584152  55.2700119   4.9480529  84.3963776
  53.9902611   4.1473436  84.2864456  68.9815903  26.8867378  62.3352661
  68.8749695  27.6837921  61.8160667  68.1892929  26.8417625  62.8704948
  83.9163055  13.9731941  65.4940186  83.8333282  13.0292997  65.6296997
  84.4924011  14.0562019  64.7341080  82.0663452  57.1103973   3.7379475
  81.4788437  57.2291756   4.4842505  81.5629654  57.4204369   2.9851418
  10.3313208  42.7157822  76.6499939  10.8796864  41.9346199  76.5771027
  10.8416929  43.4069214  76.2279968  74.8098450   9.3897543  24.4522476
  75.7382889   9.1897783  24.3329506  74.7723694   9.8680820  25.2805157
  68.0134354  21.8939228   5.4244895  68.5198364  22.7060432   5.4402723
  67.6723251  21.8070259   6.3146162  20.2699871   1.4320096   9.3954067
  20.7709961   0.7951126   8.8859148  20.8541794   2.1857998   9.4775686
  67.7659988  68.9624023  62.4045219  67.6782532  69.7319412  62.9669647
  67.2893143  69.1929398  61.6071167  74.7073898  70.4424667  52.2793541
  74.6106491  70.2936172  51.3387604  73.8218460  70.6429062  52.5824547
  58.7139893   6.3119726  88.1908112  59.5141678   6.0837483  88.6639481
  58.1387939   6.6848516  88.8589020  50.3096924  15.6943016  88.4091721
  49.5921326  15.1747484  88.7716675  51.1026001  15.2557201  88.7176743
  80.7186966  48.8250809  87.3860397  80.1221695  48.8922691  86.6404800
  80.3227921  49.3774834  88.0600891  80.8157959  46.9182510  16.4255447
  80.4008179  46.1484718  16.0363636  81.0906982  47.4466934  15.6762733
  77.3919449  28.1953545  40.3359680  77.5262146  27.6235104  41.0917473
  76.8566208  28.9143295  40.6717262  63.1208916  47.4572639  26.9538174
  63.0515213  47.6816597  26.0258808  62.6453438  46.6306801  27.0365486
  12.6107836  26.9401875  77.8102493  12.0849628  27.4125195  77.1647644
  11.9732332  26.6105537  78.4435730   2.4165170  46.4272461   4.4423609
   3.0954907  46.4166145   3.7677400   2.8402083  46.8261909   5.2023354
  68.7172089  66.1239777  11.4918613  68.8700333  66.5607071  12.3297977
  67.7681732  66.1602173  11.3724594  59.9543648  60.5480042  78.4648666
  60.2079086  61.0996628  77.7248535  59.6581841  61.1655502  79.1335602
   5.1973538  68.4390564  85.4816208   5.1158156  68.5916901  84.5401917
   4.5256486  68.9969635  85.8737793  20.3748074   5.0790410  45.8765602
  19.4449482   5.3055005  45.8589859  20.6291790   5.0395908  44.9546204
  55.5613556  12.2932749  81.1516190  56.4330902  12.6023703  81.3981323
  54.9826584  13.0314722  81.3424225  84.4006348  16.6976986  27.4147911
  85.1422958  17.1561165  27.8097973  83.7226105  16.7124863  28.0902843
   2.9151683  36.3675156  64.2630005   3.5912626  36.9985657  64.5097885
   2.4245734  36.2140541  65.0704651  80.9582672   9.0417938  78.2970810
  81.5752869   8.4926691  78.7807922  81.4656677   9.8166685  78.0555420
  62.5282211  69.6179352   3.0794606  61.9278488  69.8425217   3.7903357
  63.2176208  70.2800598   3.1300008  80.6050110  12.9097919  18.6389160
  81.5357285  12.6888819  18.6735039  80.1595688  12.0637760  18.5934010
  16.3116856  12.6895695  58.1010590  16.5400944  11.8364239  57.7320023
  15.6280365  12.4975977  58.7429352  76.2408447  45.7454491  40.5368996
  76.0493546  46.2416573  41.3327217  75.4838791  45.8983421  39.9713440
  20.9584045  54.1057854  78.2675629  21.7689953  54.2512550  78.7554321
  21.1520786  54.4165764  77.3831787  52.3761597  26.4974728  74.4631805
  53.1486320  26.4101200  75.0216522  51.6409569  26.5327587  75.0751190
  74.1593018  52.7114220  49.0298119  74.4415970  51.9929466  48.4638252
  74.4640274  52.4627838  49.9024849  52.6367340  58.7208977  16.4538860
  52.3601456  57.9426575  15.9700785  51.8187408  59.1401596  16.7209778
  15.8221598  29.5505524  85.3151474  15.3150043  29.8720264  86.0605850
  15.5214090  30.0783100  84.5753784  22.8155117  28.7374973  63.3011589
  23.1147442  29.4473248  62.7329712  21.8836155  28.9123878  63.4323654
  55.6820946  16.1304569  72.6317520  55.5180244  15.4650211  73.2999649
  55.1036835  16.8554249  72.8685913  61.3377533  49.2657318  88.4478683
  62.0764847  48.7431793  88.7600403  61.6368179  49.6293793  87.6144714
  16.3536873  49.1770859  54.6649361  16.0809479  49.7191811  53.9246826
  15.7534637  49.4164696  55.3710938   0.4881025  14.7607803   0.3111252
   1.4104027  14.9631701   0.4680727   0.2161640  14.2672291   1.0848746
  11.0788746  31.9435902  23.5304432  10.7270479  31.3830090  24.2219620
  11.7261782  32.4924355  23.9731617   8.2095985  25.1902790  11.7589951
   8.3022623  24.6133804  11.0008192   8.6922150  25.9811707  11.5185728
  19.6473560  54.5841293  23.6539249  19.5971088  55.3181534  23.0416222
  18.8757591  54.6840820  24.2114906  73.5368652  15.4885426  16.5474911
  72.8557968  15.7376156  17.1722660  74.0587540  16.2827187  16.4328480
  66.2799225  11.4382544  36.3174400  66.9503479  10.8901453  36.7252808
  66.1086578  12.1258698  36.9609337  65.4015274  34.2032204  22.9224911
  65.3409042  33.9241943  22.0088711  64.7087021  34.8564644  23.0198956
   8.5822515  35.9446259  11.0601702   8.4129076  36.8552284  10.8185978
   7.7173157  35.5835381  11.2544241  12.4650631  26.5454292  34.1064491
  11.9466238  26.2386150  34.8502998  12.0932713  26.0898113  33.3511887
  45.4002838  71.6786499   8.6487646  45.0722008  70.8606873   8.2752342
  46.2605362  71.7977066   8.2462416  18.7153111  33.2418594  44.6337090
  19.2965374  32.8979149  45.3120232  18.8468628  34.1895065  44.6635094
  56.4377518  57.9081917  12.7978401  55.7251053  58.4039001  12.3945599
  56.8528786  58.5293236  13.3962488  22.9685936  27.7917919   7.0026088
  23.0946121  27.9864979   6.0739317  22.1691380  27.2661400   7.0307851
  57.5852432  62.3188972   3.2651322  58.5266228  62.3600998   3.0967965
  57.4906349  61.6381569   3.9313700  80.3220291  53.2631721   7.9707465
  79.3876114  53.2946091   7.7655468  80.7158737  52.8101616   7.2251582
  37.0908470  15.1270504  38.7891273  36.5854492  15.0006742  37.9861107
  36.6301422  14.6058054  39.4466133  30.3702984  20.0515862   9.9302559
  29.9966412  19.7918873  10.7723770  30.0865879  19.3693504   9.3217373
  72.0642776  29.4581585  64.2716904  71.8178558  30.3780842  64.3678513
  72.4079666  29.3941517  63.3806190  58.8034744  10.7873640  83.2431564
  59.2007599  10.9788513  84.0927048  59.4950142  10.9732876  82.6079941
  43.2253342  12.0072336  27.0903969  42.5621910  11.9222851  27.7754211
  43.1040459  11.2320108  26.5421734  58.1405144  50.9419670  14.8972149
  57.5598068  50.7217560  14.1688490  58.8101921  50.2581482  14.8847990
  76.2230911  16.5966549  49.3161697  76.4670334  15.6795664  49.1909866
  76.4286804  16.7760906  50.2336502  68.0145721  21.3437519  59.0446320
  68.2173004  21.3183804  58.1094894  67.0611496  21.2691631  59.0851288
   9.8568554  49.7652397  13.3252459  10.7884045  49.6390495  13.5055895
   9.5397511  48.8951416  13.0831604  31.4872322  23.5177727   2.4666126
  31.7425518  22.6009502   2.5689862  30.6237183  23.4814205   2.0552082
   1.3555775  41.3086395  59.5248337   2.1216729  41.2868233  58.9513779
   1.5158229  40.6153564  60.1650772  20.8967094  53.1125603  25.9542313
  21.7596092  52.8947029  26.3066158  21.0595760  53.3226089  25.0346737
  54.8902473  12.0177660  67.6160812  55.0143051  12.4425201  68.4648590
  54.6225967  12.7261486  67.0305939  39.6911011  57.8943596  29.8530655
  39.9110718  57.0397224  29.4823322  40.5241852  58.3649216  29.8809910
  48.1424866  20.1816921  73.6538467  47.7342186  19.4245224  73.2340317
  48.6527252  20.5953865  72.9576111  32.5695839  70.2839584  74.7135773
  32.0177383  71.0651474  74.7515717  32.0149612  69.5821228  75.0542374
  40.2806015  70.7955475  56.7908096  40.7813110  69.9884567  56.6719360
  40.9401665  71.4892273  56.7878532  33.3646698  61.9705925   6.5713663
  33.1994171  61.0909767   6.9107766  32.6131935  62.1549835   6.0078835
  20.1425571  36.3608322  47.7365913  20.2406406  36.9879265  48.4530869
  19.2892208  36.5655136  47.3542900  20.1578331  64.7233200  77.7744217
  20.2962189  65.5249329  78.2788849  19.2348900  64.5100632  77.9120026
  74.5113144  30.7522068  37.2371750  74.3140488  31.5590057  36.7613678
  74.4766464  31.0038395  38.1600571  45.2891731  52.1970215  12.1701508
  45.7967186  51.3958435  12.0407667  44.9023323  52.0976334  13.0400400
  14.3102074  64.8978043  83.5109177  13.5610580  64.3100204  83.6084671
  14.3282471  65.4000473  84.3255692  35.0197716  42.8599701  26.4987564
  34.4683266  42.4675026  27.1755943  35.8710175  42.4360161  26.6077423
  66.3712006  26.3635445   8.4639816  65.6697922  25.7249317   8.3358192
  66.5343323  26.7187252   7.5902157  33.1288872  55.5717354  32.3653183
  33.8113670  55.9828377  32.8958359  32.7258644  54.9293671  32.9494133
  71.9106064  38.4207268  88.8025284  71.9727707  38.7326546  87.8997192
  71.4437790  39.1168365  89.2648392  39.8476906   7.5100508  45.3044319
  39.4492722   7.5378737  46.1743279  40.6884041   7.9549384  45.4117050
  10.8479128  32.3222618  56.1539001  10.5914516  33.0341606  55.5676765
  11.6640320  32.6232109  56.5534134  64.2198181  64.7360535  75.2334061
  65.0739365  64.8289413  75.6554108  64.0035858  63.8088112  75.3318787
  80.6268463  18.9909611  62.2286339  79.7570572  19.3905773  62.2313728
  81.2313004  19.7329979  62.2127991  11.8505116  40.8894615   8.4665260
  11.3666029  40.1268578   8.7835484  12.7546368  40.5845909   8.3900652
  44.6817245  47.3041000  52.3653336  44.6395912  48.2278824  52.6124878
  45.6179123  47.1072731  52.3330193   2.1455498   7.2764516  40.2164993
   2.4601347   7.9438224  40.8263206   1.3141245   6.9837837  40.5897408
  14.8422909   5.7922912  62.5558243  14.0456161   5.2664957  62.6271095
  15.4154358   5.2822962  61.9834251  61.3077087  25.1919632  78.8592453
  60.4057999  25.1746368  79.1793823  61.2283516  25.4141350  77.9315720
  55.0685387  57.5428619  28.8336010  55.2629662  58.0072250  29.6477242
  55.1904640  58.1997948  28.1481762  66.7079773  47.9440765  45.8356133
  67.1238937  48.5979614  46.3974648  67.4258499  47.3745422  45.5589867
  45.1266441   8.6834068  79.3809204  45.8691254   8.1724358  79.7032013
  44.5410347   8.0347824  78.9903107  20.5776463  20.1110554  74.6173325
  21.2644844  20.7423191  74.4028778  19.7768764  20.4994411  74.2649689
  55.3686104  65.1287231  33.4600220  54.7089920  64.4636993  33.2628403
  55.7295303  65.3685455  32.6065254  30.8066521  64.5262985  19.0846310
  30.3398037  65.1758270  19.6103745  31.3528442  65.0444107  18.4934731
  38.9433060  66.8542709  48.5504341  38.2800941  66.6686707  47.8856506
  39.6964149  66.3228149  48.2923508  60.1072922  21.1082420  14.9920597
  59.7416916  20.7216473  15.7877426  60.6222725  21.8530273  15.3024178
  53.8917503  70.2580643  28.7644291  54.0781746  69.8663788  29.6176929
  53.2514038  69.6691055  28.3652859   5.4806924  30.0105839  43.3329010
   5.1694756  29.2358303  42.8647842   5.1107545  30.7481956  42.8478165
  18.3604412  62.6531029   1.4109228  17.8166828  61.9257545   1.7134529
  17.7506504  63.2360611   0.9586552  79.9962845  46.0926399  54.1913986
  80.6214523  45.8235855  54.8644524  79.7223663  46.9707489  54.4562263
  35.5625534  36.5434494  12.7176189  35.7470894  36.7681351  13.6295910
  36.0053940  37.2228966  12.2092209  43.4552002  61.2385712  38.0765228
  43.5337791  60.3272438  37.7944870  44.3346710  61.6000252  37.9664726
  83.8184052  24.9533386  59.2113380  84.1875305  25.8325996  59.1284065
  83.1961975  25.0221100  59.9354630  82.6413651  40.9234428  17.4642525
  81.9860382  40.2577667  17.6731853  83.1997070  40.5112648  16.8050156
  26.6763783  47.1259270  78.1620636  26.5762920  47.1940880  77.2125549
  26.7666664  46.1873093  78.3266144  41.6180611  15.8392839  15.1848459
  42.5667458  15.7862301  15.0690155  41.3140221  14.9369116  15.0872955
  14.0459795  53.8825874  14.5532780  13.5384779  53.2271042  14.0747213
  13.4051018  54.5503960  14.7972813  85.9000397  67.8014679  81.4342880
  86.2789841  68.2550278  80.6813507  86.3454895  66.9544373  81.4527130
  28.7479095  68.4233780  87.6865540  29.0864716  68.6193619  86.8129425
  29.3895874  67.8207397  88.0624695   2.2968049  -0.1125348  20.0430851
   2.5780215   0.7928477  20.1751118   1.9748199  -0.1343322  19.1419277
   1.4814376   7.8425188  54.9144249   1.4262732   8.5584478  55.5473824
   0.9610779   8.1414795  54.1687164  14.4291468  60.6491966  63.1328239
  15.3735838  60.5204315  63.2205238  14.3424892  61.4962654  62.6955643
  25.1290112  10.5968866  64.9345169  25.8707085  10.9377041  65.4344711
  24.4046078  10.5830708  65.5600357  50.2186127  54.6977844  32.7976303
  49.9175682  55.5848885  32.9942284  49.5996628  54.1280899  33.2543335
  75.2340012  31.8775501  30.2217846  76.1481018  32.1526566  30.1512623
  74.9953766  32.0695648  31.1286564  25.7660446  63.8366814  54.5263329
  26.2561226  63.0226898  54.4102631  24.9911842  63.7305069  53.9744720
  55.8611298  22.8474350  36.9872971  56.3338699  23.1321697  36.2052002
  56.4612885  22.2421703  37.4228401  25.0604000   6.0582142  16.7243881
  25.1820774   5.1278296  16.9136257  25.9187164   6.4497972  16.8862190
  13.4071541  67.0764084  85.6438675  13.6082993  68.0009308  85.4988403
  13.2694798  67.0065689  86.5885315  50.2695007  38.7706490  30.0718002
  49.5268974  38.5850372  29.4970665  50.7253838  37.9328308  30.1522293
  65.9565811  38.1531944  34.8007088  65.0398788  38.1240311  35.0746384
  66.3519211  38.8234215  35.3581429  34.2498970  15.2008457  23.0956764
  34.4677849  14.2986784  22.8614769  34.4496460  15.7075491  22.3085423
  14.0858555  13.2852268  34.2451630  14.8474245  13.3766432  34.8177795
  14.4305573  12.8754387  33.4517632  33.2637482  46.2085381  80.3834610
  34.1752281  46.1841698  80.6747360  32.7618790  46.3769760  81.1809464
   7.3857031   4.0282388  29.2196178   7.1842542   3.2080173  28.7691898
   7.8318334   3.7575147  30.0220585  18.2167492  60.7397919  16.6005955
  17.7940674  61.5893059  16.7266693  17.7287369  60.3333931  15.8844137
  52.2474289   8.8193312  72.1783600  52.2272644   9.5896826  71.6105728
  52.6344452   9.1340008  72.9953232  27.5261421   0.5302554  86.2217026
  27.6444511   0.4143370  87.1644592  27.8594360   1.4099567  86.0448608
  65.4014664  45.3622818   8.7504168  64.5558243  45.5681038   9.1488590
  65.8020096  44.7329559   9.3502073  40.7763824  14.7173548  41.3874817
  40.2759438  14.2351494  42.0457115  40.7281265  15.6302471  41.6712570
   2.3431966  12.9359474  46.2209854   3.2996252  12.9482946  46.1845970
   2.1294749  13.3649569  47.0495415  82.3937149  68.1131668  86.3212128
  82.4931259  69.0597305  86.4230042  81.6168289  67.8970871  86.8369446
  13.7507401  34.9991913  83.5027161  14.5596447  34.5788231  83.7946014
  13.5092964  35.5806160  84.2237473  80.2131271   7.7158003  33.1423721
  80.3973083   6.8791080  32.7154579  79.3266296   7.9393320  32.8588448
  46.2576561  50.6300087  24.6310482  46.6273422  49.7537956  24.7397366
  45.3103142  50.4936905  24.6449471  75.7131348  23.1096992  36.8492279
  76.3070908  22.3964405  36.6153336  76.0591431  23.4485073  37.6748886
  11.0529737  26.1040535  86.0296326  11.7188683  25.7837658  85.4211655
  10.5601149  26.7518978  85.5260239  54.5653992  32.1807518  15.9480810
  54.5189285  31.8002415  16.8251686  54.3324699  31.4607162  15.3619738
  61.7812881  64.8423767  54.8602562  60.8641129  64.5864639  54.7626305
  61.8674583  65.0769119  55.7842674  59.4922180  19.2860699  21.1655312
  58.6141548  19.6419754  21.3018055  59.4397469  18.3876324  21.4915504
  43.2224426  46.8182030  36.8889313  43.8417435  46.1062813  36.7281036
  42.6325417  46.7973099  36.1354027  10.3678999  64.5574951  43.2406425
   9.4674959  64.8259125  43.4235611  10.3812790  64.3904953  42.2982178
  76.8996582  30.3705177  22.5096588  76.0580902  30.1618748  22.9151936
  77.4207306  30.7465267  23.2191162  48.2268105  15.4349976  82.7421951
  47.5421524  15.8806086  83.2411041  48.4811172  14.6945906  83.2929764
  65.8606644   3.7183020  66.6649475  66.8048706   3.5888472  66.7541122
  65.5819702   3.0359030  66.0542984   1.6950095  41.4512291   9.3911495
   2.1660414  40.6183090   9.4157162   1.2673827  41.5098457  10.2455091
  77.8728256  61.3696213  31.3321400  78.3810959  60.5585251  31.3277550
  77.1347961  61.1866493  31.9135742  36.6997757  45.1706543  26.2389717
  37.0523186  45.2458916  27.1256981  36.5747795  44.2304726  26.1098919
  75.3837357  23.6356049   6.0628271  75.3488388  24.0837631   5.2177415
  74.8751221  24.1937180   6.6510878  57.7894478  42.5565872   5.2115288
  58.5166054  42.9783707   5.6693211  57.0302773  43.1039238   5.4123154
   8.2759037  18.1238441  61.2620506   8.7816133  17.9127903  62.0468712
   8.9109135  18.5248489  60.6685944  11.1079931   2.6114869  37.5376053
  11.3041582   2.1922679  38.3754654  10.2877312   3.0804939  37.6906891
  41.3745384  66.1184158  47.0206566  42.1469917  65.6151123  46.7632904
  40.6811256  65.8072357  46.4387779  37.6867790  10.0481339  16.5226669
  37.9268456   9.8318262  15.6216612  37.8455772   9.2415800  17.0130596
  73.9663696   2.2603688  39.5499039  73.5049133   2.8508906  38.9544411
  73.4768600   2.3170829  40.3705101  50.3630333  49.0498734  35.3237114
  50.5026245  48.1294823  35.5464897  50.9404678  49.2056465  34.5763550
  30.3157997  30.8907776  29.3829613  30.8061161  31.1199131  28.5934544
  29.6901703  30.2272339  29.0922260  75.6463013  10.5881987   0.7089654
  74.9025803  10.0868196   1.0432184  75.5750809  10.5165415  -0.2428876
  38.6177368  30.3605442  30.7728310  39.0577660  30.5307522  29.9399834
  38.1854973  29.5158005  30.6470928  11.1986132   5.1250992  83.5318298
  11.2384224   4.2186880  83.8368988  10.7002430   5.5837836  84.2081909
  23.9660530  11.7249746  47.0757599  23.2187538  11.2901697  47.4865150
  24.4378147  12.1293001  47.8039017  22.5747986  49.9085274  73.9629822
  22.7911205  49.2888412  74.6597061  22.8545494  49.4716835  73.1585312
  12.8313103  36.7323494  18.1986561  13.3729830  36.1571732  17.6582870
  11.9618311  36.3326492  18.1767883  50.2673035  43.4717712  24.8741131
  50.8207588  43.0286751  24.2310085  50.5916672  44.3722115  24.8893490
  57.3115997  46.6229706  58.1334038  57.7250328  45.9685135  57.5703850
  56.4775696  46.8151283  57.7047958  36.5614510  38.6609650  15.7449303
  37.4650764  38.3951912  15.9154062  36.6409874  39.4742126  15.2463989
  69.6849594  18.1342354  82.9102631  68.9816666  18.7799339  82.9787064
  69.2446976  17.2895966  83.0050659  35.3504372   9.0633736  82.9274445
  36.2155457   8.7381964  82.6782990  35.5194092   9.9237404  83.3114319
   5.8036895  35.6636505  85.6818237   6.0878477  35.8146477  84.7803345
   6.0346661  36.4694748  86.1439133  84.1730270   9.1510534  27.0853806
  83.9111938   9.5783377  27.9009209  83.7165222   8.3098240  27.0984497
  28.7411976   4.7467051  54.3361053  28.1342793   4.2483344  54.8833771
  29.6094513   4.4576473  54.6168442  11.8264513  49.9466858  33.8488922
  10.8764868  49.9569016  33.9659195  11.9617786  49.4699287  33.0299797
   6.0705700  65.9181595  78.8933334   5.2880650  65.6173172  78.4313660
   5.7825069  66.0404129  79.7979355  29.9098587  20.0748596  25.5187969
  28.9970150  20.0735798  25.8068047  30.0195923  19.2382355  25.0668583
  54.9238396  66.0948410   7.8948174  55.3586578  66.9471130   7.9230032
  54.0500107  66.2599411   8.2489300  67.5881424  58.3998528  54.9453812
  68.4941177  58.6908798  54.8417854  67.4388657  57.8129158  54.2041321
  71.2066193  52.8260727  21.4619160  70.7249832  53.3437843  20.8167534
  70.5600662  52.6248589  22.1384678  55.4779739  46.7838669  79.6754303
  54.8506432  47.3405151  80.1367645  56.1062469  46.5222244  80.3485107
  36.7525177  52.6408119  58.3429947  36.6115723  52.1385269  59.1455383
  36.6740265  53.5549812  58.6156921  51.5552635  54.6388664  45.5469093
  51.9404106  55.1891212  44.8649178  50.6110611  54.7082481  45.4058228
  81.3713455  19.9591560  28.5254574  80.7926788  20.5157833  28.0043526
  81.8263474  19.4170036  27.8810406  60.2001839  65.3423462  31.4003277
  60.6442947  64.6462631  31.8845406  60.6418533  65.3629379  30.5513649
  12.8461761  59.3538322  74.4512634  13.6283703  58.8335648  74.2676239
  13.1401424  60.0154228  75.0774536  83.8400040   7.8581734  46.7530289
  84.1736908   8.0416603  47.6312180  83.7411499   6.9064107  46.7283897
   2.1299131  41.5197754  78.1652908   2.9347098  41.9315109  77.8506393
   1.8661709  40.9353485  77.4545746  59.4419022  62.6018867  34.0924835
  59.1435127  61.7113724  33.9075928  59.9673309  62.8417549  33.3291893
  29.6759262  30.5523319  84.7201843  29.9406796  30.4264336  85.6313858
  29.2970200  31.4311142  84.7000961  19.5427494   4.3695817  76.5923691
  20.1570969   4.3362989  77.3256454  19.3653202   3.4517283  76.3867035
  51.4531555  69.5229416  19.4349842  51.6818504  68.7829437  19.9974174
  50.5461884  69.3570328  19.1778564  72.2701187  23.2249985  14.4173622
  72.6862335  22.7167110  13.7211418  73.0004654  23.5763588  14.9266520
  52.6736717  62.0608482  66.2892761  52.1708107  61.6353111  66.9837418
  52.2197876  62.8900146  66.1385727  65.7573547  20.0082817  59.7319756
  64.8458252  20.2987595  59.7007599  65.7895889  19.3994904  60.4699211
  14.5064936  63.1632614  61.6574745  15.4289112  63.1826363  61.4025192
  14.0281725  63.2434158  60.8322372  61.5120125  11.2027130  35.3523293
  62.0743370  11.7289991  34.7839546  60.7643356  10.9709892  34.8014069
  52.0461922   7.0819192   1.3478271  52.9720612   6.8512282   1.4238470
  51.7373734   7.1343470   2.2523236  16.1269112  30.3246956  39.5274048
  16.5891438  29.6815586  40.0649414  16.1165657  29.9408836  38.6505852
  11.2703123  44.1361771  23.6349411  11.1095724  43.6343384  24.4340363
  12.1058235  43.8034515  23.3071518  -0.1882096  70.2239838  70.7414551
   0.6947623  69.9514465  70.4918213  -0.1984745  71.1693039  70.5914764
  73.3939743   3.5818369  20.9356670  74.2316208   3.1943426  20.6818466
  72.8490372   3.5087237  20.1521339  83.0280838  50.7505188  55.4723740
  83.3483047  49.8574219  55.5991440  82.3933334  50.8796616  56.1771049
  42.3011589  21.5581779  68.5574265  42.3539162  20.6965904  68.1437683
  42.0236359  21.3762150  69.4552612   1.9711087  50.5121155  52.8513184
   1.7001251  49.8381500  53.4746704   2.6982031  50.1158524  52.3711739
   0.7488345   8.6968546  34.9607658   1.2434694   7.9089899  35.1862373
   0.7733757   9.2305450  35.7550011  43.7819138  60.3532295  43.9058876
  44.6541977  59.9590836  43.9043961  43.9408760  61.2861519  44.0494843
  82.5111618  68.4731522  59.6968842  83.0132599  67.6936340  59.9345322
  81.6055145  68.1677933  59.6440086  16.3445282  43.9416809  40.2531471
  16.5962486  43.7186584  41.1493225  17.1658554  44.1885986  39.8280792
  18.7727795  30.0752468  59.1211128  18.3150043  29.2352905  59.0872421
  18.0798626  30.7294598  59.0311089  36.9060059  55.9157639  65.6290131
  36.9337234  55.5690193  66.5207672  37.3294716  55.2421799  65.0968475
  28.4927521   7.1494584  20.5704842  28.0318985   6.3643775  20.2746906
  27.8150005   7.8241949  20.6106567  75.0124817  27.1005039  33.6349335
  74.1315918  27.4226456  33.8259583  75.5501785  27.8906269  33.5818787
  75.4433823  14.6950130  85.3262711  74.6955795  14.5324717  84.7512894
  75.9293289  13.8703365  85.3261261  81.9872284   3.7384453   7.3738623
  81.0602036   3.9263499   7.2270465  82.0234146   3.3941686   8.2662725
  30.0662022  47.7047005  30.9246826  30.9409027  48.0637474  30.7756290
  29.5272141  48.0931931  30.2356262  29.0035458  38.7312012  23.4344330
  29.9223251  38.5326653  23.6151638  28.5235386  37.9780273  23.7787495
  54.8413734   7.3656802  15.9050064  54.0897675   7.7704072  15.4719772
  55.0205498   6.5797272  15.3888617  10.5249319  51.5984230  31.4803448
  10.4016314  51.6878929  30.5353451  10.9869022  50.7665024  31.5839062
  56.8468933  11.2307549   6.5450563  57.1653709  10.4071732   6.1755729
  57.6196861  11.6276798   6.9469004  62.6236000  19.5861778  14.0035286
  61.7067299  19.5127506  14.2684669  62.9984207  18.7269764  14.1972084
  19.9032249  43.2273140  66.5732880  19.9758759  43.3780937  67.5157394
  18.9613628  43.2274055  66.4026184   8.5988932  60.6319084  62.0309906
   8.4412155  60.7211342  62.9708900   9.5411034  60.4789925  61.9596519
   7.7572045  13.3414021  21.5979614   7.5999765  13.5211668  20.6710339
   7.6943235  12.3890877  21.6712742  43.8789482  66.1108856  63.4086533
  44.3786240  66.5084229  64.1217575  44.4246445  65.3832016  63.1104507
  79.4402542  68.0867157  78.1245728  79.6956253  67.6569824  77.3082733
  78.6331024  67.6436615  78.3861618  58.2168236  52.3874817  37.9306908
  57.4790192  52.7836380  38.3943100  57.8112411  51.8438873  37.2552376
  15.2460546  12.2205286   2.1109545  15.3083735  12.5226068   1.2048106
  15.8506546  12.7843122   2.5934885  64.7349091  57.2395401  20.9098797
  65.1214371  57.1049614  21.7751637  65.0072861  56.4738426  20.4041634
   6.2247558  20.0660248  74.0929031   5.7574301  20.8717232  74.3135605
   5.6780586  19.3664265  74.4505539  24.4682770   3.7044940  29.0709934
  24.6718273   4.6385431  29.0225067  23.6324425   3.6653235  29.5358353
  62.2556725  18.7957325  25.1403313  62.8291664  19.4057922  25.6041870
  61.4763260  19.3109589  24.9320202  77.0633850  54.4794235  61.6434288
  76.4781723  55.1439896  61.2799644  76.5453415  54.0508919  62.3247681
  78.9244614   3.8570156   2.9798470  79.0891647   4.5462008   3.6233749
  78.8464890   3.0572820   3.5000193  18.5608597  22.3864613  32.2169952
  18.2298756  21.4906330  32.1524124  18.3871994  22.7685623  31.3567200
  40.4903831  24.6199780   8.3586435  39.7341919  24.3824329   8.8952789
  40.5419121  25.5734081   8.4260740  57.5302811   5.6265044  49.6538506
  57.0604553   5.2025237  50.3719978  56.8783112   5.7113509  48.9581718
  13.6134596  20.6615582  10.3814821  13.9621067  20.7494678  11.2685843
  13.1887093  19.8037834  10.3749819   0.2526304   5.6838975  15.3182402
   1.2002113   5.7879524  15.4048128   0.0295855   4.9928923  15.9419346
  53.7020607  48.5094948  88.0023575  53.1917648  47.7811966  87.6482239
  53.4544106  49.2602386  87.4626465  16.6559582  53.1790237  62.8704414
  16.8931675  52.3799706  62.3998299  16.7721710  52.9564285  63.7941208
  70.8793640  36.0484314  16.6718807  70.7616959  35.8555450  15.7417297
  70.0679245  35.7502594  17.0828400  37.6089287  59.9260483  16.0062046
  38.5069199  60.0500412  15.6988449  37.6291847  59.0915489  16.4746418
  65.9148941  67.7148132  15.8201237  64.9666748  67.5849457  15.8042564
  66.0279770  68.6185226  16.1146469   8.0865335  71.0041275  25.0099773
   8.3058090  71.5212784  24.2349262   8.9334965  70.7378998  25.3677597
  48.7146225  21.5191383  28.2621002  48.5304451  21.4833698  29.2007332
  47.9053192  21.2199974  27.8476486   7.1987476  31.9504471  12.4370346
   6.5934763  32.3711929  11.8264198   7.0427799  32.3924179  13.2716398
  40.5993958  55.0794144  19.2607651  40.0085869  55.5929108  18.7098560
  41.2286873  54.6993294  18.6477737  13.9972992   8.0366125  57.9177170
  14.2020464   7.1252065  58.1266403  13.4036951   8.3146992  58.6152382
  14.5345116  10.0633802  52.3707581  14.1988468  10.8865452  52.0158501
  13.8803997   9.4105854  52.1212997  12.9592342  70.9684982   1.5817002
  13.2238626  70.9737473   2.5015786  12.2589417  71.6190109   1.5302143
   8.8347282  66.9995728  55.0070000   9.7401638  66.8768616  55.2922325
   8.3322287  67.0501862  55.8201180  13.4476089  55.2551727  21.8821564
  12.6481810  55.7262497  22.1171741  14.1340942  55.6747742  22.4007149
  53.8403702  17.4973984  74.4005508  53.3193245  17.0390606  75.0598450
  54.0343246  18.3469238  74.7966843  14.0881815  41.3251915  43.5662460
  13.1422796  41.2988892  43.7105026  14.1944742  41.1220016  42.6369209
  69.4735260  71.6036835  51.1139641  68.7981339  70.9367676  51.2376747
  69.1619186  72.1258926  50.3747559  83.6499023  27.7076283  88.7128525
  83.6210175  27.9752979  89.6314087  82.7412491  27.7661686  88.4176331
  66.2076340  52.5976486  22.2002239  66.3502426  53.2255363  22.9084988
  65.3935394  52.1523705  22.4351921  63.8875046  15.6878014  52.9696922
  63.9682388  15.8862820  53.9026031  64.2497406  14.8063259  52.8801384
  25.8704662  22.9359035   1.1007669  25.0880394  22.8387108   0.5580028
  25.5516109  22.8463669   1.9988458  85.9013062  46.0146980  46.9305954
  86.1396027  46.1685753  46.0163918  86.4881744  46.5825844  47.4299278
  10.2327423  67.3761368  26.7547340   9.8070364  66.8902206  27.4610577
  11.1670141  67.2079544  26.8775387  51.9064674  52.9952736  10.0969496
  51.5538940  53.8850517  10.0820408  52.8460579  53.1122742  10.2373495
  66.8468323  39.6168671  65.6543121  67.5218506  39.1663208  65.1467819
  66.1556320  39.8052444  65.0195007  76.3873444  35.4268951   9.0657883
  76.8006516  35.3775864   9.9277496  76.9462204  36.0218468   8.5658674
  30.4239826  37.2991867  15.5301342  31.1316528  36.9522209  14.9869499
  29.6753769  37.3617897  14.9369183   7.5915403  21.2662697  26.8715363
   8.5087729  21.0002785  26.8070011   7.4803920  21.5227928  27.7870007
  65.3485413  15.6706181  65.2129822  64.9149475  14.8658113  64.9292297
  66.1499939  15.7077579  64.6909332   5.0393476  27.1058273  87.2572327
   5.9860415  27.2411900  87.2982101   4.7450995  27.6833267  86.5528564
  23.3822918  69.1387177  76.2696838  23.6667385  70.0398254  76.4224091
  22.8618164  69.1845245  75.4676590  84.1863403   1.2135619  55.7744064
  84.3051376   1.2984163  56.7204056  83.2736740   1.4601707  55.6245537
  82.0884323  40.5147705  76.1675186  81.5386505  40.3871422  76.9406128
  82.6194687  39.7199593  76.1173935  10.0423985   0.7938377  27.9956818
   9.9184160   1.6283901  27.5435963   9.2975483   0.2593617  27.7204285
  67.0797653  27.5848866  31.2154217  67.5137177  28.2725639  31.7204113
  67.6398621  27.4607391  30.4491863  81.7551575  57.0408325  65.7958145
  81.4425354  56.1725044  65.5418396  81.9817581  57.4652977  64.9683380
  12.3418293  45.0865440  80.0159302  11.7539606  45.5445976  79.4152374
  12.2460661  44.1622047  79.7864532  69.8331909  70.2211990  69.3289490
  69.6709747  69.4347458  69.8499222  69.7505035  70.9427795  69.9524231
  53.6258621  65.3532944   1.2854578  52.7917938  65.3542099   1.7551004
  54.0136871  64.5018768   1.4877200   7.4784923  41.2004242  38.8123436
   7.3613563  40.9496994  39.7286682   8.4155436  41.3778000  38.7304688
  45.1877632  60.9306870  15.3947744  45.7619095  61.6502075  15.1323347
  44.3854599  61.0686111  14.8912725  53.1286392  66.0314484  29.6673832
  52.3269463  66.1793823  30.1690178  53.4195518  65.1589355  29.9325848
  78.2741470  67.2121048   2.1455493  77.5233383  66.9597473   1.6081158
  78.9610977  67.4232712   1.5132961   1.1324328  62.0000458  39.9748383
   1.0225160  62.8947144  39.6527901   1.9542376  61.7038841  39.5834846
   7.2621613  33.3719826  53.6894188   7.5630383  33.4946213  54.5897865
   6.4659610  33.8998489  53.6289558  83.5297928  60.2348557  59.5033875
  83.2873077  60.8570404  58.8175926  83.9294891  60.7742271  60.1857033
  47.2115402  70.3331146  17.6014404  47.0554962  69.9476700  16.7392826
  46.4502831  70.0743484  18.1208229  13.9775381  26.8981380  68.7556839
  13.8469210  26.5633430  67.8685074  13.7335882  27.8221321  68.7013245
  51.2693596  23.9470291  17.8419647  50.7087746  23.3582840  18.3472919
  52.0992622  23.9555416  18.3188515  60.0428123  69.0244675  72.9430084
  59.6652756  69.8946075  73.0716553  60.5034447  68.8398438  73.7615204
   9.0077724  66.1091995  28.8278923   9.7404947  65.5054703  28.7059765
   8.3751402  65.6157227  29.3498993  14.7180033  37.0940857  45.4287987
  14.3478498  36.2209358  45.2990837  14.9409761  37.3930893  44.5472565
  78.0438995  61.3833122  88.2299576  77.4680023  60.7324028  87.8288422
  78.6775665  61.5969353  87.5450668  14.6955881  61.0162315   6.9724088
  14.0631628  61.5074692   6.4480467  14.8309174  60.2035637   6.4850783
  58.4913254  46.3225555   7.5625453  59.3498993  46.7165947   7.7168641
  57.9180298  46.7374687   8.2070675  30.6783676  41.8287354  33.5713120
  30.3296261  41.2178116  34.2204475  30.0166092  42.5177002  33.5110207
  71.8334045  22.7709999  85.8804703  71.2093735  22.5572357  86.5741043
  72.3422699  21.9691753  85.7606506  26.8586349  62.6684723  12.2474041
  27.5754623  63.2053680  11.9095697  26.1330605  63.2822113  12.3618479
   7.8085461  61.7861710  45.9910431   7.6950998  60.8471718  45.8439445
   8.7443504  61.9379654  45.8589020  84.3133621  12.5854034   3.3564441
  84.5198212  11.9731007   4.0626235  84.0397644  12.0276861   2.6282089
  61.6574745  52.3391571  86.6167068  61.8455544  52.3231277  85.6782990
  60.9708061  52.9991684  86.7121201  27.4786530  70.8966293  21.5060463
  26.8762703  70.1969299  21.2534695  26.9270878  71.5368500  21.9556236
  40.1085129  14.6918812  18.7145977  39.2610512  14.9402637  19.0838470
  39.9049377  13.9852972  18.1017933   5.2783127  25.3886299   8.0911188
   4.6811028  25.4528770   8.8364000   5.7161245  24.5453510   8.2070265
   5.3954973  40.4217491  36.7703705   6.0671005  40.7659111  37.3592110
   5.2826543  39.5108910  37.0421028  37.3542404  16.9182606   5.6813917
  36.4218864  16.9397850   5.4657879  37.5159721  17.7491379   6.1282902
  29.5044975   8.8597727  79.9669037  30.1400928   8.8271370  79.2519302
  30.0079250   9.1663246  80.7211075   9.7213879   9.2381420  59.8375397
   9.5824213   9.2478075  58.8905296   8.9128723   9.5983362  60.2019463
  53.5176048  35.4253845   5.2839999  53.1805534  36.3190536   5.2209163
  54.1555138  35.4597549   5.9968271  54.4992752  56.9288864  64.5952759
  54.1927605  56.3635712  63.8862648  54.4362030  57.8151665  64.2392349
  64.4445190  65.7509842  31.5948410  64.9881287  66.1795044  30.9337101
  63.5498276  66.0092163  31.3733311  45.6847076  18.5279388  28.4764118
  45.0808067  19.0855503  28.9669247  45.9967499  17.8900948  29.1182976
  66.5400009  17.8204956  76.9899902  66.4653702  17.3950233  77.8441772
  67.1410370  17.2626400  76.4962387  42.5605583  45.7919655   6.8771172
  42.5203400  46.2889633   7.6941895  41.6547852  45.5309906   6.7106905
  63.9529533  58.9206200  87.2977753  64.0662842  57.9729767  87.2245789
  63.1116714  59.0276451  87.7416458   1.0596762  27.8324490  36.8438416
   0.8080688  26.9250679  36.6718330   1.9423728  27.7711315  37.2089691
   7.3447251  21.6806374  85.0122604   6.8427711  20.8660927  85.0403519
   7.2471724  22.0524502  85.8888855  16.3952618  14.3547754  55.9195595
  16.2863598  13.8299713  56.7126236  15.6948376  14.0585527  55.3382759
  47.7826118  12.5769405  42.0673332  48.1797485  13.4077787  42.3285294
  46.9686737  12.8274469  41.6303215  54.4035454  63.5531845  71.2279282
  54.8384895  63.4516945  70.3813171  54.3534241  64.4999771  71.3594818
   8.9159746  22.9609833  21.8226204   9.0083771  22.8907166  22.7727547
   9.1719189  22.0996456  21.4927368  53.5727615  71.5448685   4.4411879
  54.4827995  71.4734192   4.1531558  53.6316109  71.7087173   5.3824220
  50.0874786   8.7377768  68.2152481  49.2695122   8.6707363  68.7078629
  49.8426781   9.1828413  67.4039383   7.8068914  68.0774612  70.3516235
   8.0750074  68.9868088  70.2196121   8.4720211  67.7141113  70.9362640
  17.4585400  50.1703148  37.2935677  16.7462692  50.3731575  37.8999977
  17.7720985  49.3097420  37.5716553  28.8655300  49.4163399  59.4650345
  28.9202862  49.0225601  60.3357620  28.8808517  48.6715584  58.8639526
  33.5032425   0.8271090  18.9651546  33.1053200   0.0213595  19.2947845
  33.7727432   0.6131365  18.0719490  76.9053345  44.9763680   8.8675098
  76.1324997  45.2013092   8.3494768  77.3502121  44.3023376   8.3536987
   3.0318284  34.6887398  45.1682014   3.5164881  35.3091621  45.7126427
   3.5844786  33.9075317  45.1453705  71.9222641  46.1289215  12.8350258
  70.9975052  46.3531685  12.7312784  72.2383118  45.9963989  11.9412785
  19.5941830  45.4621506  78.5972977  19.3284359  46.3530083  78.3693008
  18.8361797  45.0951080  79.0522079  23.9947090   0.2451541  77.1688232
  23.9820404   0.5399892  78.0793991  23.3262367   0.7760940  76.7358322
  85.2528763  52.7581749  68.5467758  85.6218567  52.7589607  67.6635513
  85.3819885  51.8627586  68.8594894   2.1550603  33.7681618  27.2598667
   1.5826943  34.5332413  27.3171558   3.0242991  34.1314697  27.0905685
  30.2947674   1.0883070  38.5562515  30.3283730   1.4712677  39.4328613
  31.1703224   0.7265734  38.4191856  10.5454712  71.4547729  83.8786163
  10.9475346  70.9904404  84.6127625  10.0980282  70.7716064  83.3792953
  61.8104630  59.4743729  33.4264450  62.0788231  59.2666702  32.5314178
  60.8668404  59.6228714  33.3652000  24.2424755  36.0819778  86.5200119
  25.0080566  36.6557312  86.4895935  23.5583134  36.6166573  86.9228439
  60.1120644   1.0187031  41.9886055  60.8951035   0.6256123  42.3740425
  59.3910065   0.4725154  42.3016357  48.5120087  46.4324875  22.0211353
  47.7413101  46.7961121  22.4570637  48.2877274  46.4421692  21.0906315
  71.8271713  56.1722603  19.3468933  71.2392197  56.3193893  20.0877686
  71.2531509  56.1771889  18.5809269  35.2273903   1.7673719  36.9312401
  34.7747498   1.6442460  36.0968628  34.7088356   2.4284995  37.3897629
  15.8235426  21.3547001  33.2608109  15.2617836  20.6758595  33.6347542
  16.6435528  20.9034328  33.0603752   7.5183926  67.2032547  83.2426453
   8.4548731  67.2165985  83.0450134   7.2480474  66.3031921  83.0608978
  33.6724091  32.0020027  11.3914957  34.5164833  31.5592117  11.3036957
  33.8793678  32.8273506  11.8299007  76.3785629  53.9309845  14.5256844
  76.7042465  53.6224632  13.6801195  76.3149033  54.8808212  14.4257336
  15.3856659  33.8867340  59.8620148  15.0642672  34.3643608  60.6267433
  16.1279964  34.4046822  59.5507126  11.9519491  42.1456146  69.2812576
  12.1661882  42.0539932  68.3528519  12.7672863  41.9364128  69.7369919
   5.2167687  66.9060059  12.8367128   4.7681994  66.6395493  12.0342045
   4.5107403  67.0813675  13.4588079  25.2229080  71.5791245  72.8454208
  24.4053059  71.7971573  73.2928772  25.8561764  71.4524078  73.5519257
  37.8126335  19.3703880  21.7509823  37.3032150  19.8213081  22.4243317
  37.2175064  19.3048630  21.0041466   9.3250017  46.4002762  63.2679024
   9.8193045  46.9986153  62.7076416   8.8963299  46.9696007  63.9069176
   5.5284486  34.6387253  64.8757629   5.2875295  34.3838615  63.9851227
   5.7883272  35.5568619  64.8001404  78.0377579  18.7427444  45.1959534
  77.3782349  18.2014580  45.6298523  77.8887711  18.5987148  44.2614517
   0.1007219  56.4084015  69.6896820   0.6300423  55.8300018  69.1405869
  -0.3068275  55.8245163  70.3293839  36.4860878  71.3104324  88.3908920
  35.8762817  70.5838547  88.2626038  36.6301346  71.3380585  89.3367844
  10.6835423  33.0545197   2.2587621  10.6342316  33.9592934   1.9502398
  10.0284662  32.5883179   1.7393738  44.1682320  25.9130802  23.1927261
  43.2454338  25.7039871  23.0479527  44.5685501  25.8428497  22.3260975
  79.1964722  58.1420135  60.2862129  79.8794861  58.3266335  59.6415100
  78.9208527  59.0044556  60.5967979  79.0875854  13.7734575  35.2349930
  79.6510696  14.4281721  35.6473770  78.3776169  14.2815371  34.8425217
  68.0056915  65.5988770  88.6443329  68.6159973  65.4255371  87.9275894
  67.1828232  65.2012634  88.3596878  45.1085205  61.9500389  48.6326141
  44.7280045  62.4506836  47.9109497  44.7143898  62.3266792  49.4193993
   5.4572597  59.6332588  55.3193703   4.8444886  59.5557480  54.5881157
   4.9871249  60.1524086  55.9718170   5.2486410  40.5283432  86.0178680
   4.7614870  41.1192551  85.4436417   4.5730500  40.0257454  86.4730682
  62.5804977  65.0749130  38.3593941  62.3371849  65.2212067  37.4452629
  62.6827621  64.1259003  38.4310989  51.6982880  15.2437820  85.5331573
  52.0678062  14.4035769  85.2615967  52.0998421  15.4181194  86.3843918
  21.6064091   6.0519667   4.6595807  21.9261341   5.5420551   3.9152701
  22.3257942   6.6478963   4.8683558  46.5206337  58.2147484  81.7069397
  45.8526306  58.8114929  81.3694458  46.0480804  57.6445923  82.3134460
  85.5797958  56.0450058  86.5092773  85.3684845  56.9764748  86.4464417
  84.8771439  55.6070709  86.0289459  20.3928814   1.2101698  84.2724228
  21.0357151   1.6635820  83.7270660  20.8585644   0.4420430  84.6031036
  22.5659294  38.3789749  32.5130043  23.0623322  38.6243515  33.2937775
  21.6897926  38.7332230  32.6650772  72.5086136   1.8404415  44.8373489
  72.7229385   0.9668610  45.1646957  71.5917969   1.9690732  45.0805244
   6.5127864   6.1958432  16.5258732   6.6380453   6.1354589  15.5788279
   7.3985543   6.2744055  16.8800983  62.2893639  14.3307180  77.2950211
  62.9285736  14.9705534  77.6084824  61.5745163  14.8598957  76.9412003
  74.2431183  36.1219101  57.3099136  73.7388535  36.5854607  57.9785500
  74.3257980  35.2301025  57.6476593  58.9475136   9.9622564  10.0803280
  58.5247002   9.2295103   9.6325073  59.7643585  10.0973663   9.5999680
  17.4579697  58.1538849  52.0936470  17.4868507  57.1999130  52.1666756
  18.1045609  58.3621559  51.4192772  48.5842094  14.1450844  10.2547541
  48.8067551  14.8478336  10.8653679  48.2730827  14.5982609   9.4711323
  71.5236893   8.2315741   5.8230515  71.4844742   8.9374485   5.1777339
  72.4541702   8.0159502   5.8859177  46.4710617   6.3056688  76.3491211
  46.7671356   6.0687146  75.4702454  46.4265862   7.2617612  76.3372269
  30.0568581  58.6514015  61.2691765  29.6370392  59.4865456  61.4753685
  30.9439793  58.7365990  61.6184464  38.0911293  11.3990469   9.0622816
  38.6469650  12.0939169   9.4150314  37.4858246  11.8515253   8.4748259
  81.0146255   1.7911434  34.5754814  80.7432785   1.6867479  33.6635056
  81.1853867   0.8992581  34.8781586  31.5300617  10.7010012  55.7867088
  31.9225426   9.8383446  55.9209290  32.2613487  11.2579374  55.5197411
  16.4620342  15.5262012  17.5722275  16.4893208  14.8330259  16.9126854
  16.4946518  15.0622225  18.4088211  75.1232224  45.6099586  81.1000824
  75.6268768  46.3350639  81.4699402  74.2310638  45.9495049  81.0294342
  68.4233932  36.2085686  58.2481155  69.0001984  36.2857246  57.4881363
  68.9282303  36.5815048  58.9708099   3.1159985  14.6136570   1.0099092
   3.5051959  14.0600176   1.6868435   3.5589187  14.3521023   0.2026653
  12.9820728  11.9858837  48.6073532  13.2445011  12.8853750  48.4117050
  12.7078505  11.6274071  47.7632408  39.3013992  61.2745209  42.8787994
  38.8293533  61.7398605  43.5693550  40.0445023  60.8705788  43.3269730
  17.9128933  24.3025341  34.3225632  18.2477932  23.6825886  33.6746864
  18.4389553  24.1385727  35.1052551  53.5093651  69.2962646  55.7608681
  52.9460144  69.8814926  56.2672081  54.3674927  69.7201843  55.7728767
  45.1049995  68.9954071  56.7261734  45.4318466  69.4015808  55.9234123
  44.5070953  68.3122940  56.4226913  60.9485741  59.8119965  37.3772163
  60.4300308  59.1249123  36.9585724  61.3954544  60.2498207  36.6527596
  46.6883507   9.3240871   9.6850729  46.6904716  10.1498833  10.1691065
  46.7141075   8.6489573  10.3631344  42.8056221  22.9558525  83.1743851
  42.4480057  23.5987453  83.7867813  43.2111397  22.2927151  83.7329865
   3.5201218  60.2477188   2.3421481   3.6583111  61.1113663   1.9532449
   4.2998781  60.0982590   2.8768203   1.0262655  11.4819498  83.9866333
   0.9018010  10.8630695  83.2670975   1.6784469  12.1015396  83.6595230
  79.7397385  56.6940804  30.1488400  80.3194885  57.0925713  29.4997501
  79.7314682  55.7638092  29.9235458   8.0703478  17.8715572  69.7166290
   7.2892957  17.3201942  69.7633972   8.0409136  18.3968773  70.5162582
   6.5652533  14.1671381  36.9878845   7.1812973  14.3846865  36.2883148
   7.0970597  13.7162104  37.6436882  78.2422791  28.4317074   7.5207701
  79.0640259  28.1304550   7.9083343  77.8853836  29.0453205   8.1629057
  12.6005383  55.7592735  42.1438408  12.6122684  54.8252373  41.9348717
  13.4938631  55.9522896  42.4283524  10.7991009  62.0423584  47.1058083
  10.9994793  61.7343216  47.9896622  10.8158550  62.9968872  47.1752930
   9.1575518  42.4264412  46.6625633   9.4861279  43.0487556  47.3114014
   9.7249212  41.6611824  46.7558746  83.0866241  11.7681255  75.1332092
  83.6133575  11.5146551  74.3752289  83.4205170  11.2269506  75.8486633
  13.0035448  62.1249466  19.3382549  13.6519957  61.4994926  19.6615982
  13.3386726  62.9794044  19.6099529  29.9737911  44.5857544  23.4224758
  30.1611843  43.9755821  22.7091694  29.1763077  45.0380898  23.1474400
  50.4698601  41.3473473  34.6101570  50.0653305  40.8078079  35.2894821
  51.0510674  40.7476120  34.1424484  83.7218704   3.2781720  49.1241379
  83.2541962   3.2580905  49.9590683  83.2260666   2.6870193  48.5576172
   2.2078269  31.3075638  36.6376457   2.1781633  30.5873814  37.2674789
   2.8770707  31.0454655  36.0054665  16.2204895  49.7354355  50.1566811
  16.8068314  49.4916000  50.8729057  16.3069057  49.0229912  49.5232887
   6.4587727  13.3896990   5.5001473   6.3668723  13.8461952   6.3364472
   7.3069673  13.6771908   5.1622910  56.4368629   9.8048668  47.1652679
  56.7013016   8.9067373  47.3644333  56.9127922  10.0225306  46.3638039
  69.5379486   0.0157902   6.0372367  69.0578232   0.7838789   5.7277908
  69.1086426  -0.7240939   5.6077023   8.0485754  26.8263836  87.3867798
   8.0312395  26.5750980  86.4633179   8.4395332  26.0747490  87.8322372
  65.4265060  12.2877474  17.6560230  65.3599014  12.1297064  18.5977325
  64.6123199  12.7377081  17.4304943   4.5221996  61.7199478  23.9299564
   4.2287188  60.8089409  23.9428902   5.0366511  61.7944603  23.1262035
  39.6095428  59.7849808  87.9233475  39.6691093  60.5408173  87.3390579
  38.7450943  59.4136009  87.7471771  20.5296173  22.8314018  69.5540771
  21.1810322  23.3978291  69.9676590  20.6184235  23.0083256  68.6175690
  40.0307045   3.3141627   0.4829792  39.8495331   3.2877641   1.4225067
  40.7236214   2.6664274   0.3543789  38.7528915  68.6283722  50.7092056
  38.8007393  68.0152130  49.9757423  38.5119705  69.4633789  50.3080101
  51.5174484   9.0979376  76.6134720  51.2111893   9.4971228  77.4277725
  51.4358673   8.1560144  76.7629929  33.9482460  15.7764587  59.5624542
  33.8122101  15.4872227  60.4647102  34.8885040  15.6720886  59.4166641
  18.4271145  16.2466049  74.1607361  17.9244862  16.4953384  74.9364471
  17.8145123  16.3554554  73.4333420   5.7312317  18.4524937  13.5335598
   6.2287993  18.9366684  12.8745966   6.3875742  17.9267464  13.9907656
  46.0687599  47.1359558  23.2266026  45.2824402  47.5097084  23.6243992
  45.8478355  47.0442238  22.2997742  51.0804024  48.4894753  54.9123573
  51.8933487  48.9532471  55.1130066  51.3552132  47.5896683  54.7361145
   2.8312693  12.0711508  63.3836212   2.7747884  11.1222486  63.4959869
   2.0260427  12.3060789  62.9224815  23.1927834  52.5480423  27.4803028
  23.9813232  52.0253067  27.3347569  23.4764118  53.2520943  28.0634842
  80.3450546  42.5988922  14.3396921  80.9259644  41.9244576  13.9876833
  79.6467056  42.1100616  14.7751112   8.3588886  28.9065838  61.8805466
   7.7931361  29.4901066  61.3749199   8.9983053  28.5835438  61.2457085
  13.2006426  53.6459541  18.5027370  13.6393356  53.3455238  17.7067966
  12.6753235  54.3940735  18.2188606  55.3803215  59.6510773  27.3822803
  55.3806076  59.5716972  26.4283772  55.3514748  60.5940514  27.5441380
  45.8809395   6.1888709  55.3819885  45.6700478   6.1551123  56.3150597
  46.1879997   5.3064952  55.1737595   1.7222811   2.9350147  37.8150940
   2.0919616   3.6265330  38.3640633   1.8435245   3.2498033  36.9193039
  11.0533857  11.3595829   4.8882523  11.0908298  10.7910843   5.6574330
  11.9340630  11.3167753   4.5156841  35.8967628  32.6314240  75.3479309
  35.1075363  33.1664886  75.2638931  36.2976227  32.9228401  76.1668472
  86.4471512   2.6499104  52.1716614  86.1533203   1.7749410  51.9180450
  86.5921783   2.5895388  53.1158829  32.9470215  67.1978836  59.3601799
  32.9939461  67.8835220  58.6939011  32.3863564  67.5656738  60.0432701
  48.9503632  47.0732384  86.6039276  49.8977776  47.1128616  86.7345886
  48.8196793  46.3226089  86.0245209  81.5523758  22.5679493  66.1366272
  82.1339951  21.8774452  66.4546738  81.0210342  22.8028221  66.8973770
  20.0841694  53.4846573  52.2433929  19.9929104  54.2113037  52.8597412
  20.9747753  53.1627579  52.3827972  16.1420612  64.7202377  54.1827850
  16.4123116  63.8811417  53.8098030  15.2056437  64.7764359  53.9925308
  10.7646437  28.8828602  60.0257149  11.0212250  28.2934551  60.7349396
  10.8538942  28.3554897  59.2318993  61.4036713  23.0228291  10.3634815
  60.7467804  22.9862213   9.6682243  61.1688995  22.3060131  10.9527941
  53.8310547  57.8990211  81.9278717  53.2704849  57.5974159  81.2130127
  53.3952103  58.6842499  82.2590561  42.6372795  15.9600677  43.8305359
  41.7855072  16.2780762  43.5312271  42.7377243  16.3326435  44.7065125
  41.8620796  19.6951313  15.3439035  41.5327988  19.2628098  16.1318779
  42.7840843  19.4418602  15.2992868  37.4061775   8.9699163  27.3623524
  36.9733734   9.3740511  28.1144085  36.7258034   8.4350805  26.9533615
  39.2747536   5.5720024  59.0882225  38.4053154   5.9522409  59.2136154
  39.1867256   5.0252414  58.3074951  56.9701424  29.1431084  80.9493790
  57.5473137  29.3792095  81.6755753  56.9279633  29.9330101  80.4103851
  85.9793472  61.3331566   8.1798334  86.2082291  60.9024048   9.0034237
  86.4011765  62.1907616   8.2327776  58.7496262  52.2433434   8.4442434
  57.9581108  51.7101250   8.5178089  58.7756310  52.7469482   9.2578392
  50.6600609  15.2915602  69.8956680  50.6942482  14.7930336  69.0792542
  49.8318558  15.7692928  69.8500900  54.2979088  30.0817547  38.0478363
  53.6991196  29.9361076  38.7802773  54.1474075  30.9919910  37.7927895
  31.3636913  66.7082520  69.1562576  30.4986229  66.6588898  68.7494965
  31.3000889  67.4434280  69.7659302  14.2566919  14.3952312  76.8152618
  15.1443787  14.5056925  77.1559143  13.7184391  14.2472868  77.5928421
  42.5205574  16.1624870  80.2273178  41.8806381  16.7166119  80.6741714
  43.3632317  16.5821133  80.4006500   7.9782286  27.5121403  20.7975292
   7.4062419  26.8575134  20.3968716   8.0238018  28.2175522  20.1521206
  52.6299438  43.1125145   1.7335228  53.5825577  43.1453133   1.8212024
  52.3490677  42.4892693   2.4035263  21.9066429  34.3655586  37.9296532
  21.0854130  33.9514961  37.6643906  22.0349464  35.0710106  37.2955322
  72.6680374  50.9282417  70.3496780  72.3936920  51.6078873  70.9653549
  71.9208221  50.8227577  69.7607956  23.2050400  48.6124840  20.3643227
  22.5188694  47.9486961  20.2951050  23.1572475  48.9126205  21.2719936
  61.1808853  44.2599297  10.5744820  60.3811607  44.6403732  10.9377108
  61.1459923  43.3385506  10.8315268  37.7818260   0.7944647  47.6095810
  36.8842430   0.5298683  47.8109741  38.2757568   0.5896691  48.4035110
  17.7003994  22.7631836  38.9941978  17.1581802  22.5281086  38.2412224
  17.0724621  22.9935226  39.6789360  30.7287006  62.2976570  24.5468578
  30.4930649  62.2739449  25.4742985  31.6513023  62.5526085  24.5405884
  87.0012512  45.4185066  71.3629608  86.0474396  45.4060745  71.4425125
  87.1857147  44.8626251  70.6058655  57.0724678  60.2039680  47.6433372
  56.2294807  60.0244370  48.0597153  56.9912720  61.0991783  47.3143349
  77.1910172  32.5061035  73.5948181  76.5822144  31.7919598  73.4061508
  76.6533737  33.1723671  74.0229111  84.0093079  56.7868271  88.7472763
  84.3584366  56.6516304  87.8663330  84.1202545  57.7239456  88.9076691
   8.0544691  23.0652866  47.0977135   7.9273682  22.1992702  46.7102966
   8.9680681  23.2801208  46.9095230   5.9487028   1.9391116  31.6580791
   6.5354390   1.9145302  30.9021912   5.6741924   1.0299759  31.7778645
  56.2422104  70.7079620  44.9066849  56.8772964  70.2530136  44.3535881
  56.7658920  71.3321075  45.4091148  69.6972427  51.8424644  81.8151245
  69.8797684  50.9493752  81.5230560  68.7434006  51.8813133  81.8851929
  34.8583717  67.2797470  62.3198967  33.9642105  67.2156830  62.6554642
  34.8598976  68.0791245  61.7933693  10.2567968  35.6665688  18.2810917
   9.5074816  36.2102699  18.5242939  10.2335701  34.9362869  18.8994637
   9.8072243  38.5950470  24.2567120  10.0319014  37.7010498  23.9988022
  10.4675922  38.8293228  24.9088345  18.9559097  32.5160637  60.8906593
  19.1522598  31.6012077  60.6888809  19.5227909  33.0175705  60.3046875
   9.6289225  55.5462761  66.9276123   8.7770910  55.9774399  66.8589554
  10.2430086  56.2570839  67.1116791  66.2981720   9.9814110  45.0174675
  66.5622787   9.0759125  44.8545189  67.1113434  10.4300814  45.2491570
  77.9079208  48.9635429  25.2169037  77.0800781  49.1590996  24.7779655
  77.7472687  49.1751785  26.1364880  39.1698151  29.7415771   9.1134138
  38.4748116  29.6590977   9.7664089  39.7025795  28.9549389   9.2300005
   6.8548870   1.4183424  34.6303940   6.0894303   0.8464395  34.5735168
   7.4028463   1.1594894  33.8894691  34.3645363  49.1659927  50.6642952
  33.5211411  49.1862946  50.2120743  34.9717216  48.7979660  50.0223312
  39.8638916  69.2972565  85.2741165  39.0628014  69.7069702  85.6006546
  40.2418976  69.9481125  84.6827393  62.0065918  19.3029480  19.2716389
  61.8704796  20.2469864  19.3522511  61.4561195  18.9222946  19.9559727
  70.6320801  62.8299217  27.2718735  70.7119217  63.1714554  26.3812485
  71.3669434  62.2233009  27.3625412   3.1758676  23.3158989  84.2551422
   3.8761709  23.9680901  84.2338028   2.4281702  23.7539310  83.8485565
  46.4414520  40.1432800  82.5147400  47.1699181  39.7885399  82.0050964
  45.9112282  39.3785553  82.7389908   0.9678668  22.2825794  41.9313660
   1.2906039  21.9445496  42.7667160   0.9953204  23.2341442  42.0313683
   1.1649090  13.7938175  17.3948536   1.5129746  14.6842976  17.3487225
   0.2823946  13.8624420  17.0305843  69.6080475  13.6059608  22.0674343
  69.6996613  13.7781382  23.0045547  69.4589920  14.4680023  21.6789799
  40.3459587   8.5152740  72.8747253  41.1328659   8.6134377  72.3386536
  39.8902893   7.7635708  72.4958649   8.7390966  33.8397942  19.6812153
   9.3028574  33.1025963  19.9156227   8.3143463  34.0871315  20.5025826
  46.0964394  59.0041122  88.1868057  46.5959015  58.7294197  88.9557724
  45.6705093  59.8179512  88.4560318  62.8850327  23.3315277  87.4053116
  63.6536331  23.6479626  87.8800201  62.1508102  23.5079079  87.9935608
  27.3692474  26.7863102  25.9333076  26.7391872  27.1136456  26.5752621
  28.1317024  27.3561974  26.0339184  58.1206665   5.9599085  80.6800766
  59.0557327   5.8091331  80.5416718  57.9414139   6.7841306  80.2275772
   2.8530736  57.9164925   1.2177346   3.7855954  57.7163734   1.2988936
   2.7344809  58.7168922   1.7291352   8.8039427  30.2025356   9.5201321
   8.2361164  29.8277836  10.1934547   8.3156195  30.9553051   9.1867981
  42.4176903  57.9003563  13.2993927  42.8068275  58.7525330  13.4958715
  42.5840607  57.7706223  12.3657331  31.0195465  53.1053085  62.0694962
  31.4197903  53.2622185  61.2142677  30.9541588  52.1524010  62.1321373
  14.9577084  30.5059185  22.4105225  15.6933260  29.9000950  22.5003948
  14.3015966  30.0143681  21.9164295  42.2526894   5.8922434  59.5558968
  41.3509331   5.7035751  59.2961426  42.2449112   6.8199081  59.7917099
  66.6852417  63.4422760  45.2559052  66.2422943  64.2499695  45.5160255
  66.0646362  62.7473793  45.4754448  14.7894611  53.0107994  57.5880814
  14.9698668  53.3219109  56.7010078  15.5021582  53.3691216  58.1171379
  62.2087822  59.5028915  75.8480759  61.2775192  59.3432388  75.6947937
  62.4259491  58.9509010  76.5993271  55.3528252  40.2719917  49.2760391
  55.6688728  40.2850761  50.1794624  54.4494362  40.5830841  49.3338051
  40.2176514  60.8788261  23.2764759  40.7432594  61.6235390  23.5686626
  39.5538254  60.7721825  23.9577942  71.1222839  18.8740559  41.6854172
  70.9818268  18.0441685  41.2295723  71.1006851  19.5344028  40.9928055
  48.5828247  52.9829941  10.3371143  47.8515015  52.6382751   9.8247051
  49.2333603  52.2808838  10.3284149  19.6952953  59.3002739  50.6648560
  19.2578411  59.9512672  50.1161537  19.8895378  59.7647934  51.4789352
  68.2962952   5.4543004  25.5629654  67.8136520   4.9847360  26.2432556
  69.1803894   5.5478001  25.9177380  28.0416946  12.8691483  28.4330215
  28.6107101  13.1403923  29.1533546  27.9595356  13.6500511  27.8855991
  21.7790470  29.5249538   1.2625612  21.0485916  29.9724998   0.8355120
  21.7554550  29.8372707   2.1670687  12.0190840  43.0727654  84.9567108
  12.2348356  42.8239021  85.8554611  12.5304403  43.8663330  84.7986069
  42.9068069  67.6788635  41.7594986  42.1982689  67.9314499  42.3514519
  42.4614944  67.3812027  40.9662018  13.7069826   6.2293048  84.8829956
  13.2912312   5.5206227  84.3919296  13.0984211   6.9639969  84.8048172
  50.7237091  54.2080002  73.4955368  51.2551308  54.2524567  74.2904205
  50.8326950  55.0663910  73.0862427  11.5781813  55.7166710  19.5430527
  12.2412672  55.8657684  20.2170849  10.7953920  56.1556320  19.8758984
  64.0479584  62.2668076   4.4163570  64.5651474  63.0273056   4.1510596
  64.2455521  62.1553688   5.3462868   4.0598149  36.3132591   7.7780948
   3.5358796  36.6730690   7.0623708   4.9623580  36.5353928   7.5493917
  18.0951023  50.2052956  66.4859924  18.0096550  49.7604599  65.6427536
  18.3103046  49.5070839  67.1043930  87.0125809  59.1415100  48.6661301
  86.2021484  59.3218918  48.1897850  86.7328262  58.6456680  49.4356155
  82.4887924  61.6749306  66.7328796  82.6416245  61.9873428  65.8411026
  81.9100723  60.9199753  66.6263046   7.8235083  57.0107422  65.5265808
   8.3716049  57.4866600  64.9026260   7.4376388  56.3007469  65.0135117
   2.5236380  22.2487202  44.3119164   2.6136036  21.7690849  45.1353760
   2.2410259  23.1247063  44.5746117  82.9945679  17.0136471  78.7779160
  82.7964554  17.4653320  79.5982590  83.7960510  16.5237007  78.9617767
  49.3038063  62.5906410  64.7739182  50.2131729  62.3493652  64.5976486
  48.8865891  62.5977097  63.9124603  39.8374138  38.2074585  30.7188587
  39.3152771  37.5112724  30.3201981  39.3249855  39.0031433  30.5755692
  40.6867447  48.2906647   4.4794202  41.1973076  47.4810715   4.4899302
  39.8296051  48.0289345   4.1431971  49.9936562  62.3925896  78.4272766
  50.9264832  62.3750496  78.2133789  49.9647369  62.6335564  79.3532028
  56.1733360  71.6546936  27.7961941  56.8016777  71.5120316  28.5040550
  55.3559685  71.2777939  28.1219063  33.7358894  59.5932961   2.9665940
  33.0090828  60.0156822   2.5087974  34.2528343  60.3190460   3.3162909
  71.8173981   0.7068211  67.5488739  71.7969894   0.9623900  68.4710999
  72.7221222   0.8617404  67.2773666  16.5065098  36.4733925  24.5381203
  17.0173264  35.8871727  25.0963726  16.8606968  37.3442917  24.7178802
   2.8434865  36.6312294  41.4956474   1.9681271  36.6586838  41.1093521
   3.1943591  37.5108757  41.3565598  81.3550415  10.2438765  16.4609470
  81.7211380   9.7685146  17.2067566  82.1176071  10.6077013  16.0111122
   3.1321161  69.6606140  49.3004570   3.4858770  69.6266861  48.4116745
   3.5380082  68.9183655  49.7482948  76.3364029  24.7969589  48.1709557
  76.3938522  25.4278927  47.4534225  76.0088654  23.9966507  47.7605247
  10.2941036  15.1728058  71.2274780  10.5573139  14.3464165  71.6324844
   9.3706417  15.0486794  71.0082932   7.0493784  53.6926918  55.1403351
   6.3496118  53.5844727  55.7844200   6.8117576  53.1006203  54.4267426
  36.1423607   9.6673670  61.8125153  36.6765480   9.8726759  61.0452347
  36.6185379  10.0553560  62.5466499  50.3123398  61.0272484  45.8237801
  50.2849770  61.6494865  45.0969315  49.5523491  61.2522697  46.3604431
  62.3476601  19.4610863  81.8151093  61.7628174  19.4833164  82.5725403
  61.9291039  18.8516636  81.2071228  53.1257248  45.2286453  34.9353714
  52.3505630  44.8605843  34.5112381  53.7868042  44.5399513  34.8653336
  25.4693871  57.6590233  72.6447678  25.4940300  57.4227257  73.5720215
  24.6361389  58.1175117  72.5365067  30.9448490  60.5601730  12.0203085
  30.7744217  59.7853928  11.4846792  30.5584221  60.3528671  12.8711500
  22.1406231  54.2888298  40.2258797  21.9792595  53.7089119  39.4816437
  21.5084934  54.0098991  40.8883324  33.7277527  61.6770782  87.9393234
  34.2191772  61.3784218  87.1741180  33.2195511  62.4232903  87.6213074
  67.9669571  10.9856758  48.3433647  67.1377335  10.5138254  48.2660370
  68.0875092  11.1053162  49.2853775  24.3019485  22.6478519  85.7443390
  23.3470783  22.7122211  85.7619858  24.5007305  22.2698193  84.8877106
  18.0033092  35.1495972  83.4666367  17.9874649  35.1805763  82.5100632
  18.6221523  35.8351288  83.7182541  84.4091263  32.8333702  81.9692383
  83.8592377  33.4098854  81.4386902  85.3012009  33.1437874  81.8140793
  83.5378799   4.8674579  22.6435776  83.8117905   4.1671872  23.2358837
  82.6276627   5.0415306  22.8832397  78.8224869  38.0865936  25.1358509
  79.5819626  38.0930519  24.5532818  78.5060272  38.9899216  25.1268444
  11.6038885  55.7975578   9.1139803  11.9899759  56.4381371   8.5166302
  12.1459217  55.0155602   9.0095205  43.0461388  52.8211327   1.0721465
  43.5780983  53.5613365   0.7800039  43.3199883  52.0939751   0.5131453
  48.2559776  53.9045067  56.7282829  47.6277885  54.4758568  56.2865067
  48.8594398  54.5050392  57.1658096  23.1930466   7.5966282   7.0753193
  23.7271080   7.2620349   6.3548632  23.3632011   8.5385580   7.0822182
  65.1414490  28.3153591  43.0340767  64.6302567  28.2186127  43.8375435
  66.0448608  28.4123478  43.3351936  70.0496979  49.1860504  44.8400269
  69.8535995  49.9831085  44.3476105  70.8549042  49.3903198  45.3155823
  38.6843071  20.8391075   1.8249017  38.8812065  21.7738094   1.7633015
  37.8117599  20.7523365   1.4410228  11.3954258  64.5979767  12.3818359
  11.8585463  63.8648224  11.9765797  10.9020777  64.9956131  11.6643915
  13.2651348  43.1350136  18.8482819  12.8397722  43.9613571  18.6192455
  13.7236786  42.8723946  18.0501595  27.4145699  29.5766621  16.6355648
  26.5087185  29.8852367  16.6144199  27.9055157  30.2418575  16.1531525
   8.5601482  42.1225395  19.2695293   8.1853828  41.3618927  19.7135944
   9.2176847  42.4562836  19.8798523  32.8426132  10.8880386   6.8493319
  32.3200417  10.0860891   6.8544469  33.1523323  10.9778461   7.7505765
  73.8722610  18.0128193  49.6482010  73.6396332  18.8461647  49.2387466
  74.7813644  17.8637791  49.3882866   9.3171415  34.6285515  63.6571960
  10.1925068  34.3917274  63.9635963   9.0893221  35.4087181  64.1628342
  76.1325760  54.6412659  28.2881832  75.6731644  53.8275261  28.0808201
  75.4602203  55.3193741  28.2223148   0.7947644   0.3684458  42.7833099
   0.6974503  -0.0952133  41.9515762  -0.0860435   0.6832868  42.9864960
  15.0017347   3.9780755  27.6366329  14.6367626   4.8610106  27.6953888
  14.2367525   3.4066949  27.5691223  38.6966896  52.3304176  14.6834650
  39.1028748  51.4774551  14.5295095  37.7563477  52.1625404  14.6217842
  82.0544128  13.7266731  29.6405735  82.4734879  13.1037760  29.0467644
  82.5456238  14.5394392  29.5207405  58.4588013  60.1628799  58.0438652
  58.2823982  59.8353157  58.9258041  59.0415497  60.9102898  58.1780739
  26.0260601  57.1171150   7.5875578  26.0309963  56.4859962   8.3072081
  26.5089035  56.6825256   6.8845458  15.6780939  68.3368073  80.8342133
  14.7510719  68.3616257  81.0713730  16.1309814  68.6875992  81.6010666
  49.1608276  40.4041710  21.7122593  48.2864952  40.0720596  21.5086021
  49.7563629  39.7896004  21.2834492  30.6836853  16.3572254  83.3125534
  30.0283585  17.0540257  83.3478699  31.3044891  16.5768547  84.0072479
  41.4705582  49.3893890  65.9016418  40.9928246  48.8482704  66.5302811
  42.2631912  48.8887749  65.7083893  58.5994301  49.1579475  57.7474022
  58.2052650  48.6806068  58.4774780  58.7015152  48.5008736  57.0588799
  11.0823812  57.1417580  79.8276291  10.3701706  57.0415039  80.4592438
  11.6928644  57.7466927  80.2490463  78.2599335  17.8618450  66.0516205
  78.1684647  17.5032978  65.1688385  77.3633270  17.9153957  66.3824768
  52.5639648  64.0795441  60.8856697  52.9933548  64.9349365  60.8732643
  51.6645546  64.2669067  61.1543541  74.5375519  69.7085800   3.7391577
  73.7195206  69.7500000   3.2438478  74.7672577  68.7793655   3.7449439
  61.4425583  19.5810680  67.9569092  61.9020042  19.3430061  67.1516342
  61.8949890  19.0921345  68.6442871  28.2328014  59.6042938  54.0832405
  29.1334743  59.6977310  54.3935432  28.1841164  58.7060051  53.7562180
  70.7318420  30.1793385  84.2352982  70.2615051  30.4458618  83.4453735
  70.5352936  29.2471371  84.3280334  78.9450912  64.9064484  88.8081207
  79.8864899  64.8234329  88.9600983  78.6503067  64.0119934  88.6370010
   5.9327855   3.9742618  75.1101685   5.9879432   3.0918281  74.7434311
   6.1857405   4.5498471  74.3884048   5.7591944   0.1821888  21.3785019
   6.1220417  -0.3386751  20.6620712   6.3162222   0.9597468  21.4153156
   8.8251791  31.8028431  74.2069244   9.4391813  31.6001778  73.5011215
   9.1954813  32.5765762  74.6317139  81.6690445  33.4829826  65.0028000
  81.9454117  32.7418976  65.5419159  81.9984360  33.2785225  64.1276321
  35.1940880  58.7360458  64.6618118  34.6686630  57.9888153  64.9478302
  35.9449730  58.7420807  65.2554245  82.3192444  68.9514771  65.6256714
  82.9744339  68.4564819  66.1175461  81.8489990  68.2890930  65.1193695
  37.8017197  37.8235970  27.1726303  37.1737633  37.1013489  27.1886501
  38.6189117  37.4375114  27.4878540  66.0796051  27.3453999  77.4929581
  65.3880463  26.8276310  77.0807800  65.7465286  27.5347805  78.3701248
  74.1314316  10.0676308  71.1710587  74.8243942   9.7038174  70.6199875
  74.0261383  10.9670439  70.8609009  75.4172363   6.3788056  19.7153206
  74.5406189   6.5706630  19.3821926  75.7130127   5.6318140  19.1949825
  17.1467342  39.4044609  75.3288651  17.8611736  39.5589638  74.7108612
  17.5663586  38.9852295  76.0801239  75.5952225  40.3635368  69.9389954
  74.8926544  39.9643402  69.4258957  76.3925095  39.9352493  69.6273117
  11.2708454   6.7957549  68.9598236  12.1317320   7.1658134  68.7644653
  10.8216476   7.4818439  69.4535141  21.2691422   0.6275362  28.7436371
  20.9564476   0.9446184  27.8963394  21.7915554  -0.1460835  28.5319099
  57.0464554  15.5854301   6.3801222  56.4766579  14.9797735   6.8541956
  57.9187775  15.1975069   6.4493885  73.3449783  65.8394470  77.5328751
  74.0924911  65.7790985  76.9380493  73.3154221  64.9871902  77.9676285
  79.2540436  51.4968452  74.1287003  78.3907471  51.1842194  73.8581161
  79.4768982  52.1706848  73.4864349   0.4813821  22.1397343  31.9548359
  -0.4332192  22.2042389  32.2297478   0.8093564  21.3560753  32.3959045
   4.7502370   6.3310628   9.2945242   5.1163001   6.1349835   8.4320955
   4.6131926   7.2783704   9.2868090  28.7267132  25.2070255  17.0176220
  28.6091213  26.1449451  16.8669205  27.8546295  24.8912773  17.2542763
  69.3001709  10.3658123  43.2327881  68.8029175  11.0751143  42.8255234
  69.2194824  10.5259008  44.1730499   9.6599054  28.7729130  48.1355896
   9.6121225  28.8993053  49.0832062  10.5895329  28.8672943  47.9279442
  22.0480995   6.2639852  53.2498055  22.3975029   6.0726919  52.3794289
  21.2546177   5.7321920  53.3115540  68.7845917  14.4934187  47.0376434
  67.8804703  14.3178272  47.2983551  68.9344788  15.4041109  47.2914238
  12.6825762  23.7919636  57.5498848  12.1413403  23.8934898  56.7669487
  12.0669250  23.5296669  58.2342873  36.5063744  66.3728256  77.9220200
  36.9605598  67.1608810  78.2202072  37.1869507  65.8501205  77.4979477
  18.8961868  44.6236420  39.5866280  19.2840767  44.3236885  38.7645569
  19.4067478  44.1842918  40.2667236  66.2201614  13.7778454  68.6719589
  66.9767761  14.1524372  68.2209015  65.5437164  13.7196627  67.9972229
  11.1189241  54.9718475   5.2498775  10.4888058  55.4697609   4.7290454
  11.9344187  55.4678040   5.1775818  11.8834114  13.4034939  35.6120415
  11.5329380  14.2764111  35.4347954  12.7599354  13.4147129  35.2275810
  22.8490582  12.5188370  84.0283356  23.5111847  13.0700617  83.6112366
  22.6601753  11.8397665  83.3807068  21.7532406  69.9566574  43.4925575
  22.1058712  70.8128891  43.7349586  21.5225296  69.5477676  44.3267097
  85.7658997  29.9039612   6.5959687  84.9634094  30.3796558   6.3815780
  86.4711151  30.4713593   6.2845845  83.5753784  37.2237930  35.7756462
  83.4630127  36.8179436  34.9160576  82.9342804  36.7838135  36.3338966
  76.9271393  13.5541811  28.6668911  77.7311478  13.6797676  28.1628704
  77.1354065  13.8916836  29.5380688  50.0624046  55.1402855  58.3032455
  49.8536720  54.9970703  59.2263641  50.9438324  55.5134354  58.3120918
   9.0466871  36.6362762  54.2402802   8.8932724  36.4427032  55.1650658
   9.7745638  36.0656509  53.9936790  78.0129623  18.3629456  32.4903450
  78.2972946  18.2164211  33.3925171  78.8262939  18.4147205  31.9883022
  56.6942215  34.4469719  72.0561752  56.4965706  34.0261269  72.8928680
  56.2100410  33.9335098  71.4095306  30.6388969  24.9643154   6.7367926
  30.9335461  24.1396637   7.1232696  30.9608669  25.6380367   7.3356805
  75.1228638  14.5121965  35.1406975  75.2123032  14.5934601  36.0902367
  75.1576309  13.5698032  34.9766273  63.9324989  33.9164162  27.9465408
  64.8234634  34.1271553  27.6672478  63.4851456  33.6537437  27.1421089
  14.6788616  14.8026257  67.8306122  13.9136028  14.3731251  68.2128983
  15.2519217  14.9793978  68.5766602  47.0729523  34.9353752  41.5513344
  47.4349098  35.5791588  40.9424362  46.2832069  34.6127205  41.1172523
  33.2668953   1.0401984  87.2821426  34.1867790   1.0769285  87.0200348
  32.9149666   0.2821701  86.8154831  10.9184189  13.6209545  29.0218334
  11.0725422  13.6520414  29.9660320  11.6484394  13.1069078  28.6767845
  23.1624565  26.8909264  42.5045204  22.4918976  26.6388912  41.8696518
  23.9886780  26.7961617  42.0305901  67.4595795  62.7008018  41.1842651
  68.0307236  62.3842239  41.8841248  66.9652023  61.9281693  40.9106445
  17.6921349  69.7582092  17.8224602  17.5712891  69.7235718  18.7713680
  18.0619793  70.6259308  17.6596336  44.6033783  41.8007965  81.2307968
  45.1249428  41.0373421  81.4784622  44.4223824  41.6752548  80.2992859
  56.1185608  54.4623871  63.1691093  55.3269882  54.8260956  62.7724190
  56.7027016  54.2963715  62.4292068  84.8433533  21.7295246  28.1907902
  84.6109772  20.9085274  28.6246090  85.2503891  21.4587193  27.3678570
  78.9577408  12.1585073  15.8289165  79.4415359  11.5234394  16.3569889
  78.0794144  12.1667061  16.2093182  48.0753212   3.3816242  51.1083069
  47.1509476   3.6085176  51.2097092  48.5464668   4.1695280  51.3793449
  83.1809311  16.4540310  44.6343079  83.8439636  15.7922182  44.4377594
  83.6184158  17.0616150  45.2306938  69.0358276  55.8762016  32.0480461
  69.0073318  54.9577980  32.3162804  68.1189957  56.1510315  32.0369301
  35.0658417  11.2614870  80.0922241  34.6644211  10.4026470  79.9599838
  34.4311142  11.7434721  80.6223602  32.0310402   5.0864978   4.5508461
  32.3356056   5.1734662   3.6475694  32.5575600   4.3741646   4.9136019
  14.2099342  65.6238098  30.4968987  14.7756023  65.4445801  31.2479820
  13.6572857  66.3516693  30.7815723  29.6275997  29.5687542   9.1669140
  28.7202415  29.8677425   9.2264299  30.1158390  30.1721611   9.7270508
  61.9748802  34.0850143   3.7696221  62.1941299  34.3023834   2.8635805
  62.0803032  33.1349831   3.8202467  56.9291420  41.3003082  47.3213844
  56.7665749  41.0818024  48.2390213  56.6207085  40.5358391  46.8348732
  85.5126190   1.8334318  63.7636528  85.9004898   1.2697326  63.0943031
  84.6244507   1.4948661  63.8766212  25.8875847  16.5560341  76.1213455
  25.0697937  16.9615097  76.4095154  26.0036983  16.8636780  75.2224045
  19.3056488   1.1984985  14.1673450  19.0968285   0.5589602  13.4864511
  20.2480316   1.3419334  14.0803108  56.2629280  56.2664642   1.9822396
  56.2450523  57.1313400   1.5724803  55.4620781  56.2327118   2.5054338
  34.1825676  54.0556526  80.3420181  34.1213989  53.1337547  80.0918198
  34.8248520  54.4260254  79.7366028  47.3367729  66.1546173  10.7463541
  47.4062996  66.7809677  10.0258789  47.7377281  65.3542404  10.4074411
  11.5399542   0.4769833  51.8654022  11.1499271   0.0278304  51.1154861
  12.2032137   1.0510635  51.4823227  50.4664383  63.7009621  15.2583189
  51.1916847  64.1473846  14.8213348  49.7091103  64.2652359  15.1025162
  59.5948601  59.5524368  18.3475914  60.1414642  60.0382996  18.9651604
  59.6364975  60.0621758  17.5384789  25.1043320  10.4028215  53.2567329
  24.8887272   9.4717331  53.2036057  25.6776829  10.4727316  54.0200233
  15.4654160  27.4781628  82.0087128  15.9656639  27.0999603  81.2855606
  14.8875055  26.7711468  82.2957306  44.7812119   4.5366001  26.6443844
  44.2062492   4.2771511  27.3643398  44.5289040   3.9656651  25.9187069
  13.1053696  33.3987350  52.0689964  12.6588974  33.0626793  51.2918472
  13.3628712  32.6152458  52.5548630  15.8682852  49.8483887  34.2634583
  15.3171921  49.2389565  33.7724190  16.3142338  49.3007355  34.9095535
  35.1419106  26.6151886  81.5222855  35.4454346  27.4074631  81.0791092
  35.9135437  26.0498753  81.5574493  69.5992126  60.2820702  34.5276909
  69.3990707  61.1660995  34.8353691  70.5203629  60.3208427  34.2703743
  47.2839508  30.8167343  13.1729107  46.5871277  31.4098854  13.4537020
  48.0797462  31.1821022  13.5594940  73.1370468  62.0088081  62.0740318
  72.8295364  62.3738785  62.9037247  72.9875259  62.7060585  61.4355011
  81.4502258  23.4955540   6.6116710  80.5015106  23.5058174   6.4849038
  81.5680237  23.2008991   7.5147405  26.6230259  14.7367229  64.1949844
  26.3812485  14.8732615  65.1110229  26.3877983  15.5565176  63.7604294
  83.4633331  54.1678925  50.0782166  83.5958862  54.9363098  50.6333656
  82.5143127  54.0439110  50.0634499  81.4801102  45.3154259  24.2966137
  80.5740128  45.4576149  24.0227489  81.4575653  45.3959885  25.2501507
  16.9166813  36.6617508  43.2162018  17.0316238  35.8949814  42.6548805
  16.2905788  37.2116699  42.7452278  25.9165306  53.5003777  23.9461079
  25.8600636  54.3651772  23.5397034  26.3488598  52.9547615  23.2891273
  74.8077393   7.4215822  14.7338352  75.2093430   6.6264443  15.0841188
  75.4685898   7.7836661  14.1435795  45.1977463  58.7647209  29.7872963
  45.6588669  57.9272270  29.8342590  45.8329277  59.3664284  29.3990669
  11.3305635  70.4235229  29.8919334  10.7201767  70.9662552  29.3928299
  12.1754818  70.5560379  29.4620686  61.5076828  31.4389286  70.5523605
  61.8828430  30.6522484  70.9481125  61.1829338  31.9488354  71.2944946
  72.7892075  70.2102127  15.9902468  72.0685883  70.5626297  15.4680023
  73.0811386  69.4382095  15.5054560  78.8277206  47.1096001   1.2507845
  78.6178131  47.9964180   0.9580022  78.3193893  46.5400963   0.6732925
   1.6362514  44.7746315  20.1249638   1.1034333  44.2791252  19.5030231
   1.0630742  44.9055595  20.8803158  49.9752502  31.3920879  13.9595070
  50.4922943  32.1591339  14.2055492  49.7732849  30.9626865  14.7908049
  22.6888657  -0.0024646  52.0782509  23.0224743   0.8916928  52.1518707
  23.4671135  -0.5359642  51.9171867  64.5325851  22.1581764  79.6074219
  64.4962006  22.6763172  78.8034134  65.0701981  22.6791000  80.2039490
  56.1738358  65.7750015  30.8640842  56.0578346  66.5529099  30.3185215
  56.7536087  65.2091751  30.3542404  77.0646896   2.5353403  88.2837677
  76.2493591   2.2700033  88.7092819  77.4114075   1.7273097  87.9054794
  15.8043623  18.5816479  56.9921112  15.8352509  18.9952831  56.1294518
  16.7117805  18.5944786  57.2965164  53.6114082  43.1574974   5.7586603
  52.9233780  43.0574951   6.4165716  53.2220078  43.7189522   5.0883098
  17.6150436  40.2550278  11.4411039  16.9241295  40.3351059  10.7834892
  18.3923798  40.6188965  11.0173388  47.7944641  18.4324017   3.3400395
  48.0522461  17.5658913   3.0254917  48.5153389  19.0058823   3.0798688
  70.2752991  16.1771870   1.2705317  70.0839386  16.6509991   2.0799224
  71.2258377  16.2386589   1.1760291   2.3638835  29.0146847   5.7785392
   3.1329350  28.5552540   6.1157575   2.5742393  29.1930294   4.8619285
  74.6675415   4.3501220  75.3805618  74.0052719   4.6182833  76.0175247
  75.2469025   3.7654412  75.8691635  18.9514923  15.7128344   2.3779085
  19.0106220  16.3311596   1.6496166  19.8551655  15.6050081   2.6745250
  13.1403952  32.2224960  39.1343346  13.5554943  32.6841278  38.4057579
  12.8571606  31.3886223  38.7592812  18.3251171  35.2351685  26.9882507
  18.8287029  34.7573547  26.3292179  18.8061275  35.0966148  27.8041344
  11.1807356  59.5345993   6.6958232  11.1832399  60.1603279   5.9714694
  10.2814932  59.2080841   6.7271576  32.4004059  28.1787186  81.3537064
  33.0984421  27.5256405  81.4033508  32.7096367  28.9017677  81.8994293
  63.0985413   3.0886168  47.5977974  63.0276299   3.3024096  48.5281181
  62.1968842   2.9278407  47.3195877  75.9181213  62.5880241  36.3858109
  75.8830795  62.9407768  37.2749519  76.8352509  62.6799545  36.1276398
  17.2727108  13.3976660  73.3959808  17.1545391  12.5029888  73.0768890
  16.4015236  13.6642799  73.6895447  15.1931591  71.3328171  34.1160355
  15.9977312  71.7030869  34.4790688  14.9484262  70.6418839  34.7316208
   4.8032537  70.6905975  15.5329037   4.0694447  70.0849686  15.4281569
   5.5365696  70.1349487  15.7969809  52.0461655  25.6315498  71.7751999
  52.6223106  26.0150242  71.1139603  52.3234024  26.0352859  72.5976181
  71.8342056  34.1816216  14.1516962  71.5058975  35.0022545  13.7842646
  71.0579529  33.7532349  14.5124683   4.6743660  52.4443436  26.9887695
   4.2852602  53.0583305  27.6115417   3.9939351  52.3085670  26.3293686
  36.0359344   6.7747459  49.2646065  36.7836876   7.3024478  48.9841957
  35.7009048   7.2265787  50.0390968  70.5428391  42.7315979  79.9612198
  69.8153381  42.4931870  80.5357819  71.1338043  43.2364006  80.5199356
  72.6038208  67.1833038  42.8224068  72.8630981  68.1044083  42.7985382
  72.2502518  67.0113144  41.9496841  76.9952011  67.5036392  10.1989317
  77.7636108  66.9328766  10.2025242  77.2313538  68.2268982  10.7797508
   7.8486567  69.4320221  35.9836845   8.0446100  68.5998001  36.4140816
   7.9772820  70.0907364  36.6661644  22.8249626   7.0965185  58.9572258
  23.6367264   7.6014910  59.0049286  22.5759411   6.9565206  59.8708000
  73.7271957   4.0022407  54.2954712  73.8906403   3.3878887  53.5798683
  73.1566391   4.6689658  53.9131432  57.1873474  37.5836258  23.6434269
  56.7233200  38.2982864  23.2073364  58.0813980  37.9084549  23.7501450
  48.9634438  25.1946774  26.3879089  48.8078117  25.4804459  27.2881012
  48.4632187  24.3828621  26.3044586  65.7168808   6.5044641  19.7877789
  66.0599136   6.8398676  18.9594879  65.0167770   5.9041171  19.5315208
  13.1843367  69.7544937  32.3016701  12.2818785  69.6974182  32.6155853
  13.4516907  70.6512756  32.5029869  85.4348297  23.8887863  33.2868347
  84.5774536  23.4636803  33.2662315  85.2889023  24.6987152  33.7756615
  57.2519760  39.7891808  38.8751488  57.3416710  39.8128510  37.9224510
  56.3140717  39.9009857  39.0302658  26.5394592  57.3935661  47.8450050
  25.6605053  57.1570587  47.5488052  26.6388950  58.3111534  47.5912781
  84.6770706  39.9626007   9.3186750  85.3323441  40.6418190   9.4784098
  85.0743103  39.3977127   8.6558485  40.4114838  58.5930519  64.2017822
  41.3595543  58.7237587  64.1841583  40.0475922  59.4469528  63.9679604
   6.6165280  33.2371826  60.3231888   6.9747643  33.0904541  59.4477615
   7.2165890  32.7746124  60.9081535  49.6665611  17.5887985  31.7451153
  49.3559647  16.8275700  31.2549171  49.9380341  18.2127342  31.0718861
  13.7885475  11.7154522  61.9471436  14.3745956  10.9628706  61.8671379
  13.9090137  12.0182104  62.8471756  39.7744675  34.6211395  83.1057968
  38.8499298  34.5007935  83.3225403  39.7713890  34.9015656  82.1906052
  10.4819622  58.2747383   2.2561293  10.2912674  59.1159935   1.8412082
  11.3836651  58.3594246   2.5659544  40.2811279  66.5304794   6.8465357
  40.7199402  65.7910538   7.2671657  39.3703918  66.4632111   7.1333561
  32.5348892   0.5231080  82.1198730  32.7992554  -0.3280905  82.4688797
  33.2797546   0.8063760  81.5896225  23.1871319  64.3208160  34.4505043
  22.9453545  63.9127846  33.6190681  24.0505676  64.7009430  34.2886162
  81.4644318  17.0731754  65.7142181  81.0790558  16.8761463  64.8604584
  82.3985138  16.8968430  65.6018143  68.4247665  42.1884384   7.7361531
  68.8560410  43.0429192   7.7261620  69.1306915  41.5658760   7.9103050
  46.0524254   8.7080450  17.4440365  45.9771576   8.3555422  18.3307762
  45.3841324   8.2405882  16.9429379  64.1129456  59.0003510  13.3860750
  63.7559853  58.4497032  12.6892223  63.9360428  59.8958817  13.0980444
  62.4325371  52.2947273  66.9581985  61.7448921  51.7430038  67.3309937
  62.6518135  51.8749237  66.1263885   6.1530862  51.6065941  87.8003998
   6.7899399  51.6307716  88.5145874   6.0425611  50.6751633  87.6094742
   4.8518629  26.5634327  39.7497330   5.3641334  25.7712231  39.5878220
   5.4465861  27.2815971  39.5334549  43.5117607  40.6587486  22.6240101
  42.9359779  40.3323174  21.9325275  44.3874893  40.3772736  22.3592358
  11.1603355  63.1716499  62.5939980  10.9021816  62.2983894  62.2990379
  11.2996998  63.6658440  61.7861710  21.0748768  46.8999672   1.9700966
  20.1671810  47.1360168   1.7787873  21.0640144  46.6315651   2.8888319
  19.9611053  45.1347427  19.8965034  19.6996040  45.9580574  19.4841881
  20.1135426  44.5378227  19.1639214  30.9196301   8.8011112   6.6629653
  31.4965706   8.3022766   6.0845757  30.3527699   8.1415215   7.0627680
  85.0692139  22.1295261  54.4623299  84.2033234  21.7656746  54.6469231
  84.8941116  23.0157547  54.1458321   4.2561164  32.7070847  78.8783188
   3.6384180  32.0652618  78.5279694   5.1185470  32.3358002  78.6923294
  82.5187759  19.6461201  64.5836945  81.6086578  19.9275875  64.6769333
  82.5670471  18.8253365  65.0738144  49.5469704  70.9873199  52.1115417
  50.3423271  71.4353180  52.3995361  49.7838554  70.5953293  51.2710304
  70.6764374  55.3484039  41.0905228  70.5471878  55.9450264  40.3532486
  71.3864746  55.7433319  41.5965958  83.3907776   5.3155274   5.3249259
  84.1166687   4.6923380   5.3556566  82.7199478   4.9298081   5.8883452
  83.7047577  45.3010635  15.3624020  83.7454758  44.3520775  15.4807072
  84.6134415  45.5632401  15.2148018  32.1772881  48.6917343  23.6243782
  32.1874695  47.8415451  23.1847134  31.2678165  48.9833717  23.5608234
  20.3593102  47.4117050   9.9342880  19.4689350  47.0783539   9.8232002
  20.9221230  46.6683350   9.7177773   0.0680701  33.6862602  79.9853439
   0.6794119  33.5333633  80.7058411   0.1134577  32.8879128  79.4592133
   6.0091753  71.1895752   2.5959461   5.3576865  71.8608398   2.3929770
   6.8182206  71.5135498   2.2000682   7.2088823  70.8790817  28.3849468
   7.7739449  70.1928787  28.7399940   6.8493929  70.5017395  27.5820675
  29.4772987  31.2555809   3.6212258  30.2265320  31.4499187   4.1843548
  29.0807362  30.4762821   4.0106635  36.9262733  49.1510735  75.6956329
  36.5151596  48.3844719  75.2962036  37.1214142  49.7295876  74.9584274
   1.5428228  32.1480942  33.7289391   2.2590539  31.7708206  33.2181435
   1.9001020  32.2379074  34.6124077  75.1720352  58.5381432  67.0062408
  74.4229813  58.5047989  66.4112320  75.3562622  59.4719963  67.1072922
  77.4831390   9.2138186  10.3626204  77.2578354   8.8767357  11.2297096
  78.0242081   9.9836779  10.5380945  32.2264099   4.5685859  53.8571815
  32.8372612   5.2046051  54.2294350  32.2819748   3.8126364  54.4417191
  27.2544174  62.5419579  33.9183960  26.4907990  61.9819412  34.0580521
  27.9841251  61.9309158  33.8164787  86.7056732  67.4741440  60.6056213
  86.1359558  68.1495132  60.9737663  86.7753448  66.8163300  61.2974701
  76.1732559  17.9498615  29.6100044  76.9094925  18.5611305  29.5868092
  75.9985962  17.8205433  30.5422077  82.0559311  19.5998745  74.9069748
  82.4656982  20.3487759  75.3399506  82.3717499  18.8390789  75.3944931
  47.8729706  30.2564659  65.5202103  47.4963913  29.8248024  66.2870789
  48.5393105  29.6459408  65.2048111  37.2110138  44.3559113   8.6295567
  37.6628723  43.5473328   8.8709164  37.9123993  44.9970169   8.5143595
  81.4383240   2.9116814  67.7562485  80.8859253   3.1586027  67.0145493
  82.1220703   2.3621628  67.3731689  81.4567795   8.0336895   5.7280169
  81.8286743   8.1754160   4.8574791  81.2808685   8.9142323   6.0595779
  67.7965393  22.0719795  84.9263992  68.1076660  22.6751785  85.6013718
  67.7397919  22.6070328  84.1347351  21.4352703   2.9041779  25.9252434
  20.8986702   3.3774142  26.5611210  21.3993416   3.4419177  25.1341839
  61.0315971  60.3444328  64.2103958  61.0095062  61.2948036  64.3223724
  61.5243607  60.0255623  64.9665298  54.7586060  22.5149002  81.9848480
  53.8570251  22.8291969  82.0526810  54.9792290  22.2271442  82.8707123
  11.2086315   4.1243877  70.8664780  11.1736908   4.7766776  70.1668091
  10.3421249   3.7177763  70.8583374  83.4756775  71.7328568  73.6982040
  83.6700211  70.9635468  74.2335815  82.6893768  71.4915009  73.2086029
  73.4487381  36.1370201  35.3400383  74.2772446  36.6111298  35.2691460
  72.7985764  36.7343254  34.9702415  43.6334114  31.6311493  20.6797752
  43.3496132  30.8693008  20.1745262  43.3370361  32.3828278  20.1665764
  76.1530533  31.7446842  55.6842575  76.2620926  30.9461956  55.1677704
  75.2656708  32.0412865  55.4822502  43.5529175  47.1768761  80.5233536
  44.2410545  47.7698593  80.2215729  44.0040627  46.3478508  80.6827698
  70.0240173  49.3551140  22.5371456  69.4525757  49.8975410  21.9935856
  70.4863434  49.9796448  23.0961170  82.2186203  43.4355583  30.6157837
  82.5716629  43.2785835  29.7400227  81.4134216  42.9188385  30.6455936
  15.0702085  19.8185844  76.5749207  15.9889631  19.9708042  76.7961655
  15.0801802  19.6100426  75.6407623  50.1137314  29.9082851   9.2027016
  50.1939735  28.9782257   8.9910803  49.2920876  30.1773624   8.7919321
  41.8212814  67.8675156  32.7080727  40.9491806  68.2554550  32.7800179
  42.1990776  67.9637070  33.5822830   4.1587896  54.0955162  29.1267414
   3.9971333  53.7488861  30.0042076   4.9080033  54.6813545  29.2349186
  53.5798721   8.4942579  79.1940918  53.2661743   9.3974161  79.2402573
  54.1966400   8.4920578  78.4620895   8.5556374  56.3499413  10.3247766
   9.4276857  56.6708260  10.0950069   8.6298113  55.3970108  10.2732515
  20.0129967  66.2631378  52.0227394  20.8523178  66.3924713  52.4643784
  19.3723297  66.2234650  52.7328110   5.2232642  47.2814102  45.5304947
   4.4507942  47.2698784  46.0956383   4.9289832  47.7187462  44.7315140
  52.6389885  22.1634579  71.7890625  52.6695099  23.0850296  72.0459747
  51.8318291  21.8317680  72.1823883   1.1004810   8.2885761   1.2864459
   0.3496977   8.3647909   1.8752986   0.8358361   7.6291928   0.6450346
  13.5248117  32.3040352   6.5119748  12.6957064  32.2098961   6.9809675
  13.3390198  32.9416695   5.8226752  62.1527252  62.1037521  77.1045990
  62.2818909  61.2406235  77.4977264  62.3902130  61.9859886  76.1848373
   3.8794546  36.6861992   1.5212333   4.6682086  36.8389168   2.0415952
   4.1217151  35.9817200   0.9201916   9.7995329  65.9721680  74.8031998
  10.3221569  66.5434952  75.3659439   9.1612024  65.5727386  75.3941498
  71.8340530   9.0511417  59.3642731  70.9906540   9.4504118  59.5775642
  72.3544464   9.1503258  60.1615067  49.9811897  54.9820747  26.2325401
  49.9853554  54.9734116  27.1896915  49.2629166  54.3973541  25.9908485
  74.0278473  66.2389145  83.9805298  73.7678986  66.6729965  83.1679840
  74.0548859  65.3085709  83.7570190  61.5934296  36.0882950  67.0196228
  62.0624199  35.3059692  66.7293777  61.3392067  35.8942299  67.9218063
  28.9521427  23.2875748  11.7440252  29.8932781  23.1466694  11.8471727
  28.5883446  23.1213531  12.6136532  72.9196854  40.2116394  57.8505287
  73.1826096  39.4375191  58.3483696  73.7376022  40.5532074  57.4891777
  70.9446335  46.9333458  84.0140762  71.2162704  46.0460396  83.7792664
  70.2624435  47.1509781  83.3788757  16.1357784  10.8844481  76.3762283
  16.2125988  11.2656813  77.2508698  15.5015430  10.1749401  76.4790726
  71.0783920  59.0737228  45.2280006  70.6169205  58.8631554  44.4162521
  71.0830994  60.0303917  45.2595940  55.6389351  59.3070335  52.6334114
  55.9086494  60.1548996  52.9864159  54.6830254  59.3506241  52.6096268
  71.6202545  59.3921089   1.7510295  71.4341507  58.8304787   2.5034719
  70.8973923  60.0193787   1.7357459   0.5973825  50.3360176   9.6197472
   1.2980349  50.1683846   8.9894953  -0.1865601  49.9714241   9.2089691
  79.4762802  50.9343987  68.4011917  80.1617432  51.5112877  68.0641861
  79.8509216  50.5566940  69.1969452  79.5090942  28.0182266  61.0053024
  79.9877090  28.8440075  61.0777054  78.7034225  28.1640835  61.5011444
  69.5821762   0.8557687  43.3981819  69.7509155  -0.0451514  43.1223145
  69.3827438   0.7869953  44.3318443  73.9974365  46.4893303   9.1275549
  73.7306061  46.4735107   8.2084341  74.6826630  47.1565399   9.1665745
   9.2992887   7.5532923  52.8422928   9.4786310   7.0339217  52.0585060
   9.2185173   6.9075341  53.5442200  19.5469666   1.0304369  39.1489754
  19.0334969   0.6630261  38.4295387  19.1250324   0.6951123  39.9400253
  16.6326294  68.5240021  83.3660736  17.4946079  68.1810608  83.1302490
  16.7531929  68.8942642  84.2404938   6.1726413  69.0675049   0.7331904
   5.7606888  68.2536926   1.0234336   5.8864083  69.7215195   1.3708178
  33.6978073  52.2628059  38.0361862  33.6851997  53.0125923  38.6310768
  33.3393211  51.5411186  38.5528030  51.8638382   5.2191267  16.9150906
  51.9259033   5.5926671  16.0359726  51.3726578   5.8692255  17.4174290
  70.4327545  63.1932907  24.3048553  70.7830048  64.0818100  24.2409458
  69.6228714  63.2178612  23.7952309  82.7109146  38.7574081  29.3867226
  82.6492615  39.0883179  28.4906597  83.1211090  39.4696198  29.8773632
  76.2283936  47.2293243  29.9480915  76.6620636  46.8460007  30.7104721
  75.5043106  46.6324654  29.7591610  18.6362133  15.8687782  85.9829330
  18.3818989  15.9068184  85.0609207  18.8441124  14.9470873  86.1362152
  42.8575325  27.9133167  39.1250305  43.1756668  28.1759720  38.2612991
  42.3874893  28.6809101  39.4507523  35.0892067  44.3276329  31.6566925
  34.4530411  44.7412796  31.0732403  35.5311890  43.6795120  31.1082191
  51.5946999  39.8262939  10.9896145  52.1419373  39.2898407  10.4160442
  52.0135460  39.7631531  11.8479919  18.1065998  33.8364906   0.2982399
  17.3902645  33.5316734   0.8551788  17.6892776  34.0399017  -0.5388377
  66.3753738  10.7133865  58.8602104  66.4792633  10.6469421  59.8094330
  66.0254745   9.8620787  58.5973892  53.3642006  55.8060532   3.6234732
  52.5718880  55.7881012   4.1602721  53.0463791  55.9498100   2.7320938
  86.4607086   5.2244515  30.4335117  86.6331329   6.1614852  30.3414803
  85.5075073   5.1610923  30.4936695  47.7734184   8.4370728  22.9432220
  47.5343933   7.5421581  22.7019215  48.6706505   8.5392056  22.6257610
   4.1572866  16.8059597  24.4199104   4.6018906  16.0764999  23.9881153
   4.6849856  17.5731525  24.1981430  27.0395050  50.9567528  76.2201767
  27.5472507  50.6811028  76.9833527  26.8107109  50.1398010  75.7769165
  72.8403549  68.6675110  37.0178108  72.0056229  69.1076279  37.1782722
  73.5012512  69.3401489  37.1821480  23.4729080  55.2026787  89.1653290
  23.5801563  54.2516518  89.1821136  23.6600132  55.4488564  88.2594452
  64.1633987  64.8122253  82.1503906  63.7358093  65.4840393  81.6192932
  64.2302017  65.2024460  83.0218811   4.8350992  47.7043762  67.7900009
   5.4571958  48.4205284  67.9178925   4.5734076  47.4533768  68.6758652
  13.9793167  28.7397423   0.5156353  13.7026911  27.9561310   0.0405959
  13.1613541  29.1685333   0.7672474  33.7283173  21.0017986  18.2445259
  33.6746559  21.9572563  18.2658443  34.0911865  20.8014812  17.3817215
  61.1585426  17.1340942   7.2815495  62.1071815  17.1582890   7.4069676
  60.8333054  17.8919849   7.7674046  23.9890804  70.6079636   2.4073184
  24.1519318  70.2262497   1.5447602  24.7143383  71.2184219   2.5398889
  77.6777039   9.2212534  52.6818924  77.9397659   9.7938099  53.4028206
  78.4935303   9.0300512  52.2191811  51.6322517  65.0866776  38.0987892
  52.5232506  64.9011078  37.8022804  51.3520470  65.8300095  37.5647774
   7.0524530  61.3818169   2.3251731   6.9529910  60.4455528   2.4976492
   6.7334886  61.8071976   3.1211286  68.3329163  30.3133125  35.3939209
  68.9405518  29.7876682  35.9142151  68.4325943  31.2021618  35.7348633
  72.5239639  28.0818062  34.2869492  72.9254456  28.2561855  35.1382027
  71.7591782  27.5427265  34.4887543  74.3641815  57.5274506  75.0010071
  73.6764679  57.9326515  74.4727173  75.1702728  57.9574547  74.7154465
  85.3488235  32.5611382  85.2057037  85.1451187  31.6281033  85.1410370
  86.2780533  32.6193733  84.9835129  31.3387299  61.9388428  34.6215706
  30.7661858  61.2195511  34.3550301  31.8756695  62.1163559  33.8492889
  16.8289471   8.7741346  44.7637901  17.6539288   9.2328844  44.9224892
  16.2734718   9.4228477  44.3315277   7.5425878   7.5548916  66.6201706
   8.0921917   6.9627190  67.1334915   6.7740006   7.7056808  67.1704178
  71.7314224  43.3158607  56.2188568  71.3293457  43.6858635  55.4329376
  72.6597443  43.5350342  56.1388168  29.1734734  25.8903427  13.4524593
  29.4072838  24.9626217  13.4224710  29.8026237  26.2763271  14.0619011
   8.6467667   3.3217223  35.2636299   8.6918154   3.4998159  36.2030373
   8.1904821   2.4826424  35.2005386  53.8691559  44.6594772  60.2307281
  54.5446777  45.2103767  60.6262131  54.2133141  44.4434814  59.3640518
  78.6579285  63.4981651   8.0858650  77.9913940  63.5135880   8.7726812
  78.2100677  63.8349991   7.3098555  77.5106430  23.1706104  62.7780914
  78.3060760  23.4938526  62.3549767  77.1095810  23.9504795  63.1617470
  74.5364532  24.6309185  56.7251091  74.4533386  23.7420101  56.3799057
  74.2666321  25.1953888  56.0006790  67.7502441  36.2011147  25.1016865
  68.1467209  36.6044655  25.8739204  66.8096695  36.3360023  25.2172623
  16.9493313  56.3073502  22.2002716  16.5397987  56.2808914  21.3355083
  17.8541050  56.5685997  22.0289116  16.7041149  42.9040260  66.5184250
  16.6572781  42.1443901  67.0989380  16.1913471  42.6508522  65.7508316
   0.5047822  57.4849548   5.7421632   0.8217275  57.3931389   6.6406884
   0.0543492  58.3294907   5.7321959  18.2723103  41.0270576  84.6399689
  17.3513660  40.9445496  84.3924103  18.4604740  41.9616852  84.5545578
  22.6262665  68.1294174  87.6731262  22.2632294  68.9978561  87.8470459
  21.9315395  67.6693420  87.2020493  12.6115847  19.2586994  18.0892143
  12.1674843  19.9297333  18.6075974  12.6695299  18.5033798  18.6743355
   0.8284227  48.2442322  15.5241280   1.5733376  48.0742874  14.9475412
   1.0056539  47.7200813  16.3052082  86.1039658  27.2149448   7.1186409
  85.2805405  26.7995148   6.8624792  85.9418106  28.1525269   7.0143375
   1.2745001  40.2343636  55.2628174   0.5129942  39.8619766  54.8182182
   1.5085638  40.9991760  54.7369804  72.8471375  14.5763817  21.7273560
  73.7636871  14.4792595  21.9856911  72.3571091  14.1055994  22.4014969
  15.1078672  17.2917671  52.1998024  14.1911583  17.1324654  51.9750786
  15.4145365  16.4592686  52.5591507   9.8658895   9.0045242   0.5061708
  10.2478685   8.2341375   0.9266806  10.6125422   9.5780096   0.3333798
  12.3362780  52.9536552  49.8743286  12.1688538  53.0133247  48.9337769
  11.5910587  52.4620171  50.2195435  56.8265343  27.5726814  78.5543518
  57.4953957  27.8802948  77.9426041  57.0424995  28.0030136  79.3816376
   9.3445969  67.4833298  41.3073921   9.7731152  66.6329041  41.2105370
   9.4887266  67.9210815  40.4684486  56.6931343  60.7019539  69.1244431
  57.2596817  61.4687347  69.0389938  56.8267441  60.2137108  68.3120422
  86.1937561   7.6679463   3.4507415  85.8240967   7.7844005   4.3259697
  86.5127869   6.7655044   3.4436162  33.6599693  69.7482986  83.0189514
  34.3794365  69.5192566  83.6072845  33.3757057  68.9115524  82.6511536
  23.7387276  31.4829311  85.2843323  23.3510494  30.6134605  85.1845551
  23.0775356  31.9869881  85.7586594  20.7598286  55.4832344  44.6950836
  21.0982113  56.3031387  44.3352432  21.5197887  55.0696831  45.1045609
  50.8652916  47.6162758  84.4247818  51.4238815  47.2968063  83.7161560
  50.0951157  47.0485649  84.3971405  23.6362667  15.9375486   1.5532329
  22.6882896  15.9802141   1.4277269  23.9412594  16.8279591   1.3789352
  80.3378372  34.6766930  46.9820442  80.1850433  33.8255501  47.3924522
  81.2849350  34.7112579  46.8477135  71.1900177  12.3531694   7.8902154
  71.9379044  11.8789186   7.5269256  70.5091629  11.6875801   7.9885306
  18.9862881  68.3479156  76.6413116  19.3712959  67.9430542  77.4185410
  18.3693199  68.9925537  76.9877625  64.1488571   6.2136579  48.0402260
  65.0749741   6.2983475  47.8135796  63.6915550   6.2604856  47.2006340
  13.6587181   2.2788527  50.8152008  13.4293423   2.5292480  49.9202576
  14.6037741   2.4210248  50.8689308  71.8416367   4.5842910  33.5400925
  71.2009277   4.7890482  34.2211227  71.3134460   4.3488479  32.7773247
  59.7610321   5.8186064   6.0093684  60.0548172   5.2837720   6.7468467
  59.1896935   5.2388768   5.5056682  58.0348473  33.2540359  80.6245117
  58.6344299  33.8692436  81.0467148  57.1667824  33.5182228  80.9293060
  82.4060516  27.1024761  48.7497864  82.1307678  26.7548714  47.9014816
  83.2363358  26.6620369  48.9310837  67.8844910   5.6700788  13.6276913
  67.5633926   6.5123682  13.3057032  68.1151733   5.8353009  14.5418682
  53.9695435  42.2806625  18.1386700  54.2164459  43.0619392  18.6335239
  54.1205673  41.5554924  18.7449284  37.2348824  68.1503143  26.3844109
  36.8631859  67.4068451  25.9097252  38.1699829  68.1203384  26.1821232
  52.6823006  61.9326248  23.4129887  53.4664192  62.4242287  23.1686192
  52.9832458  61.0278168  23.4965916   6.6901765  20.1074791  11.7112789
   6.1047192  20.0631046  10.9553003   6.5876241  21.0000153  12.0415726
  60.9240150  69.2637863  13.3955774  60.5419540  69.2430267  14.2729769
  61.1008682  70.1903915  13.2332144  20.0320969  29.7778091  72.3152161
  19.3989525  29.1273880  72.6190491  19.5033989  30.5486813  72.1091461
  62.8864861  36.6364632   4.8687825  62.6298370  35.7680092   4.5587034
  62.7820435  37.2039909   4.1050835  86.8654709   3.6311605  42.3833847
  86.1764755   3.4155827  43.0119057  86.6663513   3.0944343  41.6162453
  69.1543350   5.8698964  34.8282356  69.1777878   5.5647407  35.7351875
  68.6286545   6.6692748  34.8580055  56.4696846  55.8447609  15.1637688
  55.9997864  56.4751968  15.7096434  56.5924950  56.2958679  14.3285122
  15.1787300  52.3654022  54.7728157  15.3676386  51.6552658  54.1594200
  14.2377853  52.2978668  54.9349709  36.2748222  70.8021240  52.7485237
  35.7538109  70.6448288  51.9611015  36.6512527  69.9481354  52.9612007
  73.9219589  36.0323563   7.4853463  74.6188736  35.3997002   7.6593699
  74.3215561  36.8838081   7.6630673  24.4147491  11.9624949  88.6076736
  25.0642986  12.6643744  88.6486969  23.8908062  12.0743723  89.4008942
  50.4829597  34.3185806   9.4675007  49.5521660  34.1329689   9.5916119
  50.5958900  34.3522682   8.5175829  25.2828503  39.1442070  25.1159248
  24.9731197  38.3055420  24.7739544  26.0489464  38.9193535  25.6439095
  72.5913239  31.5986710  69.7482376  73.0778580  30.9231968  69.2757492
  71.6866074  31.2860680  69.7487488  34.0178642  69.3110199  39.2142563
  33.3551445  68.7024841  38.8875847  34.0375519  69.1591034  40.1591187
  51.3406563   4.9134665   8.5348024  50.5857849   5.5020170   8.5313931
  51.9234505   5.2752891   9.2023840  63.6741257  29.8767567  12.7037859
  63.0238075  30.3297005  12.1669779  63.1582718  29.3120022  13.2792692
  42.3649292  63.7728958  38.0903778  42.3903351  62.8746529  37.7606125
  41.5078926  64.1029434  37.8205757  32.3311768  66.5915451  18.0551090
  32.3436928  66.7067184  17.1049461  32.2965279  67.4822617  18.4039040
   5.7396736   6.5396638  85.6852112   5.5333791   6.4902234  86.6186066
   5.1413860   7.2036324  85.3425293  27.4181347  29.7111607  28.8528938
  27.3332767  30.5845280  28.4704552  26.5183487  29.4424934  29.0384636
  13.2046051  25.8272362  60.8231583  13.7010994  26.3764038  60.2164116
  12.7941484  25.1656475  60.2663269  61.5352478  54.8052101  19.0266571
  61.2540627  55.3961220  18.3280945  60.7732887  54.7344170  19.6016693
  53.0575409  50.7037849  49.4286919  53.5592766  50.1268044  50.0045204
  53.6443138  50.8766060  48.6924438  76.3056259  68.0809937  20.4329109
  75.4938202  67.6325073  20.6696968  76.7300491  68.2662277  21.2706375
  78.3795319   6.7963114  65.8138428  78.1568222   7.7244053  65.7412262
  79.1707077   6.7812829  66.3524094  35.8624458  51.2838173  42.2642746
  36.4818535  51.9062195  42.6453018  35.1944656  51.8321648  41.8527489
   8.2814970  45.9489784  29.6024818   9.1091032  45.8365326  29.1348743
   7.6319995  45.5181007  29.0468464  17.2169285  64.7338867  17.5671349
  16.8771706  63.8976707  17.8857822  16.8906555  65.3794937  18.1940098
  65.8220901  31.8104954  47.1797905  65.7681732  31.7866726  46.2244072
  65.4204483  30.9890575  47.4629097  15.7718563  43.2368698   9.9158087
  15.2379541  43.0250130   9.1501093  15.1509361  43.2514191  10.6441479
   9.1161594   5.8948302  25.9162540   8.1707993   6.0013928  26.0219517
   9.4438467   6.7840505  25.7815704   7.8280101  24.4545765  29.2608356
   6.8860874  24.3390293  29.3859844   8.2004642  23.5899601  29.4338951
  52.4531898  10.8556786  79.3833008  52.6810265  11.5081949  78.7210770
  51.5401230  10.6356487  79.1985550  68.5657120  28.3452206  19.0746269
  68.1548538  28.5028400  18.2245750  68.8123627  29.2159061  19.3865604
  80.7630157  45.5335426  71.4965363  79.8789444  45.3181152  71.1994934
  81.0636673  44.7438507  71.9462357  35.4135704  64.8803101  13.3467140
  34.4725075  65.0266953  13.4426508  35.4806023  64.0307541  12.9108229
  59.0080681  31.7779503   2.4762275  59.5557289  32.3635139   2.9991174
  58.1151390  31.9600906   2.7690344  28.2880001  27.6935062  86.4023209
  28.1427059  27.0369968  87.0835876  27.7600632  28.4435749  86.6760254
  48.2387772  55.3158188   4.3466845  47.8250732  54.6565514   4.9038615
  47.6309662  56.0551758   4.3587470  73.6092453   9.3809423  84.9581757
  74.4102783   9.6638260  84.5170975  73.5309830   8.4521904  84.7401733
  35.3830070  62.9946632  10.5685425  34.9876442  62.8266335  11.4239283
  35.4636765  62.1291466  10.1677866  83.8674164   4.6588011  73.5625534
  83.3166351   5.4244599  73.3993301  84.6241989   4.7815986  72.9894714
  40.0404854  59.5235748  82.4293365  39.2348900  59.2127342  82.0162659
  39.9383430  60.4745255  82.4679489  75.9404373  53.6227684  24.8412933
  75.5539246  53.1018219  25.5451813  76.1238327  54.4713821  25.2443485
  60.5610313   3.5441155  14.6710472  60.5221367   2.9788888  15.4425631
  60.6412163   2.9384298  13.9341974  18.6281967  18.2585468  14.7771797
  18.0386562  18.9449234  14.4648314  18.5170250  18.2616863  15.7278976
  21.0147686  43.3771515  37.5579453  21.3788586  43.6679192  36.7218094
  20.0877628  43.2238922  37.3751831  82.9387970  63.3511734  25.9714165
  83.5913696  63.7718811  26.5312290  83.3489380  63.3201599  25.1070938
  66.0437927   8.2227707  32.9017105  65.9101562   8.4609346  33.8191261
  65.3029556   8.6172333  32.4414978  71.2447662  10.2685480  87.4284973
  71.5556030  10.3961248  86.5322037  70.2909775  10.2476549  87.3505402
   2.5035627  11.5052357  30.9440975   1.7712520  11.3268452  31.5341225
   3.2541356  11.0795317  31.3584023  47.6503563  54.5162277  69.1255112
  47.3112144  53.6246758  69.2052155  48.5953064  54.4248581  69.2477951
  63.5059013  47.5350952  52.5638237  63.7098618  46.5999336  52.5536385
  64.2570190  47.9393387  52.9981537  18.2027473   8.5424252  74.0002975
  18.6989040   9.1057043  74.5942535  18.2135620   7.6825676  74.4207306
  16.1951942  17.2887077  72.7489471  16.1021461  18.2401772  72.7966766
  15.6012726  16.9559193  73.4218063  51.7003784  59.5361099  62.4122696
  52.3473740  59.6534042  61.7166595  52.2202873  59.4566460  63.2120247
  33.6871147  71.4288025  16.2137356  34.2783356  70.6920242  16.3681812
  33.1092491  71.1291580  15.5119429  71.4347839  25.2508945   5.4804645
  70.6965179  25.2498283   6.0897260  71.8227615  24.3807297   5.5727749
  26.7562275   8.4777527  34.6076431  26.2320747   9.2043581  34.2706871
  26.1998005   8.0680017  35.2700081  31.9303570  13.8648720  66.3318405
  32.1912041  14.7858429  66.3300705  32.0513802  13.5799227  65.4260864
  43.9778976  51.6037788  79.2534561  43.3241920  50.9618454  78.9762878
  43.7836914  52.3833618  78.7331009  65.0448914  51.8495827  67.3235397
  65.4714127  52.6711159  67.5672379  64.1188431  52.0764580  67.2387390
   7.7009921  63.5981674  57.5043831   7.7418780  62.6649246  57.7132263
   7.2967658  63.9983978  58.2742195  69.7055130  69.0160294  44.9269104
  69.1202545  69.4568024  45.5428848  69.7765579  68.1221619  45.2618446
  24.0722980  33.7367516  88.0967789  24.3877659  34.4898224  87.5971832
  23.2918262  33.4462051  87.6248932  14.1994658  68.0305634  51.1388321
  14.8971596  68.6375122  51.3859482  14.6593266  67.2490692  50.8321991
  74.3136215   0.5771174  66.0573044  74.3767700  -0.3075171  66.4173965
  74.2080002   0.4452250  65.1151428  34.6429787  47.1402092   8.3857374
  34.7084541  46.8881950   7.4646339  33.8948898  46.6435852   8.7173367
  85.3307800  54.2860184  83.2804794  86.0034561  54.9435730  83.1033859
  85.7872620  53.6025047  83.7710495  70.6627197   5.8014145   4.9094992
  70.8888702   6.7303391   4.9562359  70.4174805   5.5692554   5.8051510
  54.7706261  67.6927414  34.3998375  54.8075180  66.7653732  34.1656342
  54.1034203  68.0598679  33.8199387  35.0624924  57.0447540  82.7724457
  34.3400650  57.3378143  82.2170639  34.9555359  57.5389862  83.5851746
  39.2823677  46.7581482  35.5810814  39.8203011  46.3274574  34.9167290
  38.9834785  46.0456276  36.1460762  17.2236481   8.0109930  48.0299721
  18.1250477   7.7580113  47.8306923  17.0453053   8.7449493  47.4419785
  78.3234787  48.6899910  55.1799011  77.9801865  49.5030403  55.5504837
  79.2054901  48.6144600  55.5440292  32.0027390   9.0743532  48.6054955
  32.3414078   8.4681358  49.2643089  32.5954971   8.9741888  47.8606224
   4.5103464  10.7227745  52.1033783   4.1401691  11.0717611  51.2925720
   5.3931313  11.0908346  52.1415176   3.3070054  48.1239052  53.1942635
   2.6682668  47.6746445  53.7478065   3.8354299  48.6365891  53.8059464
  60.5358963  27.6091022   5.5849290  60.9091873  27.8273945   6.4388809
  61.2702103  27.6861629   4.9757667  66.0374146  18.4217606  50.5384254
  65.3656769  17.8463326  50.1725273  66.1746216  18.0946846  51.4274864
  66.1205750  50.7045898  44.4616356  66.1993866  49.7797050  44.2279625
  66.2285156  51.1710739  43.6327972  64.5292740  38.5311928  20.8692684
  65.4104080  38.3820724  21.2121983  64.1512756  39.1857147  21.4565945
  21.5245304  70.3832397  84.8812943  22.4326382  70.4890060  85.1648102
  21.4563026  69.4607010  84.6353302  82.4415894  14.2856026  54.3320274
  81.8172836  14.9267330  54.6717720  83.2910309  14.7224865  54.3937035
  20.7562027   1.2532201  55.9581680  20.0275440   1.7962691  56.2588081
  20.6914291   1.2727289  55.0033646  69.4097290  57.2495651  39.1279373
  69.3480453  57.3716011  38.1805534  68.7920303  57.8838005  39.4918442
  77.4315414  53.8168793  20.9464588  76.7213058  53.2944298  20.5738430
  77.7064514  54.3915291  20.2320118  74.7983246  58.7260094  83.7688904
  74.1011810  58.3244514  83.2502747  75.6026001  58.3229752  83.4418793
  17.8536091  56.5174179  31.4605904  16.9058819  56.3847351  31.4396000
  18.2180672  55.6338348  31.5124340  84.3557205  30.1748734  79.1945343
  84.3185501  30.6162624  80.0430756  83.4434738  30.1288910  78.9083099
  14.2495165  65.0041885  66.4232712  15.1939831  64.9916840  66.2681580
  13.8648081  64.7749405  65.5772934  70.7960587  12.8695564  36.9734116
  70.3142014  12.6730356  36.1700287  70.1524506  12.7555847  37.6726952
  21.7777920  29.9538250  60.3614616  21.9244003  30.4436626  61.1706581
  21.1696014  30.4966221  59.8597565  14.4785738  15.2843962  62.8211212
  14.2129412  15.0032778  61.9455376  13.6961317  15.6957664  63.1882591
  24.2774181  42.3995399   5.2268591  24.1417427  41.5399055   4.8282952
  23.9670410  43.0206871   4.5680180  66.9170837  27.5014133  84.5318909
  67.1489716  28.3823013  84.8259964  66.0168686  27.5832558  84.2170105
  13.0951214  48.3666153  13.9446888  12.9703865  48.2167587  13.0075569
  12.5048103  47.7430038  14.3676224  86.1380920  27.4933376  74.6743774
  85.2954102  27.1977596  75.0189972  86.1192703  27.2450466  73.7501373
  66.8032761  46.2521057  18.7013912  66.3889923  45.5482254  18.2022400
  66.1670380  46.9669533  18.6807022  80.6644821  70.6623535  25.1584072
  81.0224686  70.8381653  24.2882519  79.7156601  70.7087708  25.0409088
  40.7479362  42.2008362  88.9291840  41.6954308  42.0887070  88.8522873
  40.4276390  41.3445206  89.2126694  48.0430984  55.9383202  22.9446220
  47.7181892  56.7953911  23.2204685  47.7694893  55.8612785  22.0305996
  58.9449387  51.2317200  78.2039108  59.4589500  51.8177910  77.6484375
  59.4564362  51.1553421  79.0093689  23.3311806  49.1555061  64.7757797
  22.5551529  48.6194878  64.6123886  22.9883919  49.9622955  65.1602478
  34.9840889  23.3540974  23.4209652  35.4782982  23.3886280  24.2399883
  34.1789742  23.8374214  23.6064835  19.1923103  54.4564667  -0.0973163
  18.8096161  54.0083542   0.6569855  19.5092144  55.2886124   0.2538842
   0.5295724  64.0839539  42.4933128  -0.3441187  64.4684982  42.4224358
   0.4621319  63.2491226  42.0299110  17.3974743   4.3118663  19.0652142
  17.4369526   5.1960998  18.7007923  17.4294758   3.7362440  18.3011036
  85.8815002  41.3276291  85.5408707  84.9771500  41.1895485  85.8225021
  86.3640137  41.4836388  86.3526993  31.8592319  56.0318565  58.2541275
  32.0528984  55.0967636  58.1883736  30.9687252  56.1165543  57.9134598
  36.0446091  26.9735432  21.6686096  36.0654831  27.4301987  20.8276215
  36.1147499  27.6702232  22.3212566  80.5305176   4.0249352  47.2786598
  81.1127243   4.7690606  47.4321175  80.0590057   3.9154565  48.1044464
  40.7991295   2.1892531  86.8913651  40.8194389   2.6978912  87.7019882
  39.9920540   2.4641376  86.4562836  69.8259583  38.7578278  39.0545921
  70.3746719  38.7424088  38.2704277  69.5103302  39.6598892  39.1083565
  21.5581188   1.1716974  60.4168892  20.7626057   0.8654801  59.9814301
  21.6431065   2.0856504  60.1454124  56.4309731  60.0454979  76.4117889
  55.5607262  59.6983032  76.2159348  56.8549271  59.3553925  76.9219437
  49.0946999  10.7413931  81.4547119  50.0498390  10.7764530  81.4026184
  48.8940125   9.8102617  81.5493164  84.9011154  46.8231392  32.2490730
  84.3951874  47.6325073  32.3211136  84.2440186  46.1273880  32.2686920
  11.3143930  13.4647303  45.2737160  10.7243147  12.8491859  45.7086220
  11.0172844  14.3271036  45.5640068  33.3974457  69.5757294  63.1203499
  34.0429153  70.1952667  63.4605980  32.8632469  69.3448563  63.8803253
  10.2665949  33.6301765  70.8960953  10.8985510  34.1811180  70.4342270
  10.0140724  32.9660225  70.2547150  34.6342201  58.4750023  85.2976685
  35.2348099  58.8200340  85.9583282  34.3123436  57.6547699  85.6716232
  53.3569221   6.7916880  32.3440895  53.2048988   7.6797023  32.6674347
  52.6787186   6.2639093  32.7656593  47.9888840   6.9422550  60.6714516
  48.3320389   7.8175697  60.8511696  48.0467110   6.8529801  59.7201805
  38.4369354  60.0697823  52.1164055  38.5077057  59.5528297  51.3139191
  38.3901825  59.4192619  52.8170280   3.8372350  45.4698524  85.8152161
   3.3097177  45.2975159  85.0353088   4.7232480  45.2046318  85.5684967
  82.1996841  59.0962753  85.8242340  82.0898819  58.1627350  86.0049973
  81.5949478  59.5296059  86.4265213  35.8948364  13.8365240  87.5820312
  36.4084625  14.4968281  87.1168289  35.5468445  13.2730808  86.8908997
  61.4933701  44.9312935  31.1607227  61.4976730  44.4400330  30.3392124
  61.9693451  44.3734093  31.7759018   7.6674008  71.5184784  75.7680740
   7.1576972  71.4138489  76.5714951   8.2992144  70.7997589  75.7899475
   1.7075726  37.3139801  53.4150238   1.7473743  37.3260078  52.4587288
   2.4515884  37.8484955  53.6924515   1.5623521  43.8194885  12.9170094
   2.4058781  43.8722916  13.3663502   1.1174970  43.0787811  13.3289433
  37.1111259  55.9334717  45.0659485  36.3725777  56.1711617  45.6265564
  36.9499016  55.0193672  44.8321724  74.1323090   7.5256510  79.7629929
  74.9495087   8.0112629  79.8752213  73.6435928   8.0268478  79.1101608
  20.1539879  34.3248024  76.7184982  19.2992344  34.0027542  76.4322968
  20.7669334  33.6343575  76.4658813  47.0635185  41.5467644  89.1230392
  47.8690109  41.7588043  89.5946884  46.9415207  42.2774200  88.5168228
   9.0527010  38.8335991  74.3974457   8.8107634  39.6516533  73.9632950
   9.3576546  38.2673073  73.6885452  82.8340988  32.4131508  50.6180000
  83.6860046  32.2161102  50.2285690  82.2362595  31.7812347  50.2186127
  75.0774231   2.7225969  45.5717049  74.3463593   2.1607921  45.3144989
  75.6040192   2.1776924  46.1565208  19.9645195  38.4574699  88.6733246
  19.4782810  38.2986107  87.8642731  20.8786011  38.5171471  88.3956146
  34.5659561  51.5239143  27.1441460  34.7436562  51.2303085  28.0377064
  33.7319603  51.1120949  26.9181156  48.0946846  61.1822243  20.9821739
  48.9037361  61.6877975  21.0600586  47.5633125  61.4644089  21.7266502
  18.4608040  60.9023666  42.9934998  19.1528130  60.8228836  43.6500320
  18.2395248  61.8336334  42.9902802  26.0377159  21.9019871  10.9404192
  25.2834377  22.2153130  10.4412966  25.9515305  22.3242931  11.7950907
  60.3388138  29.7679138  36.1912766  60.9289474  29.6525955  36.9360428
  59.5746574  30.2128124  36.5578346  35.4084587   8.1337204  25.6701927
  34.5963707   7.9875755  26.1553612  35.4668617   7.3893876  25.0712032
  77.9615097  29.1493301  43.7732315  77.8626328  30.1013794  43.7656403
  77.1171799  28.8183899  43.4669228   7.8185968  60.0114250  40.4740219
   7.2317600  60.7531395  40.6213913   7.5687399  59.3720932  41.1411476
  58.2582359  16.6637783  35.6740646  57.5106239  16.8959026  35.1232224
  59.0208664  16.7959099  35.1108856  22.3604565  64.6544571  47.4137955
  23.2248154  64.2500458  47.4883804  21.8337936  64.2193680  48.0842857
  22.3132153   3.4091089  67.9675980  22.4461517   2.9090590  67.1622925
  22.7358189   2.8846362  68.6477203  74.3056870  27.7801971  30.2846203
  74.0537338  28.3704281  30.9948177  75.2363281  27.9559650  30.1458969
  50.6912880   6.0251174  61.1574211  49.7560387   6.2288556  61.1626549
  51.0510254   6.5325093  61.8850021  84.6759796  66.9243927  34.0629196
  85.4156952  66.5859909  34.5674362  84.6107101  66.3368301  33.3100967
  13.5756330  24.9718628  81.1529312  13.1380072  24.1212845  81.1880264
  12.9370918  25.5849533  81.5170975  12.7615347  65.7709503  75.9365234
  12.2492380  65.1859512  76.4947052  12.9558735  65.2495270  75.1576843
  52.6105423  49.4828682  10.1101599  53.3501625  49.8747177  10.5745392
  53.0089645  49.0170021   9.3750010  36.0460014  70.6330185  26.1266155
  35.7166862  70.8503952  26.9986992  36.5277557  69.8150711  26.2495232
  58.9736214   0.1977272  23.2406578  58.4376755   0.9525108  22.9971504
  59.6261063   0.1323313  22.5433655  14.3555470  28.4267712  79.2539444
  15.2534285  28.2934837  78.9501801  13.8346958  27.8098125  78.7398376
  14.6577339   2.9402354  54.2011681  15.3075771   3.2452822  54.8343201
  15.0988312   3.0068121  53.3542747  76.6983490   5.2485476  33.3234558
  76.4618149   5.3920321  32.4071045  77.3633881   4.5607214  33.2942810
   8.2097721  49.1493492   3.5397370   9.1354322  49.2886505   3.3397865
   7.7606287  49.8813210   3.1169834  33.9860382  12.0869474  55.3259087
  34.1285439  12.9012794  54.8434296  33.9779968  12.3517885  56.2457085
  10.4071474  26.3923664   2.2836442  10.5038624  25.6409836   1.6985779
  11.3021975  26.6100426   2.5439017   4.8517900  27.5786552  62.2889862
   4.1856236  27.5165939  62.9735336   5.4141226  26.8174229  62.4322968
  20.9473476  33.4431076   3.1292894  21.6381493  33.3367653   2.4752884
  21.4103661  33.4550667   3.9669671  26.8681736  60.5017509  86.6142502
  27.8221111  60.5553284  86.6722488  26.6799011  60.5866013  85.6795959
  42.7977753  15.7349882  70.1547928  43.6036224  15.7917948  69.6413574
  42.9398651  16.3309116  70.8902664  17.4476700  56.7393227  76.9676666
  17.5490589  55.8458290  76.6396103  17.2912865  56.6336212  77.9060745
  67.1527557  29.3189316  52.2945023  67.8029251  28.6216908  52.2086792
  66.3253632  28.9068031  52.0458984  52.6962280  34.3251762   2.9139199
  52.3016090  33.4564476   2.8376551  53.1167488  34.3225708   3.7737970
  22.3427238  53.0856094   6.6588893  22.2098274  54.0265198   6.7740526
  21.9916553  52.8989372   5.7881799  14.8229418   4.0026183  46.3527145
  15.2143908   3.2022464  46.0028534  14.2698975   4.3288817  45.6428375
  41.9914551  55.3296242  69.0809937  42.1183319  54.5824585  69.6656952
  42.6267967  55.1941948  68.3779755  30.3409805  39.6866875  18.1473789
  29.7052040  39.0317459  18.4355965  30.8296375  39.2542038  17.4470901
  82.5818329  39.6151199  49.8917503  81.9788208  40.1092262  49.3363495
  83.3678436  40.1596336  49.9355698  57.9975243   4.2045102  57.6685219
  58.2025871   3.9194453  56.7780609  57.0428276   4.1590652  57.7206802
  22.1972427  30.1704807  73.9890747  21.5456944  30.0265236  73.3027802
  22.8726330  29.5136757  73.8197021  31.9631538  18.9937077  16.2852135
  31.8381710  18.5089264  17.1010551  32.6722984  19.6072292  16.4774017
  37.3036385  16.2976551  86.6432724  38.0795975  15.7422247  86.7182159
  37.6497536  17.1663780  86.4389191  53.0436935  59.9094200  52.4404640
  52.2970200  59.5090675  51.9950142  52.6762733  60.6740913  52.8837624
  79.6688614  15.0633440  67.6874237  79.5029221  14.6937504  66.8201904
  79.1593475  14.5142117  68.2833099  33.0401306  52.8072281  82.7761993
  33.0301895  52.9964485  81.8379364  33.9657860  52.6825562  82.9855957
  79.7729645  59.0773582   9.9323225  79.3744736  59.9390678   9.8102789
  79.1479568  58.5994911  10.4775200   6.6292839   2.5852745  22.6168938
   6.1995845   3.4387507  22.6731873   7.2284160   2.6672394  21.8749008
  44.4361191   4.9178867  43.5167046  44.8546562   5.0930614  44.3595390
  45.0717697   4.3841209  43.0399780   5.9906254  33.7070084  10.2678213
   5.6897483  34.5007324  10.7102079   5.1890440  33.2181244  10.0815563
  15.0528717  39.6936226  46.0459862  14.7167215  39.9786148  45.1962700
  14.7860060  38.7768860  46.1138954  62.9293633  54.5857315  42.1214447
  62.7124710  53.7399483  41.7292252  63.5847054  54.9613800  41.5335236
  43.4475746  47.6804199  65.5716248  44.0443192  47.7102661  64.8237991
  43.9236412  47.1853447  66.2383270  37.6061249  63.6009521  43.8265648
  36.8349342  63.4384918  44.3698006  37.2733459  64.1020203  43.0819702
  74.4961090   9.3467693  76.0287247  74.4874268   8.3959866  75.9184113
  73.6321945   9.5544786  76.3847427   3.6269248  65.7801590  52.4114456
   4.5256252  65.6370010  52.1146698   3.1485884  66.0224991  51.6185417
  82.1014175  36.5889816  17.2532787  82.8913879  36.2802124  17.6969452
  81.5372162  35.8172989  17.2040672  58.4529114  27.9047108   7.8422265
  59.3925705  27.9022121   8.0246153  58.0428467  27.7661419   8.6959705
  15.4023962  49.3050346   5.0626149  15.0252790  48.5376091   4.6324129
  15.0280619  50.0507088   4.5934896  35.7904053  28.4204159  14.8383379
  35.3061523  28.3527279  15.6612291  36.1153336  29.3206806  14.8250008
  79.2298050   0.0080115  71.1935272  79.0349884   0.9110796  70.9430313
  78.4822235  -0.2587427  71.7284927  52.5713310  61.4700508  88.4821320
  53.2508354  60.8208771  88.6640091  53.0359459  62.1899834  88.0554428
  10.0269346  -0.1450441  46.1346664  10.6596804   0.5439625  45.9318466
   9.1888161   0.3121707  46.2035370  64.6760254   8.3486834  14.2327089
  65.2775345   8.1351051  13.5194063  64.9988480   9.1814384  14.5769997
  51.8182449  64.3707962  57.8981247  52.0175438  65.2931671  58.0586090
  51.1386223  64.1578217  58.5376472  65.7771225  67.7994080  55.4648972
  65.4358215  67.3426590  56.2337456  66.6292953  68.1343002  55.7439537
  70.6046143  51.7833824   0.5057958  69.6636810  51.6324501   0.4158245
  70.7153244  52.0721931   1.4116445   6.6823325  19.1897488  53.2926178
   6.0578313  18.5736351  53.6755486   6.2767673  20.0482712  53.4138145
  43.6435928  39.4438133  10.2131243  44.0237999  40.1650162  10.7146616
  44.3941383  39.0191345   9.7977161  43.4589272  43.5656013  22.4336166
  43.6803436  42.6600723  22.2163048  43.9539108  44.0907288  21.8047543
  48.2672806  40.1429482  61.8427734  47.3261185  40.1806717  62.0131340
  48.6631813  40.0365524  62.7077446  19.0331116  57.5743980  58.5288239
  19.4273930  57.1948814  59.3141518  19.7734356  57.9294357  58.0367851
  59.7563248  56.9674149  13.5654249  60.1245995  57.4748497  14.2886925
  59.7863350  56.0603180  13.8695717  74.7848053  60.6908646   3.2121394
  74.4187775  60.6317825   2.3296621  74.1611481  60.2169762   3.7623336
  79.3423309   0.8232788  29.4684963  79.8139038   0.2248939  28.8890209
  78.5810623   0.3225456  29.7616959  38.8468361   8.5266838  77.2331390
  38.8731537   8.4713182  78.1883698  39.6995621   8.1962337  76.9504852
  35.3358803  63.7180862  31.6806736  36.1282997  63.2965469  31.3481007
  35.6568832  64.4521103  32.2044983  76.3485947  38.1271858  16.4365463
  77.1025314  38.2539635  17.0125160  76.0646896  39.0140419  16.2149258
  33.3317108  12.0335855  82.3290634  32.7702065  12.7228003  82.6839218
  33.1287231  11.2627296  82.8589783  53.2544441  70.3999939  51.2880974
  53.9681320  70.6799774  51.8612366  52.4884911  70.8756409  51.6095161
  14.8296547  38.9657974  38.5183601  15.0569105  38.0401230  38.4305458
  13.8797007  38.9911423  38.4035683  81.6188965  64.0915680  23.3734703
  81.3143463  64.9217834  23.7398319  80.8842697  63.4907837  23.4984379
  44.4026031  54.9441223  44.9422150  43.5904350  54.4383392  44.9140396
  44.6815567  55.0003853  44.0282936  12.1767092  55.2728920  52.2878952
  12.0630054  54.4260292  51.8564720  13.0761995  55.5275879  52.0822792
  86.6435394   2.3887255  54.9308395  85.8095627   1.9352623  55.0536690
  87.0709534   2.3398390  55.7859154  52.2257767  57.1948280  53.3423576
  52.9378281  57.7975960  53.5565605  52.0265579  57.3762207  52.4238586
  33.4061012  60.3332634  53.7992897  33.6293068  59.4389954  53.5410347
  33.6335144  60.3781891  54.7279968  59.1751099   3.3155346  23.2009048
  59.9903297   3.1673112  23.6801472  58.6650810   3.8931506  23.7687626
  42.0632324  41.3101006  82.7133713  42.4923820  41.8592072  82.0572052
  42.3186607  41.6948471  83.5517960  30.0760098  55.4348373  10.8232164
  30.7025146  55.7562714  11.4715996  30.2739983  54.5019722  10.7407875
  63.7809410  63.3491402  54.2811394  63.7950287  62.5969734  54.8729858
  63.0533218  63.8865814  54.5941200  46.9676781   2.5102303  22.0903759
  47.9031143   2.6111441  22.2664776  46.8815079   1.6166127  21.7583313
  25.7145462  53.7305069  41.4713974  26.6225910  53.8886719  41.2131920
  25.6950512  53.9232368  42.4087906  60.0942039  17.0220013   4.4208336
  59.7946587  17.9310474   4.4325433  60.2151413  16.7977676   5.3435063
  60.0944595  10.1055527  24.9128933  60.3765221   9.2156267  24.7014618
  59.1999664  10.0024910  25.2376938  21.8146629   5.0478077  19.7760334
  22.3361664   4.3645515  19.3548145  21.5973682   4.6874719  20.6357861
  66.3219681  61.3087311  81.9890060  67.0472565  61.9222984  81.8718796
  66.6903992  60.6003380  82.5168991   0.9632136  29.4960880  71.7070694
   0.9805386  30.4343605  71.5184631   1.4275687  29.0954418  70.9721603
  86.0331421  36.6316833  37.6050682  85.3993835  37.0034485  38.2185555
  85.5958405  35.8586845  37.2480392  33.8683472  34.1563797  13.2756891
  34.4422951  33.8822670  13.9910078  34.2058220  35.0125809  13.0125093
  83.4233780  63.7640495  82.2191849  83.6672974  64.2979355  82.9752884
  84.1800613  63.1964340  82.0726624  21.0586815  38.1246452  38.3449173
  21.8562431  38.2079201  37.8222351  20.7656479  39.0258255  38.4799728
   3.8841960  48.8554535  88.8868713   3.0125582  49.1655197  88.6412277
   4.0961180  49.3425980  89.6831207  31.4896317   2.6678214  49.2217140
  31.0423355   3.3066435  49.7767525  31.2722492   1.8200119  49.6092682
  43.3217392  18.1553135  36.4323883  42.9687538  18.1467285  37.3220825
  42.5617180  17.9997864  35.8716660  54.1961021  20.5993023  79.8758087
  54.4918518  21.2230358  80.5389252  54.7229843  20.8033504  79.1031570
  53.5714874  59.3414001  37.4062233  52.6718559  59.6417351  37.2770081
  53.4891052  58.4020462  37.5707092  76.4397812  21.1335011  56.3879776
  76.6680069  20.2085114  56.2955856  75.6437759  21.2370338  55.8665428
  43.8612366  19.6810474  30.4264641  42.9501534  19.7145653  30.1348572
  44.0185394  20.5393772  30.8198528  72.7258301  32.7265854  24.5157547
  73.0805130  31.8480892  24.6524086  72.4524307  32.7344818  23.5984631
  10.2177515  52.9645348  88.4837494  11.0636215  52.7684898  88.0808792
  10.0169430  53.8556099  88.1975708  82.7770462  26.0712776  39.0528603
  81.9646759  26.2023354  39.5418434  82.8059235  26.8026028  38.4359627
  64.3921432  42.3480873  17.6085300  64.9703598  41.6505051  17.9172020
  64.4088211  42.2685394  16.6547871  59.2786140  35.2326736  88.1385422
  58.5302544  35.2614937  87.5424271  59.5893250  34.3286400  88.0893631
  67.3719711  37.5519676  81.0019150  67.6545410  38.2048721  80.3615189
  66.8970032  38.0551262  81.6633224  73.2435989  29.5939789  32.1397057
  72.8859406  29.2856331  32.9723091  72.5490417  30.1371288  31.7671375
  84.0262680  57.5290375  56.1035500  84.5327682  57.6244469  55.2969589
  83.1529007  57.8487549  55.8771744   1.1202244  41.3214073  70.8856049
   0.9343354  41.7839317  70.0684433   0.9956697  40.3968811  70.6712036
  80.5847168  21.9935894  82.4021454  81.3479538  21.4892597  82.6838303
  80.4735870  22.6591740  83.0810242  59.9380760  16.2725506  63.8514252
  60.8602333  16.1738567  63.6145363  59.6618347  15.3933630  64.1101761
  48.9291344   6.3925300   7.8934875  48.2786369   6.0535092   8.5084229
  48.6674194   6.0332651   7.0457468  81.7984467   5.5583282  15.8663540
  81.5683517   6.4359694  15.5613375  81.3570557   5.4751525  16.7116280
  71.5759888  54.7940521   4.9640665  71.8976517  54.8766556   4.0663247
  72.3672409  54.6982117   5.4941311  65.4039459  19.9960728   1.7193296
  64.9885941  19.8777256   0.8650988  66.3141327  20.2110023   1.5153778
  26.6404400   7.9112468  56.4179459  27.5101414   8.2910070  56.2929077
  26.3217468   7.7452788  55.5307465  77.4883957   6.8197932   9.1032457
  76.9446945   6.3489852   9.7348804  77.6094284   7.6866918   9.4906340
  47.4428520  19.5080070  76.1392899  47.7772675  19.6913300  75.2613449
  48.0315323  19.9849834  76.7242508  85.8611984  29.7387924  20.0744438
  85.7438736  29.7705631  21.0238953  85.0567780  30.1184254  19.7208672
  43.6413689  67.2352829  23.0867748  44.5035896  67.3475571  22.6865253
  43.0620651  67.7936630  22.5682697  77.2968369  38.2449074   5.5334411
  77.4435120  37.3914871   5.1255317  77.7426453  38.1862755   6.3784556
  29.4029598  29.9957428  32.6726494  29.3163223  30.6183472  33.3945160
  29.9160328  30.4631672  32.0134850  39.1326294  69.8327484  47.3490067
  38.4322052  70.4668274  47.1954308  38.7573471  68.9926910  47.0849953
  83.7256851   1.6933507  17.7831745  84.4833679   1.2018429  17.4660606
  83.3695221   2.1152377  17.0012589  75.5566025  23.0542030  27.1797371
  75.0126266  22.5808201  26.5502701  75.0406113  23.0594234  27.9859371
  48.6250153  47.9705925  88.9206924  49.2759171  48.6598091  88.7882614
  48.5353813  47.5575790  88.0618439  60.9109116  53.5130730  79.0937042
  60.6136742  54.3890648  79.3397064  60.6437263  53.4174271  78.1795349
  85.0374527  35.8391457   3.6060753  84.6449966  35.9540405   4.4715300
  85.9373245  35.5665779   3.7854195  18.4530830  49.2439575  51.9872894
  18.5202084  49.9308548  52.6505394  17.9666882  48.5413322  52.4185295
  83.1532516  68.0819778  72.0833969  84.0160828  68.4826050  71.9773483
  82.5383148  68.8097000  71.9911575  30.9673710  47.8796234   7.8010278
  31.2006836  47.1072655   7.2859964  31.4197578  47.7566223   8.6355629
  29.6346359   4.1505504  84.0746841  30.4934464   4.4499893  83.7763367
  29.8287964   3.4664435  84.7154160   5.4045248  57.8890800   6.4375386
   4.5304217  57.6147652   6.7148967   5.8317933  58.1784744   7.2437181
  18.0369339  55.2849274  51.5237656  18.7587490  54.6565132  51.5061760
  17.5166874  55.0308456  52.2860107  74.0001450   7.3260884  40.9741325
  73.4540558   6.6991115  40.4998817  74.3246078   6.8371267  41.7303543
  32.2753868  57.6365738  70.0215378  32.2890244  57.8505402  69.0886612
  31.3528633  57.7009964  70.2685852   6.6754665  36.6399002  57.7330856
   6.0299625  36.7310715  57.0321960   6.6633964  35.7076874  57.9500389
  63.2033806  47.7494965  74.0329208  63.9084702  48.3926048  74.1070328
  63.4956131  47.1519356  73.3446198  64.5219345  37.3170357  42.9191246
  64.3238373  37.4354286  41.9901581  64.1286163  38.0777435  43.3467369
  10.9260845  32.8740654  82.8134079  10.4854183  33.6364365  82.4381256
  10.8099041  32.9714355  83.7585297  51.4414444  61.2256317  32.4032097
  50.6873589  60.9689980  31.8724346  51.8100052  60.3978691  32.7117538
   2.5367336  18.3204384  20.0390720   2.9822345  17.4865685  19.8893394
   3.0540195  18.7493305  20.7207603  47.0375366  51.6737595  82.5849915
  47.7516861  51.5492439  83.2100677  47.0927124  50.9150238  82.0040436
  19.1491241  60.0621986  76.8980637  18.8181362  60.5024910  77.6808929
  19.9276581  59.5931206  77.1982040  39.5740776  61.7711334  85.8843155
  40.1973915  62.3205566  86.3595505  38.8087692  62.3318710  85.7574081
  84.2356949  16.3784084  37.7359314  84.6666031  17.2329044  37.7162476
  83.3505402  16.5637054  38.0496254  26.0495758  55.1064873  82.5612259
  26.2686863  55.7458572  83.2390366  25.4003658  55.5495529  82.0149155
  79.8039627  37.7731094   3.0775635  79.5126572  38.3717575   2.3898191
  79.0777588  37.1586151   3.1836214  39.3021355  71.5849609  61.0987701
  40.2204247  71.3296738  61.0104332  39.0219116  71.7841415  60.2054405
  83.4934540  40.9963303  86.4797058  83.4944763  40.1181068  86.8604355
  82.6483078  41.0637741  86.0353928  74.2345810  20.0297775  30.8430901
  73.7534256  19.6575031  30.1040821  74.7498093  20.7398148  30.4601803
  16.3584766  14.7343731   3.1989014  16.6477928  14.5378494   4.0899153
  17.1192207  15.1413670   2.7843478  73.6444321  27.0182610  41.5284729
  73.4535599  27.3624744  40.6559372  72.7845764  26.8933830  41.9300652
  77.0190430  19.6732502  64.0694199  77.5374756  18.9019737  63.8400993
  77.5672073  20.1547413  64.6890259  50.6940155   3.7811196  88.9449692
  50.6896629   3.7922528  89.9020920  50.5277061   4.6897693  88.6941147
  12.4849873  47.5738182  53.0711250  13.3705406  47.4108505  52.7463646
  12.4785690  47.1944733  53.9499207  71.1421051  10.7490215  15.5388813
  71.5050659  10.1860313  14.8551188  70.7548447  11.4840145  15.0634336
  64.4999542  22.8058910  20.0915623  64.8916626  22.6225643  19.2376385
  65.2058563  23.2084236  20.5974331  38.7936020  52.6299095  53.7333183
  37.8427429  52.7022285  53.8161697  38.9397469  52.4438782  52.8058128
  19.6536789  51.9824715  44.8883247  19.1498508  52.2822456  45.6449776
  20.2604637  51.3343849  45.2461319  56.0883636  68.8925476  80.4178619
  55.2032623  69.2532425  80.4701309  56.4282913  69.2122040  79.5820999
  76.1045074  52.2176552  32.0774231  76.5807037  51.9450493  32.8617401
  75.1827621  52.0842819  32.2983971  18.5945148  56.2347908  18.6768703
  17.9029140  55.5953789  18.8473816  19.3213177  55.9557152  19.2337418
  15.2872715  38.5828094  21.2183304  14.9192762  38.9214172  22.0345135
  15.4750547  39.3639870  20.6980152   4.9167523  17.1966667  46.0625114
   4.5908403  17.2551231  46.9606171   4.2116961  17.5614185  45.5276413
  86.4610367  50.7525368  85.2470016  86.7285843  51.6691246  85.1798248
  85.8612976  50.7321320  85.9927444  20.9466705  49.5110703  50.8300934
  20.9600010  48.9993858  50.0212479  20.0616169  49.3915939  51.1745300
  58.7070541  45.9728966  20.6891289  58.5794487  45.5275345  21.5267448
  58.6561127  46.9045067  20.9029980  72.9565735  27.4369316  55.4511070
  72.3273163  26.9363136  55.9703789  73.1352692  28.2162113  55.9774361
  72.9305038  39.2643433  65.4633865  72.7694244  39.8115387  66.2320633
  72.6941757  38.3804932  65.7447968  53.8184471  56.6140938  26.2223396
  52.9588623  56.7664986  26.6149178  54.4399986  56.9440727  26.8711967
  70.0026932  38.0941048  66.8556213  69.9139786  38.7128067  66.1306610
  70.5875626  37.4145775  66.5203552  68.5599136   9.5611563   3.4828267
  69.1638641  10.2898855   3.6257715  68.8715668   9.1460209   2.6786065
  71.3291245  23.9432259  68.2219086  71.0795135  23.5374851  69.0521469
  72.2219009  23.6361675  68.0641251  34.8459854  24.2158642   8.4929008
  34.8013496  23.5107365   9.1386814  34.6469650  23.7899666   7.6590943
  67.5537720  52.6935997  78.2117462  67.9123001  52.4377060  77.3619232
  67.7895355  51.9742661  78.7975845  26.2869835  58.5907135  57.2134438
  26.4272957  58.7317123  56.2771416  27.1039104  58.8748131  57.6235046
   6.9524174  60.9065361  88.6901779   7.7371626  60.3662491  88.7823715
   6.5268974  60.8588982  89.5462723  28.2613811   7.0487761  67.8631363
  29.1980762   6.8585925  67.8115234  28.2123280   8.0042124  67.8942490
  68.8735199  21.2538223  39.9270821  69.6108322  20.6447906  39.8860207
  69.0916061  21.8457432  40.6470108  85.4141693  26.1419277  34.7569046
  85.8089523  26.9987755  34.5950775  84.4876022  26.3295898  34.9068565
  33.6582069  70.5080338  72.2341156  33.4354324  71.4387894  72.2169495
  33.2950630  70.1900482  73.0606995   9.7090797  30.2833500  32.3562775
  10.0759554  30.5570469  31.5156078   9.2247066  29.4822159  32.1567764
  75.9154510  12.5954037  15.5137491  75.2597351  12.1162052  16.0203400
  75.5684433  13.4854870  15.4539919  66.9701157  33.3036537  85.4642487
  67.3515625  32.7931595  86.1784821  67.6701965  33.8979149  85.1941147
  72.8045349  23.6895046  18.3895321  72.8133926  22.7631149  18.6302719
  71.9340820  23.9950180  18.6448956  22.3962975  34.0593758   9.9585171
  21.6165905  34.5345688  10.2457066  22.0563622  33.3439827   9.4210348
  58.3385048  55.2726822  52.3574333  57.7115402  55.3824120  53.0723534
  59.1287956  54.9378891  52.7812042  36.3374596  67.0111084  17.5051422
  37.1195602  66.5766678  17.8454552  35.7274551  66.2967148  17.3213749
  83.3961639  62.7067642   8.3004456  83.2045517  63.4527702   8.8687696
  84.0469131  62.1980782   8.7841797  42.3023071   8.9182587  36.9294891
  42.4764366   9.0120964  35.9929504  42.2153244   9.8166647  37.2481308
  69.5806961  58.0406456  68.3788681  69.9163818  58.6120949  67.6882248
  70.0624619  57.2211342  68.2669067  64.2187729   1.7171618  88.6046753
  63.5398140   1.1686742  88.2117386  63.7698517   2.1876845  89.3070374
  23.3404789  70.7791901  14.7072992  22.6070747  70.1672363  14.6451321
  23.7870445  70.7043076  13.8639717  66.4702682   4.2418852  27.3686409
  67.0657654   3.8079181  27.9796143  65.9510345   4.8299060  27.9171448
  67.9915085   9.9141493  40.2319221  68.0503311   9.5915890  41.1312180
  67.0965881   9.7083960  39.9617233  30.7932777  27.1215687  55.5334358
  31.2828236  26.9882240  56.3451004  29.9007359  26.8474312  55.7442665
  73.0781021  22.1164951  22.0820236  72.5266495  22.8931637  22.1764469
  73.9735260  22.4506989  22.1345215  70.8380280  61.6844254  45.4153214
  70.3854752  62.4788246  45.6987991  71.6601562  61.6892433  45.9055405
  51.6059036  70.4521027  57.6911011  50.9706764  70.4339371  58.4069138
  52.4068260  70.7919235  58.0902023   9.4490948  33.5653191  30.0977402
  10.1899948  32.9603539  30.1340408   9.8418951  34.4317245  30.2039566
  74.2681808   4.6604991  63.8372688  73.7452240   5.1362405  64.4825668
  75.1502457   5.0200362  63.9317589   1.8087976  37.3235435  75.8892059
   0.8596673  37.1995163  75.8885193   2.1663470  36.4357605  75.9044113
  10.0837946  15.0947304  58.9996681   9.4821005  14.4224176  59.3193436
  10.6394148  15.2964544  59.7525444  49.7894287   3.7924874  54.2634201
  50.0515480   3.7092962  53.3465767  49.6867294   2.8901904  54.5659828
  46.5312729  19.9664192  16.0729637  47.4518738  20.1785297  15.9189157
  46.3729019  20.2310390  16.9791241  71.5577621  25.5646591  57.1710663
  71.2811356  25.8111477  58.0536499  72.4157104  25.1583118  57.2936935
  35.0116348  64.2813187  50.2471924  34.6966476  63.9271698  51.0788155
  35.5863838  65.0047531  50.4972801  29.9551163   4.3918509   0.7415338
  30.5943623   3.7168045   0.5136978  29.9933338   5.0131011   0.0143340
  82.2021713  62.7206001  30.8974342  81.4825897  63.3478546  30.8268700
  82.3220673  62.5985947  31.8392258   9.2222414  24.8168392  68.9390488
   9.4293880  25.4863205  68.2870407   9.7019987  24.0416832  68.6471634
  58.0278549  35.8394432   8.1090145  58.2434731  36.3821259   7.3505716
  58.5085907  36.2390480   8.8338881  12.4572639  13.1895647  85.8210907
  11.5354633  13.4075356  85.6832352  12.8595667  13.2937641  84.9588089
  86.0930328  45.8358765  36.9776268  85.8640900  46.4186020  36.2535744
  87.0114517  45.6135597  36.8249397  75.4661865   2.9015923  36.6238441
  76.3991394   2.9224303  36.8368874  75.0257111   3.0265887  37.4644356
   5.8394723  57.1838570  21.6851139   6.7572799  56.9695358  21.8522282
   5.4522309  57.2741623  22.5558147  68.4100571  34.3408165  15.2275457
  68.7886505  33.5392342  15.5886049  67.5194016  34.0939713  14.9784727
  61.9781647  29.0637627  27.4201660  61.8293533  28.2876072  27.9602299
  62.8952141  29.2906265  27.5743885   2.6025212  16.3073387  81.1693039
   2.7034006  16.9366512  81.8834610   1.7343657  15.9278231  81.3053436
  33.8299942  47.3667297  12.5052509  34.6113968  47.5721512  11.9919844
  34.0251732  46.5220375  12.9110012  65.9049454  71.4014206  57.2162857
  65.7513428  71.4546890  56.2729912  66.6183167  72.0188141  57.3780327
  52.3043938  53.6749954  47.9083366  53.2198219  53.6157341  47.6349907
  51.8417015  53.9857407  47.1301460  76.9355469  57.7909622  27.8694477
  77.3067017  57.3111992  28.6099205  76.3514557  58.4349670  28.2698650
  83.9489288   7.9001994  59.9421196  84.0806274   8.0886955  59.0129471
  83.3626404   8.5929947  60.2462997  67.6476364  67.4059372   7.5658588
  66.9322815  67.6971436   8.1312704  68.4333267  67.7864227   7.9584732
  71.4280319   0.7191623  88.1743698  71.6164017   0.7587996  89.1120148
  72.1399536   0.1938638  87.8090515  10.8928061  49.4936218  78.0734329
  11.1322489  49.6081276  77.1537628  11.5942898  48.9540710  78.4381790
  69.1889572  30.4998188  45.4406853  68.8749313  31.3368225  45.0985641
  70.1060867  30.6606827  45.6625519  41.6969833  63.3756485   7.5661550
  41.0762291  62.8429489   8.0632715  41.6915436  62.9934235   6.6885977
   4.5190420  44.2790260  73.7420349   3.5689101  44.2339439  73.8490372
   4.7956738  43.3654327  73.6709213  60.3743019   2.6759934  85.6515198
  60.1445084   2.9530766  84.7645798  61.3275337   2.7551677  85.6877670
  14.6444578  21.9305267   2.8804889  14.7697916  21.1564617   3.4294410
  14.2487707  22.5771179   3.4649401  39.5094147  43.1405525  82.4982910
  39.5500526  42.3543282  83.0427475  40.2024040  43.0185852  81.8493576
  59.7401924  62.0920563  20.0972443  60.4421501  62.3733788  20.6840553
  59.5672226  62.8560867  19.5471821  85.5084839   2.8300881  36.8639450
  85.5599442   2.0343673  37.3934822  86.0316162   3.4717610  37.3443832
  49.1756935   8.4417820  42.6496086  48.3252335   8.3738537  42.2156334
  49.1120224   9.2372904  43.1781387  17.9384880  21.8350487  85.1848221
  18.2943420  20.9554119  85.3106766  17.0779171  21.6912174  84.7911758
   9.2102718  51.1027641  83.5691452   9.3499861  50.6463547  84.3988495
   8.2918901  50.9369659  83.3562698  50.4890671  26.2331219  35.3830032
  50.3471642  26.7667542  34.6011238  51.2716331  26.6061592  35.7887917
  30.1160107  55.3029633  49.1600723  29.7280235  55.3056831  48.2850380
  29.4000702  55.5617447  49.7403259  61.9513588  16.7389736  37.7808609
  62.2946091  16.3310738  36.9858589  61.0399246  16.4497585  37.8241119
  47.8300552  51.1292877  41.6905098  48.2670822  51.4916229  40.9198265
  47.0583153  50.6838188  41.3409271  73.3127747   4.1725578  86.2722092
  73.3954849   4.3033357  87.2168198  74.1710815   3.8484738  85.9992218
  39.5883484  59.3476868  19.3814201  39.2444077  60.2271309  19.2248383
  38.8466454  58.8609123  19.7407970  84.4038086  69.3497772  75.4590683
  84.3893509  68.4464798  75.7754288  85.0898056  69.3588257  74.7915726
   2.7761040  41.9287834  36.8122749   2.5377872  41.4454155  37.6033440
   3.7055964  41.7381744  36.6860123  86.3975067  44.0243187  58.5765953
  86.7320404  44.4173546  59.3827248  87.1799393  43.7254868  58.1131973
   5.5733995  17.2147369  10.3664837   5.1725545  18.0805244  10.2892361
   6.0696511  17.1072941   9.5550508  15.5755959   6.5935230  74.7352295
  14.7510443   6.2365613  74.4051895  16.1254482   5.8249359  74.8874435
  68.8631058  55.6933937  85.6137619  68.4266586  56.4294815  85.1849060
  69.2646484  55.2023697  84.8969040  64.3220291  49.0664291  55.0364685
  65.0839233  48.9782562  54.4637756  63.7495117  49.6830826  54.5801849
  68.3607025  34.2252007  75.6128616  67.8910980  35.0339890  75.4089890
  67.8527451  33.5380745  75.1815033  79.9409561  65.9023514  25.8451958
  79.2671890  66.5002747  25.5215263  80.7615051  66.2599564  25.5060101
  62.6528931  15.7253695   9.9313860  63.2275467  15.6622629  10.6942921
  63.0407639  16.4175568   9.3959742  18.7729759  60.9201965  79.3458786
  19.3913803  61.5222626  79.7597885  18.1379490  60.7190857  80.0332794
  45.5002861  66.6905594   0.6361867  44.7840729  67.1604309   0.2090035
  45.0806313  66.2143631   1.3526769   6.1527944  67.6254044  34.7200050
   6.0889568  67.6956177  33.7675209   6.8223257  68.2648773  34.9629707
  65.6597595  42.8388138   5.3632145  66.1890259  43.6178932   5.5339246
  66.2971039  42.1292229   5.2825956   0.7694427  10.8198395  25.1178074
   1.4138442  11.5265894  25.1563053  -0.0605765  11.2399721  25.3431702
  48.2282524  55.7070389  10.0329189  48.2816582  54.7588577   9.9132004
  47.3803101  55.8478928  10.4540873  45.4411201  66.9275970  13.5391483
  45.6461983  67.5219650  12.8174095  45.2482758  66.0920181  13.1138868
  23.0543652  16.9051876   8.0087938  23.2411346  16.3157482   8.7394848
  22.1055584  17.0284843   8.0370178  33.7256241  52.4534187  17.9391842
  33.2091599  53.2367744  17.7498379  33.2096291  51.9779358  18.5902557
  85.0904770   1.3427387  27.3142529  84.8313751   0.5560414  26.8344517
  84.7579651   1.2029185  28.2008877  14.0323706  42.3360062   1.3087839
  14.0846701  41.4173164   1.0451431  14.4265671  42.8168488   0.5810254
  66.5695801  33.2648201  55.5971413  67.5098343  33.2748642  55.4181290
  66.2457886  32.4923439  55.1338120  25.7464809  51.4805794  14.2935543
  25.1723824  52.2387161  14.1846085  26.5648365  51.8461571  14.6295261
  22.6849251  41.2043228  29.5237122  21.9246387  40.7304306  29.8607922
  22.9427223  40.7176437  28.7408237  44.4744682  44.6295204  14.5601311
  44.2798538  44.8262863  13.6438112  44.0643883  43.7785339  14.7146845
   0.2714000  68.4591827  52.6549683   0.9576386  68.5467453  53.3165131
  -0.4261999  67.9745178  53.0962029  68.1441727  13.9730206  57.0533371
  69.0847244  13.8797369  57.2046165  67.9197693  13.2395449  56.4807205
  86.3098373   2.9332027  49.3697548  86.1656265   1.9902843  49.2901344
  85.4330902   3.3144150  49.3226128  60.9087868  27.1103783   1.9950963
  60.1605415  27.6556129   2.2381554  61.4173813  27.0282269   2.8018284
  26.0489235   1.0029376   2.2093358  26.6174469   0.4131247   2.7044463
  25.9562073   1.7730616   2.7701783  36.6467094  58.4874001  87.1399689
  37.3698387  57.8611794  87.1740341  36.1575813  58.3326416  87.9480743
   9.2171507  18.4729462  35.3289757   8.8662109  19.0918236  35.9693375
   9.2366199  18.9636726  34.5073662   6.6004877  21.5419693  70.0498199
   7.0469851  21.0033016  70.7030487   7.3005462  21.8496704  69.4740906
  46.3818283  16.4374142   5.6147666  46.7114372  17.0243435   4.9342484
  46.2871132  15.5917654   5.1764321   0.1541899  47.6488495  76.8132629
   0.6725690  47.6576385  76.0086288   0.6728874  47.1283531  77.4266739
  16.8255005  19.4348660  88.4610443  16.3833160  19.5560436  89.3013000
  16.1587811  19.6447086  87.8070755  76.1157761  54.2316818  47.6930580
  76.0308533  54.3082733  46.7427139  75.2553482  53.9326096  47.9870834
  19.0415421  29.7760258  32.8035622  18.5378742  29.0090847  32.5308838
  18.8381081  29.8779869  33.7333221  27.5747852  36.0420456  56.6386185
  27.0636520  36.8513489  56.6371231  26.9818153  35.3849335  57.0030670
  81.9630356  33.2150993  33.7810822  82.6387405  32.6994438  33.3409042
  81.5746078  33.7449570  33.0849457   6.1828055  24.6372147  62.7954788
   6.2454720  25.1219482  63.6184845   6.6263533  23.8075142  62.9718170
  11.8075752  53.4361877  41.3160439  10.9371252  53.3547897  40.9262695
  12.4099140  53.2200203  40.6042213  23.3277836  50.5739174  45.0788574
  24.0453491  50.1082420  44.6493530  22.7297077  50.8012848  44.3669319
  45.4547882  30.5993176  10.8783283  46.1887360  30.4837856  11.4818220
  45.4867287  29.8282986  10.3119888  30.8848591  65.6260757  26.0522957
  31.4319267  64.9461975  26.4456406  31.4113636  66.4230270  26.1146774
  37.3554420  17.7352295   2.2681322  36.7308998  17.6826382   1.5446604
  37.5629692  16.8233433   2.4721606   8.3180904   3.6932604  32.0623322
   7.4836850   3.2886474  32.2995834   8.8774834   3.5543911  32.8265495
  26.6193218  69.3188553  54.9236794  26.3396015  68.5527267  55.4247093
  25.9249878  69.9628143  55.0631447  64.0410995  41.3402405  15.0286760
  63.9819984  40.6297607  15.6673937  63.9963951  40.9024544  14.1786299
   9.0443678   5.1118417  54.0219307   8.1608620   4.7580881  53.9194221
   9.5893869   4.3461561  54.2033501  76.7590408  55.6461830  87.3457794
  75.9944229  55.2104683  86.9692993  77.2794342  55.9136925  86.5882416
   7.9076214  33.8788071  38.6475372   7.3270597  33.1714172  38.9282150
   7.7154965  33.9911919  37.7165756  29.9913101  46.3339233  42.3731880
  29.9951916  46.1227570  43.3067970  30.2186871  45.5109215  41.9405289
  15.3697205   5.4141908  24.7798786  15.8391113   5.4802976  25.6114635
  14.9122791   4.5748134  24.8291168  80.3368378   4.8129735  80.7408905
  80.5863266   5.6189046  81.1930618  80.8619080   4.8149905  79.9405594
  39.8995552  45.4356880  86.0061798  40.6513367  44.9240379  85.7073898
  39.4738007  44.8779755  86.6572723   5.5818582  52.1744919  56.7876740
   4.7069383  52.5627213  56.7826042   5.6223660  51.6859856  57.6098366
  83.0186310   6.6093402  76.3782883  83.0001602   6.7849994  75.4375229
  83.4590225   5.7629623  76.4553070  80.2727585  63.1703987  25.6673031
  79.9212112  64.0392838  25.8614140  81.2091904  63.3155861  25.5322380
  80.6282349  56.4096031   0.6991757  81.4153976  55.9196243   0.4614055
  80.7719650  57.2840233   0.3372882  65.6998520  65.3219833  23.3695679
  66.1206894  65.4083557  24.2249432  65.7865067  66.1881409  22.9714489
  19.5848751  57.6184387  79.4787674  20.1485519  58.3909645  79.4375076
  18.7642345  57.9403725  79.8517761  24.1810627   0.9732754  32.4054070
  23.9697952   0.1303005  32.0041695  23.3785877   1.2301859  32.8595695
  64.1615448  17.9473991  28.6513214  64.8968964  17.4264431  28.3286877
  63.4325447  17.3289204  28.6990242   5.0597591  35.2590675  52.7043571
   5.3063240  35.3841095  51.7879486   4.3930082  34.5726624  52.6814804
   5.1880608  16.1568604  64.7854233   4.3179703  16.3749104  64.4513092
   5.4422579  15.3731594  64.2981567  52.7749443  34.5220146  81.4361801
  53.6061630  34.4068031  81.8966522  52.8873367  34.0424652  80.6154327
  60.5973434  62.2088318  58.5732689  60.7614059  63.1507454  58.5273018
  60.8623657  61.9625244  59.4594574  58.4903297  57.5950050   7.2705684
  58.3668442  56.7175789   7.6326613  57.6181488  57.8576279   6.9763613
  15.6268368  41.6464691  83.1128616  15.9199944  41.7899513  82.2130280
  14.8015099  41.1700706  83.0227890   5.7200775  -0.0681684  26.0829506
   6.5383039  -0.2188321  25.6096249   5.1758456   0.4253981  25.4694061
  42.0320168  54.6311378  50.5538902  42.1602249  55.5000343  50.9344406
  41.1258926  54.6360855  50.2454338  24.4379158  48.9468384  71.9917221
  25.2843399  49.3919868  71.9512253  23.8566017  49.4886017  71.4580536
  84.8900604  69.8299255  14.6713676  84.3364410  69.5834885  15.4123163
  84.3920059  70.5084229  14.2154913  70.8154373  56.5560265  34.0591888
  70.2900543  56.5319481  33.2594185  71.7147522  56.4242210  33.7590408
  18.4135971  51.4586716   8.2021141  18.3434010  52.2655411   7.6919494
  18.1778450  51.7173347   9.0930376  13.8072634  55.6508980  55.4129105
  13.0986938  55.0697174  55.1365280  14.5091047  55.4895668  54.7823372
  70.9935379  52.8534737  38.0516052  70.6989059  53.1149483  37.1792221
  71.6985016  52.2268448  37.8885040  56.5900230  46.5140877  12.0941362
  56.5498581  46.5831070  13.0479994  57.1610374  45.7631264  11.9321680
  50.5643158  31.0417271  29.6390438  50.3584671  30.1413460  29.3877010
  50.9546280  31.4262218  28.8541508  79.3946457   4.0604982  69.1245117
  80.2347870   3.8290489  68.7285080  78.7832565   4.0908518  68.3886337
  74.2756195  69.0397644  40.5106888  73.8277893  69.6267700  39.9015007
  74.1020126  68.1625137  40.1693382  31.8283443  32.0982704   4.7744508
  32.1461754  31.9603558   5.6667485  32.6185455  32.0873222   4.2343626
  83.5209808  54.8752861  36.0623627  82.6935349  54.7043533  35.6125374
  83.4422302  55.7767906  36.3743210  75.6716690  36.3348236  68.6334457
  75.6569366  35.5612640  68.0698624  76.1348495  36.0487671  69.4207611
  48.8107300  60.1824341  28.0392361  48.3860626  60.9783249  27.7191582
  48.5175514  59.4966545  27.4392490  13.6560993  19.6166077  26.0034637
  13.4190626  19.2366142  26.8494263  13.5760040  18.8911591  25.3841553
   3.2540131  22.1402893  25.2118187   3.0417814  22.6923676  24.4592228
   4.1875758  21.9522381  25.1152325  23.2329769  25.6347275  24.3673134
  24.1462078  25.9199181  24.3372078  23.1165104  25.1195145  23.5690517
  79.1073227  15.8301525  46.6929665  78.1511230  15.7882624  46.6803207
  79.3064728  16.7659550  46.6639137   1.8729680  47.1459770  35.5648041
   0.9925418  47.2539711  35.2050552   2.3470757  47.9256935  35.2758522
   2.2571769  15.7106991  12.8898439   1.4522617  15.5112820  13.3679409
   2.9302568  15.1877050  13.3253584  32.7192650  28.6878815  87.2329712
  32.0432396  28.2661800  86.7025146  32.7694435  28.1538429  88.0257645
  37.3296890  24.7760563  22.4038010  36.7380257  25.5265713  22.3500175
  36.8985405  24.0938091  21.8891335  25.9368534  68.7313690  74.1194992
  25.0016365  68.8252640  73.9384384  26.3323784  69.5221481  73.7528229
  50.4148331  56.9696770  88.7829208  50.2220421  56.4567108  87.9981079
  49.9801178  56.4955215  89.4917450  70.3595123   2.3987999  36.6431084
  69.6616364   1.7461101  36.5865517  70.9020081   2.2368782  35.8712845
  62.9779587  29.3914566  77.5689392  63.2223663  30.1119251  78.1498260
  63.1798439  28.6010456  78.0696640  59.1674614   8.7706642  18.7932529
  59.9209480   9.3325930  18.6123581  58.5624733   8.9415312  18.0714302
  37.9594688  64.5640793  56.2679520  38.3183937  65.3849182  55.9308510
  37.3605118  64.2656097  55.5835533   5.7838278  19.0425224  24.0572281
   5.5541582  19.9228306  24.3547897   6.6457901  18.8777676  24.4394684
   1.9238360  23.2849522  48.4626274   2.1296208  22.6001129  49.0989304
   1.0661340  23.0396137  48.1156616  54.5298920  52.4058113  17.9597969
  54.7297821  52.5386467  18.8864212  55.3701820  52.5172615  17.5151386
  65.9377365  31.6785564  44.2702827  66.7347870  32.1116371  44.5758476
  65.9589462  31.7814293  43.3188629   0.9708354  21.5031261  72.5058212
   1.5111581  22.0756550  73.0503387   1.5451552  20.7695274  72.2862320
  81.5914001  26.5122986   6.1557379  81.2981415  25.6580009   5.8388643
  81.1837845  26.6010303   7.0172553  79.4933014  40.3622665  85.4843216
  79.9499435  40.3518715  86.3255157  80.1415100  40.6958504  84.8640213
  13.0324392   9.2595987  78.5640945  12.6494160   8.4133615  78.7951965
  13.8396034   9.0383272  78.0995941  34.0197258  23.3206234   5.9865160
  33.9455185  22.9191208   5.1207676  33.5383072  24.1444511   5.9105320
  38.3219185  54.8086014  86.8919601  38.5939484  55.6797562  86.6033096
  37.3892555  54.7666817  86.6807404  80.7004852  26.7942162  88.5255585
  80.3087616  27.1944275  87.7492752  79.9953232  26.2714005  88.9071884
  18.5614319  50.5123672  42.5844536  19.0437775  50.9849586  43.2628593
  18.1554489  51.1997414  42.0563240  22.2618599  24.9507351  -0.1344938
  22.3648682  24.1838875   0.4290347  21.3150024  25.0759430  -0.1978648
  19.0761299  39.8885994  73.2787094  18.4876766  40.1411438  72.5672531
  19.7129288  39.3045197  72.8669281  67.9173126   1.5393994  57.9699287
  68.1372147   0.7856255  58.5173759  68.7638321   1.9166878  57.7305908
  73.3202362  12.1709013   1.3879170  73.2166443  12.6452522   2.2128367
  73.3656311  12.8564835   0.7214723  20.1005726  42.5596199  63.8811302
  19.7922077  42.6614609  64.7815628  20.1102562  43.4497070  63.5291634
  48.1283035  60.1529541  66.5770569  48.7022018  60.2927055  65.8238373
  48.3869934  60.8285255  67.2038879  39.3750763  52.1874352  58.0365601
  38.4283333  52.0704193  58.1153984  39.7172470  51.9608612  58.9013214
  79.7157364  47.5570412  18.7165070  80.3017960  48.1949768  19.1237087
  80.2788239  47.0581398  18.1246777  17.9559784  45.4274788  87.4501877
  18.5871105  45.0060425  86.8668365  18.1817894  46.3570328  87.4159546
  76.3696060  27.3585968  74.5255356  75.9461060  27.0431137  73.7271881
  75.6913376  27.2943516  75.1978912  54.1863976  66.3970947  72.5085526
  54.6235771  67.2301941  72.3323059  53.2526016  66.6046295  72.4740524
  62.5570984  28.0717068  74.8656998  62.7992935  28.3111572  75.7602615
  62.7152252  27.1288147  74.8189926  49.7958946  51.5901947  66.3468246
  50.5967102  52.0976715  66.2149734  49.2487869  51.8055305  65.5914917
  56.5297546  16.7920189  69.8320160  55.9696541  16.5696125  70.5756912
  57.1158066  17.4702015  70.1679382  42.0055542  11.6627684  38.1051216
  41.0883179  11.9317780  38.1555443  42.2967377  11.6325455  39.0164566
  38.7386475  67.9758301  74.6768417  39.4849815  68.3419495  74.2023087
  39.1083031  67.6693344  75.5048752  66.4291763  40.8789215  39.9205322
  66.6833115  40.1018562  40.4183502  66.0459518  41.4660797  40.5721550
  44.4266205  48.8887901  68.2594070  44.1846199  48.1216698  67.7405624
  44.2303925  48.6388588  69.1623230  27.2925434  50.3788643  20.3487473
  27.2599888  50.6262741  19.4246464  26.5714607  49.7585983  20.4561787
  24.5323963   6.5592856   5.0494399  24.8578453   7.2672677   4.4934936
  25.2733307   5.9587641   5.1308136  57.7360420  44.7243080  77.2839966
  57.9244576  44.9065170  78.2046127  58.1931877  45.4153023  76.8046494
  67.9782181   8.9213591  26.8073406  68.5001602   9.3650303  26.1387901
  68.6234741   8.4922867  27.3692780  55.0133896  71.5105820  18.9539890
  54.7505150  70.5912170  18.9103432  54.6437225  71.9031906  18.1631470
  44.0972023  65.9001923  87.0674820  43.9707794  66.7350311  87.5183640
  43.7020950  65.2512741  87.6497498  61.3653641  25.8364296  10.9235535
  61.3556938  24.9032993  11.1366396  61.6186066  25.8688316  10.0010300
  58.4032135  44.3211288  22.7886448  58.5566635  44.2939529  23.7330742
  59.2537231  44.1133728  22.4017277  34.2369766  51.8806419  75.3386383
  34.5344200  51.4486046  76.1393280  33.3005257  52.0227394  75.4768600
   6.4531264  53.4902763  37.1291313   6.8635039  53.8813744  36.3578568
   7.1848598  53.2813377  37.7097702  14.3328829  45.1795578   4.5986519
  14.3626471  44.2361450   4.4395318  14.9040318  45.5537338   3.9278221
   7.3440852   4.8709188  72.8377991   6.8444304   5.1810546  72.0825500
   7.9366002   4.2107058  72.4782486  76.9979935  47.2920609  44.6135597
  77.9283600  47.2304649  44.3971024  76.7170258  48.1222839  44.2288284
  83.4850311  19.6414509  59.6779747  83.3447113  20.2109280  58.9215088
  82.6938553  19.7459908  60.2065010  17.9333534  36.8568878   3.6412971
  17.3846912  37.6370621   3.5605040  18.2606277  36.7014351   2.7553184
  68.7210999  65.3821335  55.9674377  67.9560623  64.9669952  55.5691757
  68.3693619  66.1492615  56.4191284  69.0824432  52.8837013  40.6424789
  69.3510208  53.7221375  41.0181503  69.8852539  52.5207405  40.2683296
  74.6972427  54.4273415  11.5753384  75.6226349  54.4378738  11.8198290
  74.3713455  53.5907478  11.9071999  45.5740089  37.7330513  80.4029694
  45.2609978  37.5965881  81.2971878  46.3470840  38.2887344  80.5019913
  43.2927895  22.1219444  12.1577911  43.5350723  22.8772430  12.6935682
  43.3802490  21.3725243  12.7468166  20.2999725  10.7041569  66.7603607
  19.4501362  11.1214619  66.6194153  20.8277454  10.9759817  66.0094910
  62.5797806  66.1620102  27.1840229  62.6170197  67.1039047  27.3503971
  62.2896309  66.0907135  26.2746487  61.2031708  56.8505402  64.4702072
  61.4195290  56.1876526  65.1259537  60.2467384  56.8464928  64.4320679
  49.1955528  58.0808868  14.6693001  49.6368752  58.2620277  15.4991522
  48.6404305  57.3231964  14.8536406  25.1200600   6.7496719  35.9849815
  24.8419685   5.9424343  35.5522423  25.7830601   6.4674902  36.6150894
  73.3429947  20.6661434  49.2802048  73.1349411  21.3801441  48.6775894
  74.2605286  20.8086433  49.5127068  22.5993099  47.7768707  75.9413300
  22.5104237  47.0115929  75.3732834  22.6100006  47.4169006  76.8282013
  11.0102444  71.4024506  75.1450195  11.9609852  71.3487015  75.2421570
  10.6664906  70.8365936  75.8363037  62.7302971  15.1601934  82.0777740
  63.4142303  15.4882717  82.6615829  62.7096100  14.2169590  82.2393723
  53.9964294  19.7970486   5.5193057  54.7283821  19.3324566   5.9250550
  53.8668098  19.3539791   4.6807837  78.8418045  29.2431240  12.0166330
  79.0196762  28.5171928  12.6146431  77.9023285  29.4028912  12.1066475
  14.4524612  47.5353050  33.6248360  14.9169531  46.8789406  34.1441307
  13.6757727  47.0789337  33.3012428  75.4694748  30.7743397  25.2236576
  75.1389465  30.9338818  26.1077003  76.0820770  31.4922543  25.0638046
  17.6089115  18.9970303  69.8757553  17.5895481  19.8271618  69.3995895
  16.7440224  18.6150455  69.7264633   4.7820687  21.0725460  53.3961067
   4.8275585  21.9565754  53.7603226   3.9196241  20.7499008  53.6574898
  51.7854195  14.2579470  28.2991066  51.5522423  13.8063641  29.1102371
  52.2295456  13.5924625  27.7736397  68.0064011  29.7636242  85.4814301
  67.7911453  30.0771389  84.6030197  68.4538116  30.5012760  85.8960648
   4.1011477  16.1578331  20.0800343   4.6923323  16.5788002  19.4559193
   4.5450401  16.2410793  20.9239902  56.9516144  39.7333946  75.4963913
  56.8578300  40.6272469  75.8257217  57.3148422  39.2432518  76.2339935
  79.0511932  30.1007271  82.4113770  79.0905991  29.5661430  83.2044144
  79.2461243  30.9886341  82.7111359  13.5459776  58.6566505  78.2897873
  13.1915140  59.1912003  79.0003128  13.2406521  59.0869102  77.4911118
  37.7212677  61.0917511  36.6828003  38.5413780  60.7558403  36.3211174
  37.2024689  61.3336716  35.9156227   2.6242623   9.1883526  23.3302860
   2.2004666   9.0070248  24.1691837   3.0763912  10.0211496  23.4654160
  70.0086823  24.9019241  28.2440414  69.1609039  24.4665108  28.1550331
  70.1242447  25.3722210  27.4183922  57.6499596  25.0594730  11.6141663
  58.3212090  25.3102684  12.2487974  56.8987083  24.8028145  12.1489410
  23.3505001  52.7433586  66.5758209  23.6513309  53.6404114  66.7208405
  24.1283512  52.2762222  66.2709274  10.7735415  13.4622097  25.3743668
   9.9119425  13.1188917  25.1376991  10.8199072  13.3584480  26.3247948
  62.1355247  71.2429886  16.4331017  61.3048935  71.5435410  16.8018150
  62.3392944  71.8815918  15.7498026  32.0824471  10.9025278  28.0458298
  32.4359932  11.7907124  28.0944595  32.2832260  10.6132174  27.1557617
  74.2039413  51.8264427  84.2375107  73.2962875  51.8634300  84.5392227
  74.1398544  51.8443871  83.2826309   1.7797794  66.7841263   5.2634559
   2.0062652  66.6475143   4.3435259   1.1634094  66.0802002   5.4654613
   2.8639994  13.0966234  82.4674377   3.5596030  12.5341101  82.1269302
   3.3114665  13.6959162  83.0648117  23.3114872  48.8901901  37.2679024
  22.9589291  49.6221237  36.7617264  22.7242775  48.1596909  37.0735245
  59.9578743  40.2784843  85.2441330  60.3129539  41.1460342  85.0504761
  59.0087929  40.3906593  85.1903076  59.8996124  53.7733307  64.7158356
  59.7373734  52.8303261  64.7412567  60.7258377  53.8614922  64.2406387
  71.2207108  57.5491142   3.7324426  71.2468796  56.9050102   4.4400244
  70.3252258  57.8868675   3.7490134  55.3297195  24.5744667  13.0585175
  54.5330658  24.8583279  13.5068436  55.0159950  24.0508060  12.3212328
  72.4549637  50.2536583  12.9990435  72.0119095  50.6108627  13.7686777
  72.8690796  49.4496918  13.3126936  21.6425743  54.7249146  47.5351791
  21.1073933  55.3980370  47.1147995  21.0784550  54.3624001  48.2182503
  85.2049255  67.4294281  49.4088745  85.6801834  68.2556763  49.4964981
  84.4810562  67.5023575  50.0309105  78.6053543  30.1043167  15.3216982
  79.3185425  30.5812454  14.8972816  79.0365829  29.5775986  15.9946318
  36.9641838  18.2901821  31.6994381  36.7216835  17.4822254  32.1518021
  37.6241341  18.0186768  31.0614853  13.3447075  39.3717918  79.3756180
  12.9845076  40.2582054  79.3480988  14.2843552  39.4990463  79.5063858
  72.9619598  32.6575813  63.8677864  72.0237427  32.8335228  63.7968178
  73.1211548  32.5830040  64.8087006  65.5008469   7.5031333  80.1936798
  65.1391983   6.6421423  79.9835968  66.4423828   7.3531475  80.2788544
  78.5097961  61.5937843  57.7592583  78.9802399  62.4132919  57.6065445
  78.6420364  61.0886230  56.9570427  66.6480942  26.1518726  70.5031815
  66.8406830  26.3026276  69.5777588  67.2742844  25.4795589  70.7717133
  83.6753235  70.7272797  36.5876999  84.1541214  70.6921158  35.7595978
  84.3233032  71.0242233  37.2265892  54.0731163   3.6750288  69.0552368
  53.9091682   4.0984783  68.2125931  54.2352371   4.3992820  69.6597214
  33.0286179   4.2707582   9.5979862  32.5983391   5.1227298   9.5256062
  33.5923920   4.2208085   8.8260431  85.8530807  13.4777117  52.7837334
  85.6396332  14.2851000  53.2514915  86.4168243  12.9933500  53.3869057
  49.4449425  25.6062565  85.3627548  49.6372643  25.6898232  84.4288025
  49.8140182  26.3975430  85.7550278  71.9358292  26.6171875   9.4101505
  71.2986374  26.3286686   8.7567167  71.4786682  27.2954578   9.9073229
  55.1372681  18.8676052  84.3904724  54.2414055  19.0883770  84.1356735
  55.0573311  18.0286903  84.8444138  45.1960793  63.9582291   2.7552495
  44.7839279  64.4860687   3.4391749  44.4627647  63.5828667   2.2678206
  58.3333855  38.5868492  13.8386917  59.0617943  38.8984222  13.3014994
  58.4299698  37.6345482  13.8440857  25.7681065  43.1464081  74.0099182
  25.0752888  43.3146019  74.6486282  25.3198147  42.7281685  73.2748413
  68.1917801  11.9001284  51.0282211  67.9132538  12.0870323  51.9247246
  69.0300140  12.3534737  50.9384041  25.8481979  45.8431702  35.2443771
  25.2771397  46.4288292  35.7414970  25.5639648  44.9635887  35.4929314
  63.8560410  70.9767990  40.2557335  64.0685425  71.5971146  39.5583916
  64.6596756  70.4719315  40.3802948  22.7857189  62.7489929  32.2846222
  23.6877537  62.6053085  32.5708427  22.4386635  61.8694191  32.1358414
  62.6420174  29.3056889  24.5532913  62.6169815  29.3540306  25.5089417
  62.1021538  28.5452251  24.3377151  79.8824310  24.3824100  57.7031403
  80.1386948  25.2109432  58.1082230  80.6917343  24.0416622  57.3221436
  19.4895210  25.8377781  14.0309124  19.7567291  26.7338600  14.2355270
  18.5470619  25.8985691  13.8750010  43.4501991  33.2542534  81.1713943
  43.1338730  32.3857498  80.9226532  43.3059196  33.7934799  80.3938065
  70.4949265   5.2727365  29.7027206  71.3881683   5.4284973  30.0094547
  69.9898605   5.1233287  30.5019779   0.0663114  71.8475494  61.9806480
  -0.0619530  71.4881744  61.1027946   0.8837047  71.4525528  62.2840843
  53.4349251  37.5272903  69.3403015  53.6404305  38.3864250  69.7089310
  53.3933144  36.9449272  70.0988159   7.0751591  29.3878803   6.0800138
   6.5719800  29.3953991   6.8942533   7.7873893  28.7698421   6.2442966
  30.7247906  15.3319283  18.5316753  31.5694714  15.7436342  18.7140064
  30.5527515  14.7877264  19.3001003  55.9523621  49.3883095  44.9552879
  56.2989960  50.0724564  45.5280190  56.5416870  49.3860550  44.2010155
   0.0555425  34.6887703  34.7085724  -0.0120105  35.6302185  34.5493927
   0.9429944  34.4619446  34.4307022  84.1932831  51.2707939   9.2733278
  84.6200333  51.3825188  10.1228170  84.0635147  52.1628151   8.9513178
  63.0631828  55.3736153  36.7984085  63.0058174  55.9072113  36.0058060
  62.4765091  54.6355362  36.6332283   9.3292484  53.4405212  52.9115295
   9.9097586  52.7381439  53.2046318   8.6125174  53.4393082  53.5459824
  16.7328815  54.6063881  15.2927494  16.8086777  53.8183250  15.8307524
  15.9898958  54.4315186  14.7151470   8.6370020  59.7439575  49.3275642
   9.3199253  59.1937943  49.7111893   7.8329768  59.2350502  49.4314232
  31.0318871  45.4117661  35.1682167  30.6579418  46.2227592  35.5127220
  30.2795143  44.9252548  34.8313599  64.9661331   1.1238149  74.9122086
  65.2637100   0.2782231  74.5765686  64.3225403   1.4233254  74.2700958
  46.9267540   4.3686018  71.2874298  47.0138130   3.7742238  70.5421982
  47.8178711   4.4629154  71.6239471  64.7285995  43.0353279  47.3050232
  64.5507126  43.9609871  47.4715614  65.5382233  43.0351143  46.7943954
  68.5081863  27.5169563  40.9990158  69.1815872  26.8642330  40.8074150
  68.6186905  28.1817417  40.3192482  85.4677811   3.8738520  32.9407120
  86.3053284   4.3293085  32.8552284  85.6657486   3.1074665  33.4789429
  76.8858032   5.7688351  83.5286636  75.9785767   5.9077449  83.2568665
  77.4064331   6.2247519  82.8673630  65.6846771  68.2767181  50.1983261
  66.5320892  67.8817139  49.9931374  65.5674973  68.1190643  51.1351547
  80.4390793  12.9522915  56.0849037  81.2449265  12.7682333  55.6022377
  80.5674667  13.8324194  56.4386292  78.8002396   4.8388920  30.4153137
  78.0696564   5.4000106  30.6753807  79.4584351   4.9710565  31.0976181
  49.0556602  37.5199013  10.2574625  49.9818420  37.3516273  10.0839634
  48.7726250  36.7761078  10.7893353  29.5607910  64.9375153  83.0158386
  28.6388187  64.7070847  83.1302795  29.7299595  64.7931900  82.0848236
  60.7298431  40.0527802   5.9740391  60.4078140  39.1781197   6.1919827
  61.6103630  39.9047470   5.6290717  55.1445274  63.7855072  82.6457977
  54.9700089  63.1812325  81.9242554  54.3397255  63.7786331  83.1639481
  49.1333580  60.9830437  71.0169144  48.2776070  60.8768425  71.4324188
  49.7625351  60.7787476  71.7087479  36.5173225  62.4272385  72.2358170
  37.3823586  62.0567703  72.4110260  36.2565041  62.8290062  73.0645447
  67.0631027  10.1625471  61.4627953  66.3142395   9.8897877  61.9929237
  67.8083954   9.6988392  61.8445549  71.4822388  61.1324501  85.0856857
  71.8064499  60.4075432  84.5512390  70.7358246  60.7655640  85.5594864
  26.3647251  49.1179237  33.8486938  27.2477665  48.8867836  34.1368675
  26.2301331  48.6033783  33.0528526  65.2079620  48.1444588   5.0012250
  64.9739990  48.6876373   4.2485991  65.9783020  48.5722580   5.3751187
  56.4565620   6.1916504  66.9476776  56.3109131   5.2456188  66.9411240
  56.4337120   6.4439049  66.0245972   2.6576645   6.6020298  22.7217674
   2.9549520   6.5212879  21.8154926   2.5725393   7.5449471  22.8628082
  19.4831181  21.2465458  46.6407928  19.2328186  20.4500866  47.1090202
  19.0837364  21.1515636  45.7760925  14.4738579  13.3027430  80.6030731
  14.6004181  14.1484823  80.1730270  14.0521936  12.7571735  79.9391556
  22.3238449   7.9897695  37.3515282  22.6087685   7.5685701  36.5405769
  21.9648190   8.8315372  37.0708885  48.3854408  26.0718117  23.2227440
  49.1513405  26.2824802  22.6886597  48.1958008  26.8802204  23.6989212
  36.7544212  60.4463921  44.9478302  37.5656929  60.4782829  45.4548340
  36.2698517  61.2250023  45.2220459  72.4132309  35.9601173  81.8085632
  71.7200775  36.5538025  81.5199280  72.3064270  35.1827393  81.2603836
  14.9929972  67.6138306  47.3485909  14.1892748  67.9082794  47.7770348
  14.7289820  66.8409805  46.8493576  70.6072693  30.3030567  52.6068497
  70.0903854  30.4650517  51.8176575  71.5137787  30.2853985  52.3000031
  81.7927933   9.0518093  72.2844849  82.2478867   9.8676300  72.4932022
  81.8651810   8.9737787  71.3332214  22.2535057  57.4938278   0.8448119
  23.0881901  57.9138832   1.0523782  22.4981823  56.6732597   0.4169862
  84.5121155  46.6204643  76.9875793  85.4328613  46.8820953  76.9855804
  84.0320816  47.4347076  77.1385956  18.0462856  26.1000690  70.5409012
  18.5369358  25.5710583  71.1698990  17.4357224  25.4846344  70.1350861
  13.6833906  35.3191795  30.7420063  13.9117794  35.9076195  31.4615974
  12.8294983  35.6294937  30.4406681  76.2869415  40.1193123  85.2625351
  77.2019272  40.3119125  85.0577164  75.9489441  40.9328384  85.6369324
  79.0812531  63.6858215  37.7971306  79.4969177  64.0372314  38.5845070
  78.7927856  64.4595032  37.3129463  20.1881847  51.3832779  74.1476135
  19.9638424  51.6942253  73.2705612  21.0465012  50.9724846  74.0438156
   9.7315493  15.1102724  76.1642227   9.9534178  14.4456072  76.8163147
   8.9976311  15.5886278  76.5499344   8.6344957  65.5626068  25.2050896
   9.4102077  65.0679321  24.9408970   8.9808025  66.3033981  25.7026196
   2.4826226  56.6044807  75.4712677   2.3827982  55.9659271  76.1773224
   3.1732168  56.2419891  74.9163666  86.4305191  26.0131092  53.9211197
  87.0596466  25.4166698  53.5153046  86.1786041  25.5776844  54.7354774
  15.0596333   1.9626287  86.4484711  15.4157305   2.6535664  87.0070724
  15.5644627   1.1831447  86.6803818   9.1718702  22.3277950  18.0624504
   9.0292807  22.4648304  18.9989967   8.6498499  21.5537148  17.8514404
  47.6981163  42.9039078  78.7223129  48.1352806  43.5915833  78.2200928
  47.1320038  42.4661522  78.0866089  57.2171059   1.1715821  18.2675114
  56.4866753   0.7221739  18.6926384  57.6315842   1.6725694  18.9699707
  23.3706551  44.6879539  41.3751984  24.2054005  44.6783333  41.8435364
  23.5956230  44.4361305  40.4795380  26.0315742  65.6631927  15.6971025
  26.3437328  65.8981476  14.8232698  25.2673607  66.2223816  15.8368206
  50.6676941  64.7238922  75.7488937  51.2541428  65.2882690  76.2526550
  49.7886086  65.0164337  75.9894180  21.1198177  57.8679123  14.3003941
  20.9032841  57.9131317  15.2316837  21.8265133  58.5036049  14.1876650
  76.8774185  21.7313690  74.3599854  76.5767746  22.6223392  74.1810455
  77.8003464  21.8322601  74.5929031  75.4764404  37.7266808   1.7341145
  75.8798447  38.0124130   0.9144474  76.1351318  37.9133797   2.4030733
  80.1985092  15.9342756  36.0645027  80.3134918  16.2657452  35.1739197
  80.5834732  16.6096401  36.6229973  77.3040314  70.5609131  16.8472652
  76.9383392  69.6773682  16.8902988  76.5602341  71.1368561  17.0241680
  27.8150940  61.3260117  24.6617451  27.1983795  62.0535469  24.5805874
  28.6768303  61.7299461  24.5593567  76.3768692  27.5939178  15.0125599
  76.4470444  28.5175457  14.7712774  77.2835388  27.2987938  15.0967016
  83.9315186  56.1542549  51.7014008  84.4927750  56.7522736  52.1949577
  83.4879837  55.6341400  52.3714676  66.7334213  52.5620918   6.7493892
  66.8222122  52.8875046   5.8535919  67.0953217  53.2604446   7.2948794
  52.2044830  37.2949982  25.5445614  53.0648727  36.9524727  25.3024139
  51.6696701  37.1757736  24.7597122  16.1576633  22.8950481  64.9532700
  16.9543209  22.8699474  65.4833069  15.6739035  22.1102200  65.2106705
  84.2113419  43.7154617   3.4992356  83.8318710  44.3279228   2.8690579
  83.4689407  43.1924629   3.8017962  45.6911888  55.6254692  10.7228985
  44.9600372  56.2074547  10.5156727  45.5446548  54.8530388  10.1769009
  28.3109150  32.1334953   1.0582688  29.0020943  31.4965763   0.8770511
  28.7034607  32.7410736   1.6851568   0.2469360  20.0398216  76.9707794
  -0.0410112  19.6116924  76.1645432   0.1223748  20.9740314  76.8035431
  18.4161377  69.4764252  27.5858707  19.0018177  69.5133972  28.3420753
  18.9982090  69.5409622  26.8287296   2.5395720   6.8955207  68.2579269
   1.5895889   6.8492303  68.3657303   2.7020574   7.7855082  67.9452744
  59.2073479  18.2292137  85.4469528  58.9498787  17.5744228  84.7979660
  58.8604736  17.8956356  86.2743835   8.7103777  56.7792358  13.1177921
   8.4576578  56.7943459  12.1946802   8.4135313  55.9257240  13.4334450
  74.9896774  65.5497437  50.0101929  74.3536682  66.2550125  50.1299324
  75.2881088  65.3434219  50.8959694  74.4683533  22.8189754  54.4333191
  73.5891800  23.0245533  54.7511749  74.3423538  22.5878868  53.5130157
   4.5153890  46.4453354  35.1261406   3.5872667  46.6716766  35.1860619
   4.8348231  46.9417801  34.3726540  61.4343262  55.3016586  31.9039593
  60.7644119  55.9467926  32.1303482  61.8488503  55.6532288  31.1160507
  38.4036331  26.5665092  85.3634491  37.5905609  27.0706654  85.3945923
  38.2428055  25.8932228  84.7023544  16.7537575  28.6766548  66.4847870
  15.9641237  29.2012653  66.3525162  16.7606716  28.4865837  67.4229050
  49.7689323  36.9011536  14.3498888  50.5329742  36.3359718  14.2357054
  49.2162018  36.7128220  13.5914326  82.8950272  27.3625641  64.1392441
  82.1043167  26.8608284  63.9411049  82.6667633  27.8722286  64.9166565
  41.3389282  15.1600847  25.8572464  41.5635757  15.4412098  24.9702663
  41.4337349  14.2077875  25.8379040  82.4728241  68.0738373  46.1024094
  81.7286377  67.5354843  46.3718300  82.4361954  68.8381348  46.6775093
  46.6016121  20.6687584  18.5430298  47.4477043  20.6206379  18.9880466
  45.9599762  20.7094288  19.2521725  62.1204147  30.4965935  17.0208702
  61.4798393  29.9019012  16.6306934  62.0783920  31.2836895  16.4777794
   7.9079466   4.5978069  82.6379776   7.9828868   5.5180922  82.8903503
   7.8478394   4.1258144  83.4685440  21.3375816  60.4270096   2.6207950
  21.8241558  60.7721329   1.8722185  21.9212189  59.7726479   3.0047336
  28.9917927   3.4315078  43.0824699  28.1925678   3.7203772  42.6419868
  29.4572430   2.9184072  42.4219284  21.4347000  45.5310326  47.2127380
  22.2622108  45.4185066  47.6804962  21.4864082  46.4125023  46.8431854
  67.7562256  16.3481865  30.9186268  67.3256760  16.3994961  31.7719898
  68.5223312  16.9159088  31.0023594  60.3254471   9.5015879  77.4009171
  60.9683380   9.6834974  76.7154694  60.7027130   9.8872566  78.1915894
   7.0535736  56.2683144  61.2263832   6.1409974  56.0485916  61.4138870
   7.5408921  55.4738312  61.4444427  10.4645271  13.4501905  78.5834961
   9.7950811  13.9102688  79.0898590  11.2579889  13.9713278  78.7062454
  26.2133484  37.9379959  79.7993698  26.4728470  37.4966774  80.6081543
  25.2673588  37.8022804  79.7453690  41.6968346  65.3966675  28.6480274
  41.5216751  66.1152878  29.2555866  42.1164703  64.7252045  29.1858692
  77.4716949  16.9948368  87.0413818  77.2420349  17.0743237  86.1155472
  77.5221405  16.0514736  87.1954956  54.1674500  36.0045700  12.2351160
  54.7339668  35.2793961  12.4985781  54.7586174  36.7529945  12.1537762
  37.1252136  37.2212868  18.3209953  37.2117043  36.3955765  18.7973957
  36.2169762  37.4869385  18.4650898  37.4474983   6.6970696  19.0507374
  37.6625977   7.6173320  19.2026615  38.2017212   6.2155457  19.3906116
   9.8715649   7.0752206  32.1861763   9.7352390   8.0224705  32.1670647
   9.3019457   6.7372723  31.4951229  17.9045277  36.9944878  33.9372902
  17.9881783  36.2031326  33.4053230  18.7959671  37.1799545  34.2325363
  37.5823822  54.5868568  70.4854355  38.2924347  55.2259293  70.4250641
  37.3105965  54.4444389  69.5787430  21.8316956  15.3092613  85.6298828
  21.1618652  14.6256428  85.6149521  22.6219006  14.8636837  85.9352875
  32.9632225  48.5540733  74.6348343  32.6737518  49.1839867  73.9748001
  32.6876373  48.9364319  75.4679565  10.9934511  43.7321091  35.3292046
  10.4360981  43.1232414  34.8445740  10.6486130  44.5979691  35.1110191
  25.7975044  65.4780273  33.5327263  26.5735626  65.1945648  34.0160637
  25.9733620  66.3928070  33.3125267  18.8378315  25.0706520  74.3820801
  19.2333870  24.2983608  74.7862244  19.2217083  25.1056271  73.5059204
  60.4153824  16.7672882  76.2654343  59.7386589  17.0119324  76.8966370
  60.6896210  17.5969486  75.8746796  29.8444080  10.8169231  23.7720222
  29.5457058  11.6591730  24.1149845  29.1961403  10.5856876  23.1068096
  73.2694550  57.1213341  14.6552715  73.3109512  57.8355904  15.2911587
  72.8147125  57.4976463  13.9017239  71.4980621  30.5105267  55.8245697
  71.0907822  30.1555977  55.0343895  70.7657242  30.6732807  56.4190674
  57.5160446   1.8290199  75.1770935  58.1325264   2.4207046  75.6084747
  56.6779099   2.0023057  75.6057358  66.8778152  56.8511200   4.1316175
  65.9862900  57.1500435   3.9525621  66.7641373  56.0086250   4.5715156
  14.8121977  21.3015137  39.8624229  15.0251493  20.6520061  39.1923294
  14.0564137  21.7709484  39.5093575  59.6323776  71.6808777  17.6837234
  59.8920097  71.2175903  18.4800835  58.7623749  72.0277252  17.8812637
  79.2683258  13.2356157   6.8832583  78.8367081  12.4239454   6.6165509
  79.9947586  12.9497719   7.4371729  34.9476662  59.4423599  48.4280853
  35.3076134  60.3226891  48.3199425  35.3711929  59.1057663  49.2177467
  76.3210526  34.3647957  41.5219078  76.1269379  35.2060051  41.9353294
  75.6240311  33.7827034  41.8244972  85.7231445   9.2309675  11.3817158
  86.6797256   9.2652178  11.3816223  85.5011826   8.7342567  10.5941601
  10.4554682   3.8953857  24.2122192  10.3725796   3.6754858  23.2843151
  10.3231840   4.8427777  24.2465916  24.8430576  19.9542675  15.7712488
  24.7350483  19.0424404  15.5008116  25.1789494  20.3970490  14.9919214
   8.2168627  12.6200037  73.1616898   7.4812522  12.2033634  73.6105957
   8.7222052  11.8908234  72.8022995   1.3273801  44.0212555  69.1607971
   1.0618426  43.4856644  68.4132233   2.2204909  44.2961006  68.9533234
  12.1869974  48.9299164  19.3959293  12.2864237  47.9790154  19.3498039
  13.0634918  49.2524948  19.6055317  15.2370949  63.8690605  56.7146339
  15.7503157  64.1332626  55.9510651  15.5295010  64.4538345  57.4137535
  15.6017284  60.4241829  70.4971619  16.0521774  60.2640495  71.3264236
  14.7486925  60.0029755  70.6027222  10.1900835  10.4350233  78.1247635
  10.0737791  11.3845310  78.1585236  11.1390686  10.3099957  78.1196213
   8.0697412  56.5542564  55.6231422   7.9188819  55.6095428  55.5917130
   9.0010700  56.6414566  55.8262596  67.2301483  53.5944328  15.4896708
  66.4423599  53.4321442  14.9707518  67.9219055  53.1184692  15.0301456
  45.2518768   1.4765410  33.2027969  46.0747604   1.5745449  32.7237511
  45.2755432   2.1686347  33.8636131  74.1441498  17.4897251  41.8776360
  74.5576324  16.6325970  41.7747078  73.2777710  17.2962608  42.2356720
  60.4866333  67.9454803  11.0292597  61.3835907  67.8829346  10.7009563
  60.5668602  68.4208145  11.8562098  14.8287096  43.8140030  20.9709816
  14.5566463  43.6972008  20.0607224  14.2601633  43.2260094  21.4682236
  46.4304581  50.7726746  52.2705078  46.2065735  50.7954979  51.3401413
  47.3796310  50.6498718  52.2855034  69.1462021  36.8775253  73.1471405
  69.0606613  36.7355461  72.2043991  68.2546768  37.0605698  73.4436493
  66.7830200   5.9083314  47.4660110  66.9610138   5.6642551  46.5577278
  67.6140671   6.2581763  47.7872658  78.3031082  32.3862343  83.6545639
  77.6005630  32.4907417  84.2962341  78.8615646  33.1528053  83.7838593
  12.0134840   2.5471811  16.7704048  12.2210846   2.3728619  15.8523912
  11.8406029   1.6834779  17.1450520  77.4517365  42.9664955  66.3764114
  78.1013107  43.1209488  67.0622940  77.9679184  42.7213402  65.6085052
  28.7574253  69.4065704  50.0093079  28.3541393  69.5303345  50.8685379
  28.0573406  69.6004028  49.3859787  24.5182724  48.3478012  39.7048340
  25.0994015  49.1002579  39.8158684  24.1063042  48.4871101  38.8521271
  29.4813137  66.7357559   1.9959841  29.4350510  65.9340973   2.5169761
  28.7094975  67.2371521   2.2589140  51.0683899   1.4250823  85.4633331
  51.5734978   2.2316155  85.3603668  50.2875862   1.6917692  85.9485703
  69.7136993  63.8124046  71.3851852  69.3905411  63.0008240  70.9938583
  70.3206329  63.5244446  72.0670471  23.2383366  66.3457031  76.1955948
  22.3328648  66.4880524  75.9197540  23.5718021  67.2227783  76.3847275
   5.7474685  48.7626991  20.4585133   4.9866052  48.2505493  20.1846142
   6.4764524  48.3942413  19.9594631  71.8551025  49.9965134  67.4895859
  72.4700241  50.7159843  67.6326599  72.3889694  49.2961884  67.1144028
  53.4687805   2.6576400   5.2543039  53.1696701   1.8378444   4.8609872
  53.2938461   3.3212593   4.5870423  59.5566177  17.5832672   1.8316263
  59.9421120  18.4400711   1.6485560  59.9600105  17.3102608   2.6556263
  26.2093296  62.0655518  79.4281693  26.6895771  62.5640221  78.7670135
  25.4038525  61.7961540  78.9867325  40.6734695   4.3858151  66.9865875
  40.4809418   5.0646853  66.3398285  41.4117508   4.7338672  67.4866257
  82.4541245  21.5254211  61.9624825  82.0210495  22.1944218  62.4926872
  83.3774719  21.7776909  61.9659729  82.2094498  61.2758980   4.4996362
  81.8188858  61.9868126   5.0078592  82.1274567  60.5060043   5.0624642
  25.4261513  48.7664108  14.5098772  25.6566315  49.6944962  14.5519123
  24.8396492  48.6991653  13.7564011  81.4463882   2.1874161  81.2881241
  81.3632355   2.4751480  82.1972580  81.1941757   2.9522734  80.7708054
  60.7845268  34.5042572  32.8795128  61.1216583  33.7801018  32.3520889
  61.5060730  34.7288818  33.4670029  48.4230042  49.5205917  44.0309372
  49.0708504  49.1312599  43.4436150  47.7915840  49.9402428  43.4466133
  73.0812378   6.0743527  58.1515923  73.0432281   6.3983474  59.0514870
  73.1508255   5.1239705  58.2419357  41.0023117   5.3036022  10.4188023
  41.2566490   4.9115052  11.2541485  40.4407158   4.6468515  10.0070744
  84.7226257  24.3898067  43.1735115  85.0425262  24.4816799  44.0709839
  84.0717773  25.0852680  43.0788612  56.2046051  41.0039024  71.6835098
  56.5460243  41.4306183  70.8976517  56.9521027  40.5231133  72.0389328
  80.1576004  54.2678070  87.2997589  80.9263306  54.0962944  87.8437042
  79.6531906  54.9134254  87.7947083  15.0869875  56.5609856  42.6498947
  15.3605042  55.6734810  42.4180412  15.3022470  56.6429329  43.5789719
  85.4125824  62.0761795  49.8446579  84.9251938  61.3928223  49.3845406
  85.7723312  62.6245384  49.1474419  74.1778488  48.5118065  21.2587128
  75.0819778  48.8218384  21.2070713  74.2470932  47.6322517  21.6299553
  30.1508121  62.5822639  75.9960403  29.9713421  61.9847794  75.2700653
  30.7966576  62.1213837  76.5314865  86.3522263  48.9208946   3.1824532
  86.9854965  49.5633850   3.5024638  86.4883804  48.1532555   3.7378125
  42.0396004   1.5941997   0.9809284  42.6379662   2.3347309   0.8818956
  42.6078796   0.8240178   0.9703598  40.7730179   5.7959561   1.3396173
  41.3500786   5.5284023   2.0549104  40.6502609   5.0009899   0.8207805
  29.5642738  56.2399635  64.4654083  30.1679096  56.1158600  63.7329750
  29.8451405  57.0602798  64.8709030  12.6554308  49.7191467  28.6287746
  12.3630428  48.8344269  28.4096584  12.6097717  50.1982880  27.8013878
  42.6975136  33.6820831  86.9300079  42.8004227  34.6087341  87.1467133
  42.4177055  33.2741165  87.7494659  73.1216888  47.0343056  86.0662766
  73.6394806  47.8392906  86.0774765  72.5262909  47.1428032  85.3246765
  21.3259640  39.9928818   3.7820215  21.0758953  40.7011909   3.1887288
  21.0316944  39.1959229   3.3410120  13.9668369  68.0791550   6.2508364
  13.4781961  68.4085236   7.0051451  13.3053751  67.6568069   5.7028217
  28.8551350  60.3202095  41.3885460  28.9579887  59.3692894  41.4259758
  29.5056400  60.6064262  40.7473297  10.0092201  38.1659470  68.3849106
   9.3483076  38.5981102  67.8439331  10.0966911  37.2922287  68.0038681
  24.5400906  67.6881561  65.4904404  24.4710426  67.8423920  64.5482712
  24.5078449  68.5622482  65.8792267  16.1959419   3.1843495  21.3277416
  15.3768444   2.8955393  20.9253750  16.7868023   3.3313930  20.5891666
  18.7352257   3.5630534  40.3462143  19.2734585   4.3426690  40.4830933
  19.2437859   3.0242989  39.7401237  49.2277489  52.7733269  22.3711548
  49.6182785  52.3929939  21.5843506  49.9043198  53.3554916  22.7169399
  72.3352203  21.5077877  82.3360443  71.4387970  21.4341183  82.0085754
  72.4747620  22.4487629  82.4424591  62.6215477  61.3423195  35.4330978
  63.4061012  61.8291092  35.1806145  62.3043213  60.9585991  34.6155663
  56.1014328  39.1255455  79.7580566  55.3257790  38.8635559  79.2621155
  55.7636223  39.6998558  80.4452820  74.7706833  63.5078239  47.6987572
  74.7107620  63.9755592  48.5317421  75.4755554  62.8737259  47.8302841
  64.3742905  61.2786560   7.8609657  64.8095474  60.4276505   7.8102632
  63.7656174  61.1930275   8.5947351  81.8201523  66.0942764  53.6069603
  82.6722107  65.9621964  54.0226326  81.2957458  66.5402069  54.2720718
  31.7845268   3.9846570  39.9206161  31.2164211   4.5612688  39.4097290
  31.1814480   3.4545686  40.4417076  39.5350876  60.8819809  63.0221405
  38.6515503  61.2491951  63.0495071  39.9792519  61.3776131  62.3341713
  70.5902481  45.4372749  40.0853996  70.8052368  46.2345505  39.6012917
  70.7160492  45.6737862  41.0043488   0.5884308  67.2040787  16.1146202
   0.1865766  67.9578476  16.5465717  -0.1509239  66.7031708  15.7701302
  11.9169283  44.7294769  27.3037109  12.4667234  43.9974747  27.0241966
  12.1195889  44.8401794  28.2326393  85.0113144  29.7402210  70.2801285
  85.3847885  29.7553158  71.1613312  85.6839371  29.3227501  69.7420425
  21.5709438   0.3811694  80.5020599  20.9565411  -0.3516752  80.4610825
  21.6893139   0.5424308  81.4381256  69.8540878  48.4686317  75.4937286
  69.2543335  47.9351387  76.0151825  70.6166763  47.9066887  75.3562546
   0.7743411  65.0431671  87.6431732   0.2282027  65.1650772  86.8665695
   0.2178985  65.3162689  88.3725662  11.2429314   7.0564742  37.7609482
  11.5349102   7.4099789  36.9207039  11.8230801   6.3124280  37.9223633
  51.6080971  27.7230759   2.4095972  52.3585548  27.9619083   2.9536598
  50.8485107  27.8605804   2.9755936  22.8012009  53.6288681  45.3954430
  22.4068718  53.8294792  46.2442627  22.9824333  52.6896744  45.4315109
  10.6341324  19.0908661  59.9536285  10.8113756  18.7648029  59.0713005
  11.4989004  19.1802311  60.3541565  15.8522892  33.9488106  84.7523270
  16.0348873  33.7382202  85.6680450  16.6914406  34.2498665  84.4038696
  76.2429657  51.5981483  60.3418350  76.4746323  51.0281715  61.0751114
  77.0730057  51.9917641  60.0728989  86.4294128  38.8011169  61.0666580
  86.3297729  38.6786461  60.1225700  87.0643692  38.1345787  61.3289490
   9.0187492  68.5457840  80.0463104   9.3796511  69.4315338  80.0840302
   8.0714130  68.6749039  80.0003357  43.8591766  46.2557793  26.7493610
  44.0117455  45.8798409  25.8823967  44.3261719  45.6734009  27.3485146
  21.4092770   7.4782090  77.9786072  20.5211849   7.3793092  77.6354675
  21.9756451   7.1804390  77.2667084  25.6544132  68.5290756   3.3637347
  25.6963425  67.7738266   2.7771492  25.2057018  69.2036362   2.8539805
   1.6418241  12.0281696   9.2219677   1.3061056  11.7896690   8.3578835
   2.5135839  12.3842573   9.0503035   9.0456924  36.5678635  86.6103210
   9.3068714  36.5424538  85.6897964   9.0076303  35.6484718  86.8739548
  34.4580612  49.4915047  82.3991547  35.1533356  49.8871574  82.9247818
  34.8910828  48.7822685  81.9240723  46.2837372  47.7721443  49.5507736
  46.6775513  47.7167206  50.4214439  45.3922005  48.0818329  49.7104225
  21.1748199   8.7358913  57.2500420  21.7562885   8.1271477  57.7056274
  21.4593906   9.6022034  57.5411682  12.3145590   4.6590085  62.5982246
  11.4839163   4.4953079  62.1516037  12.3698502   3.9706306  63.2610283
  69.5920792  69.0917664  24.8891544  68.7418747  69.3524780  25.2432938
  69.8472137  69.8177414  24.3198509  64.9974747  10.2371435  23.9488716
  65.8259811  10.0491982  23.5078659  64.4297104   9.5028429  23.7150288
  24.8836250   3.1563020   3.6884305  24.5727119   3.7276337   2.9861870
  25.7701416   3.4658203   3.8742206  83.0909882  54.2750206  38.7583427
  83.1712799  54.7539635  37.9334831  82.4431381  54.7695084  39.2603416
  28.4226761  11.4145832   6.0712361  28.3126183  10.4977179   5.8192911
  27.7166862  11.8742523   5.6167984  32.1932831   8.1482773  52.4885635
  32.1976395   8.8632736  53.1249542  32.6332970   7.4259896  52.9368019
  15.8267975  23.5568924  54.9892616  16.0658436  23.3317108  54.0901604
  15.7564764  22.7136593  55.4367447  65.7265244  70.2110596  73.5471115
  66.1216202  70.5520859  72.7447205  65.2795792  69.4104080  73.2724686
  74.9236221  61.5128365  77.0547638  75.8254395  61.5203171  76.7339630
  74.7673187  60.6032982  77.3088074  22.8305206  15.2135239  70.6585846
  22.2438183  15.8617764  71.0481796  23.6459179  15.3011742  71.1522217
  16.7270031  48.6284676  41.8350182  16.9690342  48.4830780  40.9204063
  17.4152489  49.1990128  42.1771164  76.8077011  15.8641682  24.8417492
  77.7529373  15.7962818  24.7070351  76.7001419  15.8562813  25.7928524
  69.1057358  19.3790646   5.0995531  69.1630783  19.2229424   4.1569133
  68.6372986  20.2102451   5.1766100  21.3576107  21.3873463  16.2424831
  20.4047184  21.3319588  16.1706524  21.5287304  21.3616543  17.1839142
  78.4620361  68.3881149  25.1921310  78.1809006  69.2973709  25.0898685
  78.3008728  68.1898956  26.1146088  24.5813408   2.0886459  60.6584473
  24.5066624   1.1345909  60.6792717  24.3061600   2.3695381  61.5311470
  38.9327660  22.2581635  15.8295527  39.6088905  21.7472973  15.3844643
  39.2096329  23.1679878  15.7209406  74.5376587  58.4995575  50.2981033
  73.9046631  58.3863525  51.0071373  75.0872498  59.2300148  50.5820427
  31.5071163   5.4284306  51.3174362  31.8764553   5.2583632  52.1839790
  32.2659683   5.4549131  50.7346230   1.1307007  64.7791519  17.9356899
   1.6749135  65.1348724  18.6382046   0.6814206  65.5417557  17.5712433
  26.7352581  69.4197388  48.0823784  26.4713631  70.3397141  48.0669937
  26.8814754  69.1971054  47.1629829  59.7212524  37.2971878   5.8647833
  60.3972702  36.6507912   5.6612935  59.2896042  37.4641991   5.0269184
  45.0618515  55.1632843  33.5519142  45.3153076  54.3919106  34.0588379
  44.2753830  55.4894981  33.9892693  13.9280539  39.6531792   0.6831948
  14.3637123  39.0830765   1.3167708  13.0823040  39.8542519   1.0838270
  53.9324684  63.1702156  11.3525419  53.1411400  62.8325233  10.9330301
  54.5516891  63.2921181  10.6328630  40.5895996  18.8399143  32.5408249
  40.3356171  18.5192413  31.6754398  40.8393860  19.7522678  32.3943596
  49.6826591  49.0604744  71.8066254  50.3490410  49.0512695  71.1195374
  49.8179741  49.8923492  72.2603912   5.8149304  28.4197712   3.6444585
   6.1548729  28.9111443   4.3922701   6.5737901  28.2958050   3.0743744
   7.9976544  45.5431099  15.3376503   7.7307186  45.0552521  16.1167336
   7.4074702  46.2963028  15.3128128  12.0226135  23.0601082  44.8435707
  11.6865244  23.9282475  44.6208344  11.7743282  22.5094051  44.1010666
   0.7808868  26.7876225  20.7416058   0.1240205  26.1043930  20.6076126
   0.4141739  27.5601006  20.3114529  58.8948975  45.2236328  11.0511236
  58.9867363  46.1359711  11.3257818  58.5557480  45.2755013  10.1575251
  37.4993172  21.3309231  32.4366531  37.2114220  21.6707973  33.2839050
  37.3867760  20.3830471  32.5080605   0.6729334  10.7872133  60.2292595
   0.1827683  10.0220165  60.5299950   0.6974918  11.3695173  60.9885674
  55.8027077  68.1331253  42.8342171  55.8281403  67.7561264  43.7136803
  54.9022331  67.9950943  42.5404053  85.3259583  53.3265762  39.8231010
  85.8389359  53.3354568  39.0150146  84.5316086  53.8153954  39.6079254
  64.0060730  21.4404469   9.6204271  63.2969437  22.0514202   9.8206234
  63.6404800  20.5773354   9.8143606  35.6073265  62.6379585  58.4725571
  35.5613213  63.5895729  58.3801231  35.8486290  62.4976387  59.3881493
  58.2733383   1.7968786  61.4870834  57.4822617   2.3090026  61.3192787
  58.9105301   2.1257036  60.8529739  59.9412651  15.4886122  82.1167068
  60.8866425  15.4424257  82.2593918  59.8450813  15.9983082  81.3122253
   3.6272607  47.3409004   6.8456216   4.4107404  47.6999245   7.2621474
   3.6655765  46.4027596   7.0317669  60.7432480  19.9330425   0.8603679
  61.0891495  20.7009468   1.3152343  60.3122520  20.2889214   0.0833057
  28.3370953  66.3101654  63.3428612  28.0419426  66.3901978  62.4358253
  29.2852173  66.4337997  63.2980042  71.6020737  51.2744141  23.8613091
  72.3845673  51.2873039  24.4124603  71.1520615  52.0942917  24.0650711
  62.9132805  51.1749687  54.1373215  62.2303200  50.8619652  54.7304688
  62.4783211  51.2463150  53.2876396  79.2839279  41.3703880  35.9907227
  79.8392334  41.3311768  36.7693977  78.8717651  42.2332382  36.0336800
  73.2147598  44.3189812  41.9113617  73.8660202  44.9037895  42.2987671
  73.2985611  44.4584885  40.9680977   0.7743775   1.2634255  31.3781357
   1.6922332   1.0043193  31.2966709   0.2829790   0.4575562  31.2189693
   4.0384316  31.7475052   8.9666805   4.5506225  31.0934811   8.4911327
   3.2358904  31.8425236   8.4537182  21.5828590  62.4333458  51.7073059
  22.0197544  62.3896217  52.5578613  20.6729984  62.2013283  51.8931961
  17.0606747  25.6294003  38.6375237  16.4695663  25.5093365  37.8942833
  16.6422195  25.1544113  39.3555145  70.2529831  34.3008690  50.7176590
  70.2555008  33.4472275  51.1506958  70.4497375  34.1052895  49.8015442
  32.1807365   8.9681768  20.0661621  32.5738983   8.6708422  20.8866806
  32.5651169   8.4015741  19.3972492  21.5038300  11.7687893  25.6909866
  21.5004559  12.6397333  25.2939034  22.1606655  11.8245325  26.3850288
  61.7463379  64.4739609   1.0450577  61.2369804  64.6678543   0.2581721
  62.1910019  65.2961655   1.2511737  75.9410248   6.8658857  75.4158478
  76.5870743   6.9985528  74.7221298  75.5752563   5.9989977  75.2399139
  77.1916275  50.2894859  62.7443352  77.9724350  49.7686119  62.5565605
  77.4319839  50.8148003  63.5075531  26.6572571  50.0710831  30.4637146
  26.4796467  49.7709846  31.3551331  25.8196392  50.4176865  30.1563225
  52.9266205  56.9047470  11.9923973  53.7501678  57.2543259  12.3326826
  52.9365005  57.1309586  11.0623636  73.7030487  30.1517353  77.4072800
  73.5378036  30.0541897  76.4695129  72.9256516  29.7834110  77.8270645
  65.3622055   8.0658627  58.9107170  65.3211288   7.3994565  58.2248268
  64.5441971   7.9603438  59.3964767  85.1147766  15.4994659  79.7114258
  85.4235382  14.6788216  79.3274460  84.7683792  15.2479162  80.5675583
  78.9023590  60.1167336  73.2733383  79.1673355  60.7771378  72.6331177
  78.8962021  59.2954521  72.7817154   7.0403032  45.3566895  76.4099808
   6.9872999  44.4870338  76.0135956   7.9292679  45.6542892  76.2165756
  85.6199112  17.6490440  52.5091095  86.4689331  18.0884304  52.4606895
  84.9832764  18.3354473  52.3096657  15.8123913  24.2133865  22.9313278
  16.0809841  23.3201027  22.7165394  15.1009111  24.4031582  22.3197594
  31.5890274  16.5399799  21.7477036  32.1100731  16.0455933  21.1149940
  31.0929985  17.1620331  21.2155037  69.2497711  66.4950027  74.2741776
  69.8369827  66.8120728  73.5879745  69.7210236  65.7639008  74.6737289
   1.9105031  54.9324036   5.6395569   1.4112176  55.7450447   5.5585570
   1.2451599  54.2512665   5.7375498  12.8360376  19.8277130  78.0584717
  12.3903742  20.6111927  77.7363358  13.4608145  19.6065235  77.3678513
  60.4722748  63.3482246  47.4293785  61.3797798  63.0665398  47.5448036
  60.3476982  64.0309143  48.0886574  17.8439751  21.5665531  69.0168839
  18.3295956  21.8592415  69.7880783  18.1973133  22.0907726  68.2981491
  68.6925888  71.3824921  88.0815125  68.4309006  70.5113907  88.3797302
  69.5359116  71.5379333  88.5067978  68.6928024  45.4183731  10.6393852
  68.5506516  46.1117897  11.2837477  69.6252518  45.4732704  10.4302139
  82.5242004  13.5912361  49.2972221  82.5881958  13.1853733  50.1617508
  83.3751907  13.4258375  48.8913994  82.0974426  11.5263968  40.0329056
  82.6548691  11.7427835  40.7803574  82.5833893  11.8439846  39.2718353
  67.4717941   4.8500304  45.0506134  68.1767273   4.3032384  44.7037430
  66.6772995   4.5016298  44.6461143   7.0125799  43.7713394  25.2585354
   6.3415856  44.4479561  25.3490181   6.7384362  43.0800476  25.8611908
  67.5828476  62.6896744  58.1044159  67.1809006  62.0155373  58.6523247
  67.0280991  62.7272644  57.3252678   3.4714005  68.2278519  72.9193954
   4.0685205  68.9494705  73.1167526   3.4983051  67.6744156  73.6999207
   2.3846278  66.9130554  36.6739006   2.8249485  66.2355270  36.1607628
   3.0564797  67.2314682  37.2767792  33.2933960  59.0732384  23.7550755
  33.7190781  59.6156960  24.4189777  33.0002327  58.2968636  24.2320786
  86.2554398  46.6593819  39.5019302  86.2211456  46.0463486  38.7675972
  86.0097427  47.5027084  39.1215858   5.9790988  60.8970833  50.1775551
   6.0720143  61.0351868  51.1201706   6.8649230  60.6945190  49.8766975
   4.7826400  21.2508125  78.4614029   5.3458853  20.5825138  78.8517456
   5.1635599  22.0813999  78.7464600  39.9046211  47.3867798  30.3505440
  39.9236908  46.5557251  30.8251152  40.1164894  47.1516495  29.4471855
  63.0558624  22.8906078  13.1102800  62.4875641  23.1959267  12.4031401
  62.6037903  22.1264000  13.4678402   8.8815289  51.8760948  17.2059994
   9.5145569  52.1712341  16.5514755   9.3618622  51.9041519  18.0334797
  59.4068794   7.5073915  13.3967838  60.2751617   7.8913250  13.5189028
  59.3069191   7.4383144  12.4473276  16.0817909  69.3598175  74.8274994
  15.8211813  68.5074692  74.4784851  16.4627991  69.8188248  74.0789185
  81.3028641  36.8919868  38.1242523  80.5236053  37.3623390  37.8280029
  81.0135880  36.4153748  38.9023247  73.2701416  37.2183380  17.2387371
  73.9035797  37.0362320  16.5445995  72.4757309  36.7603035  16.9642410
  54.1453209  45.1882744  18.7781658  54.3363571  45.5366364  19.6490173
  54.1799393  45.9517822  18.2018909  14.2825527  49.2073631  81.1554489
  14.9833488  48.7858963  81.6529236  14.1984196  48.6765289  80.3633881
  65.7815247  33.4103966  36.2174110  66.2640915  34.1921158  35.9485741
  65.4107361  33.0665169  35.4047050  56.5260696   2.0864716  25.8168259
  55.8901672   2.8017840  25.8304138  56.0319901   1.3211519  26.1107674
  51.9314270  52.6582909  58.1681213  52.5340385  52.9423027  57.4807854
  51.1625214  52.3391876  57.6956902  16.5822830  30.9276581   9.7391214
  16.3251190  30.2110844  10.3193121  17.3297253  30.5834541   9.2501574
  21.1232643  31.7665882  14.8333511  20.8936386  32.0334320  13.9432392
  20.4933224  32.2237701  15.3904791  58.7399673  54.4688644  19.5149574
  57.9831963  54.9472198  19.1762791  58.8856735  53.7692413  18.8781452
  79.9383698  19.9050999   0.5621405  80.2033386  19.2305851  -0.0632034
  80.3756180  19.6605721   1.3777742  29.0407715  62.9565430  39.2568893
  28.2212086  62.5159416  39.4814339  29.7172794  62.4441223  39.6996002
  66.6365356  46.6138992  79.4466858  65.9910660  46.6850929  80.1499176
  66.6354828  47.4767799  79.0323563  58.3135910  26.9660931  68.8211365
  58.7917328  27.7948837  68.8479080  58.9964867  26.2953701  68.8251648
  11.2761698  53.6854858  69.4730606  10.6530476  54.3914642  69.3011780
  12.1313934  54.1153984  69.4722443  81.7993164  13.3854275  84.6869965
  81.9826279  12.9146023  83.8740082  82.2191620  14.2376595  84.5701065
  73.5779953  22.7854939  41.9373932  73.5011902  23.1003170  41.0367165
  73.8470230  21.8711033  41.8493805  32.3516579  46.6146431  85.5840759
  32.2759590  46.6993828  86.5345078  31.8457832  45.8300629  85.3725128
  24.0289497  13.8711510  56.3647499  23.7732849  12.9741898  56.5799904
  24.2453537  13.8414316  55.4328079  19.4652958  20.3617973  35.4679756
  20.0013561  21.1063614  35.1950378  20.0955772  19.6604748  35.6326714
  31.5805779  56.1336365  88.5685196  30.6790257  55.8130531  88.5942764
  31.9965115  55.7407227  89.3358841  22.7797432   8.3254128  47.0520706
  23.5766792   8.0859632  46.5790100  23.0508442   8.3740540  47.9687881
  73.2881470  60.6127357  58.9990997  73.4622040  60.1571007  59.8227081
  74.1463623  60.9244347  58.7118073  62.2971535   2.1914110  18.9169827
  62.0690765   2.7706633  19.6440849  62.0288620   1.3208976  19.2110176
  73.6293640  34.4068031  46.2325134  74.1675949  35.0857048  46.6394920
  72.7413406  34.7637405  46.2481956  85.7114563  33.3093643  58.6327286
  84.8495255  32.9062881  58.5286446  86.2485733  32.6260338  59.0337219
  40.4971466  63.9253769  19.6608925  40.9409523  64.2354584  20.4502716
  40.8583488  63.0517883  19.5105438  78.5200043  44.8356171  69.9540329
  77.7718735  45.2152023  70.4149475  78.4427490  43.8938522  70.1068268
  20.2472191  61.2395592  14.5456362  20.6130142  60.3550720  14.5352907
  19.5020828  61.1835976  15.1438618   5.7724094  30.6870327  48.0451050
   6.6104345  30.4848919  47.6290665   5.1427960  30.1154709  47.6056328
  56.1616859  62.9057961  66.0476379  55.7789879  63.4941444  65.3967819
  56.7145538  62.3128166  65.5387802  33.8733215   3.5126269  19.6819363
  33.5345230   2.6208191  19.6036606  33.8565865   3.8545175  18.7880344
  58.1803894  51.9729805  74.6388092  58.8270340  52.1882896  75.3109131
  57.8138771  52.8183632  74.3795166  17.1381340  41.0441513   2.8433249
  17.5857410  41.8891716   2.8859766  17.4857578  40.6285362   2.0542412
  46.0415840  22.8658657  12.4947262  46.5204849  23.0868530  13.2935076
  45.4376106  22.1728592  12.7615414  73.7196884  29.1407490  23.6239967
  73.6871719  28.2244301  23.8988342  74.4956665  29.4939289  24.0591526
  11.6416759   7.6753988  87.2818756  10.8887768   8.1726570  87.6014252
  12.2763433   8.3428297  87.0211792  37.8278618  62.3884277   0.9680613
  37.3300514  61.5897179   1.1426362  37.6824684  62.5628433   0.0381833
  10.3979282  42.1131248  83.0712585  10.7141485  41.2129707  83.1484680
  10.9695816  42.6182289  83.6494598  27.8232822  61.8850479  19.5731220
  28.5852146  61.6479378  20.1017742  27.8935928  61.3362961  18.7919941
  76.9591675  11.9195089  80.9112701  77.0646820  12.3179417  80.0473557
  77.6524429  11.2611351  80.9576721   8.2551441  59.6484833  56.0713959
   8.2079973  58.6932220  56.1099701   7.4689775  59.9078789  55.5908890
  34.1045189  65.9450836  20.2986298  33.6566277  66.1453934  19.4767399
  34.8054924  66.5945587  20.3538666  72.5620956  40.1379128   4.1242199
  73.4809875  39.9132957   4.2705646  72.4893341  40.2428513   3.1755755
  12.5070686  37.5924301  38.8457069  12.9092007  37.4278221  37.9928131
  11.8988476  36.8635635  38.9684067  78.9596252  48.4316063  62.6907997
  78.5831223  47.7665596  63.2671623  79.4484558  47.9325066  62.0364494
  68.5281677  58.5658798  19.6063137  69.3036728  58.2584267  20.0756626
  68.1312256  57.7700157  19.2523785  43.9854546  -0.0007394  58.8187408
  43.7808456   0.7530184  59.3721085  44.9363213   0.0305833  58.7133636
  27.0382328  11.7225113  66.5795593  27.6078339  12.0436764  65.8805313
  26.5646687  12.4988508  66.8783340  80.9354858  70.9670563  36.2333031
  80.5398026  71.1355743  37.0884476  81.8182144  70.6565628  36.4348373
  31.9743462   4.2115102  30.3076630  31.5226212   3.4308300  30.6281548
  32.8546028   3.9059067  30.0886078  61.6321220  71.2124100  22.8834400
  61.3640137  71.3485413  23.7921848  62.1620369  71.9810867  22.6723518
  64.7375031  35.3615494  77.7304993  64.2923508  36.1044922  78.1380615
  65.3227615  35.7577629  77.0849609   7.7835336  49.4752426  17.0347919
   8.1094933  49.2172508  17.8970127   8.2633171  50.2771454  16.8274574
  41.3973885   3.0118108  59.9021873  40.9768715   2.7332537  60.7156982
  42.3229790   2.8022344  60.0270615  43.7326088  52.6060600  51.1656609
  43.3705368  51.7560196  50.9155273  43.1198158  53.2442665  50.8003998
  29.5095577  17.9614468  34.9383049  29.2551613  18.2429562  35.8170891
  29.8864098  18.7439137  34.5358582  50.4014435  28.0583744  77.5820312
  50.9901237  28.7504253  77.2807770  49.5841064  28.2167282  77.1096802
  14.7831469  48.6683731  75.9284439  14.1416473  48.5297165  75.2316818
  15.5328426  49.0682564  75.4876709  21.4867725  26.1342316  29.1921024
  21.3760109  26.5446301  28.3344688  21.6126823  25.2052822  28.9986343
  76.4442520  58.3743324  58.8961601  76.3529892  59.2417259  58.5017776
  77.2711411  58.4154510  59.3765717  14.8854990  43.0962448  31.1997814
  15.2420425  43.9528732  31.4349422  15.5256815  42.4695892  31.5369778
  52.9436455  21.8897781   8.9432220  52.4498177  22.3928356   8.2956886
  52.3598328  21.1703148   9.1835680  39.8945312  49.6333160  22.4388161
  40.1620827  49.3117790  21.5778503  39.8968735  50.5863762  22.3498955
  79.6943207  67.3051300  18.7724819  79.1707840  68.0928421  18.9196453
  79.3756943  66.6805725  19.4241161  14.6891155  16.9856815  78.2840500
  14.7981367  17.4257431  79.1270752  15.2408209  17.4836407  77.6808167
  81.9952698   9.1600504  31.3853188  81.9591446   8.2512445  31.6836472
  81.6423721   9.1343861  30.4959164  57.9922943  62.7649002  87.6479492
  57.1286430  62.6522980  88.0450134  57.8171768  63.1980209  86.8125000
  53.8650131  45.9734383  74.6890106  54.5457230  45.7060318  75.3065491
  53.7741585  46.9163857  74.8262253  40.3869362  67.1297073  83.1017761
  41.1930199  66.8827820  83.5550842  40.2083855  68.0217514  83.3994446
   0.0234393  45.2753296  65.2974930   0.0909852  45.4638634  64.3614807
   0.7341976  44.6576424  65.4692993  10.2365561  19.4690037  50.1371841
   9.5910788  19.2072582  50.7937508   9.9228878  19.0757008  49.3228416
  34.3285522  62.5450821  48.2581291  33.7474327  61.8964043  48.6553078
  34.4700356  63.1938782  48.9475365  61.5026741  63.6455460  15.5861158
  62.3114738  64.1347427  15.7369680  61.3437729  63.7295303  14.6459417
  50.3236771  56.5848083  29.9154358  49.8869934  57.3555412  30.2780781
  50.2869530  55.9359055  30.6181507  18.2877655  20.8776836  11.5418482
  18.3117218  21.8344975  11.5289660  19.0356522  20.6121445  11.0066986
  32.5561943   0.8681687   4.5700078  32.9553833   0.3472168   5.2667794
  33.2196808   1.5219907   4.3496976  71.8971100  32.9447632  31.9071636
  72.0615158  33.8097115  31.5315742  71.6156311  33.1228790  32.8045387
  22.0071125  67.6874847  29.1383018  21.2803173  67.0940704  28.9489117
  22.7854710  67.1314011  29.1041641   9.2169285  17.6636467  63.9598541
   9.9825954  17.6925831  64.5335693   8.4693003  17.7135906  64.5554962
  73.9589462  44.1922607  78.1543121  74.9004822  44.2822456  78.3014374
  73.6941376  43.4745483  78.7296295  81.4855957   7.2150121  55.0737152
  82.2711105   7.5674973  55.4919891  81.6089783   7.3954759  54.1418114
  11.6682682  38.2537766  33.7577705  11.0402508  38.6430206  34.3663063
  12.4634218  38.7750931  33.8681831  64.7275467  62.2046394  75.0000000
  64.6656647  61.4870300  74.3695679  65.6639099  62.2830467  75.1824951
  63.3950806  17.8513298   8.6955309  64.0169525  18.4181728   8.2392483
  63.1974564  18.3175430   9.5078259   7.2446833  37.1677322  63.3949471
   6.4780169  37.3132401  63.9492760   7.9756231  37.1022110  64.0094910
   4.2151694  27.6563873  37.1852570   4.3682384  27.5189056  38.1200867
   4.7470455  26.9872112  36.7545128  57.6848068  54.8377342   4.4605150
  57.9137955  53.9974899   4.8577356  57.7121048  54.6724930   3.5180809
   8.1208801  40.5562782  82.0310974   7.6244392  40.3447571  82.8216934
   8.6749887  41.2938538  82.2863922  66.6937180  31.2964668  30.0467434
  65.9146881  31.8378830  29.9194183  66.5970230  30.9417248  30.9305077
   4.9437666  33.4296570  86.7234955   5.1976166  34.3145523  86.4612885
   5.6729894  32.8776817  86.4410248  50.0031853  36.9322510   6.2569962
  50.6548691  36.9415207   6.9580355  49.6438942  36.0452385   6.2756948
  53.8761520  47.1399536  11.0171652  54.1409416  47.7398605  10.3198662
  54.5534782  47.2368774  11.6865435  76.1682358  37.7154160  63.2560234
  76.3684540  38.5421181  63.6950111  75.2205582  37.7381058  63.1232719
  42.6413078  51.8341446  66.8522949  42.3097916  50.9362373  66.8428345
  42.0846214  52.3015709  66.2295227  45.1473198  25.5719852  12.2275686
  45.3304062  24.6507187  12.4119043  45.9219398  25.8807487  11.7576103
  67.7237320  37.4601135  68.2130280  68.5726318  37.5060387  67.7731476
  67.3279572  38.3181190  68.0600128  75.4507751  17.9749374  66.2945328
  74.6884766  17.3970013  66.2609940  75.1560516  18.7845650  65.8775482
  75.1487808  41.3375320  49.7620392  75.8434219  41.9917450  49.8375664
  75.4311676  40.6215553  50.3311310  84.9496460  16.5146122  57.2206764
  85.1972504  16.6383972  58.1369743  85.7755432  16.3343315  56.7716522
   5.1422558  40.1061821  60.4120674   5.5416341  39.7167091  59.6342239
   4.3600397  39.5775414  60.5698814   8.5380697  36.9346771  49.5625305
   9.2917299  36.3877602  49.3409157   8.8910055  37.8234749  49.6038551
  81.5219269  30.2197514  31.4835949  82.1366653  30.1470757  32.2136955
  81.2201004  29.3236961  31.3345203  42.8085060  57.3135338  15.8920641
  41.9627953  57.3446846  16.3393173  42.5941963  57.4282341  14.9662418
   1.4757115  25.8834095   5.3160267   0.6257920  25.4432583   5.3043628
   1.3561698  26.6191978   5.9164910  28.7278500  16.1503601  74.6325073
  27.9850941  16.3065338  74.0492783  28.5346870  16.6722240  75.4113388
  20.1723576  29.2008648  38.9915924  19.9833317  28.6065273  38.2654648
  20.7417850  28.6960773  39.5722580   6.2567153  63.0556297  73.7400742
   5.5803037  63.4092293  74.3177109   5.9757595  62.1577225  73.5638351
  62.7020721   0.2350437  86.9643326  63.2408638  -0.2415842  86.3328552
  61.8015213   0.0594244  86.6915665  60.5798302  68.2772980  23.8953133
  59.9826660  68.9563141  24.2092533  60.2511635  68.0531311  23.0247040
   8.5303450   6.4163198  50.2593918   9.3877134   6.6707458  49.9181862
   8.3637857   5.5570021  49.8720093  63.0616150  50.9758263  28.0553970
  63.0300064  50.7101860  28.9744549  63.7328606  50.4148331  27.6668835
  77.4140015  62.3928986  69.5785522  78.1438599  61.8372269  69.8519974
  77.1943588  62.9012184  70.3593216  82.3064804  26.8159199  60.5348053
  82.7609329  27.5104961  61.0115280  81.6737595  27.2775230  59.9845161
  61.8809814   1.7579029   5.8732786  61.1505432   1.9766201   5.2946105
  61.5322151   1.0817393   6.4541368  38.7333679  18.9045601  11.5678129
  39.6308136  19.2099476  11.7003269  38.6326981  18.1811905  12.1865501
  31.1951218  14.2360086  26.5594578  31.7848511  13.4859934  26.4824581
  31.4845486  14.6878815  27.3520947  66.5063171  24.1783943  56.2753181
  66.2085495  24.6636429  55.5058365  67.4550400  24.3050423  56.2859955
   5.0985150  69.0021591  59.4554062   4.2800198  68.8654709  59.9324951
   5.2214580  69.9514236  59.4577599  83.7287674  54.5345955  31.6611481
  82.8006897  54.7568893  31.7352524  83.8207397  54.1823578  30.7758789
  74.6677933  17.0636253  53.4309311  73.9472656  17.2731533  52.8366508
  74.2523422  16.9731445  54.2885132  76.2773285  36.4543114  53.7293358
  77.1044846  36.2889900  53.2768860  75.6710205  35.8106804  53.3627853
  24.8273087  46.2233276  87.6126938  24.4090405  46.1166611  88.4670410
  25.4017639  46.9813957  87.7202301  68.4396973   2.9018092  29.1968060
  69.2458572   3.3558638  29.4421101  68.7283554   2.0297196  28.9277954
  25.4244137  11.6619358  25.4032211  25.4979725  12.3398438  26.0749798
  25.9912338  10.9554634  25.7128067  82.3200150  48.6319046  35.3049965
  83.2448425  48.8774490  35.3302193  82.3255234  47.6750221  35.3289452
  15.6841860  23.5366001  31.5155010  15.6137886  22.6970367  31.9698257
  16.4593220  23.9502392  31.8953686  77.1800232  52.5724640  57.2341194
  77.3468323  52.9985657  56.3933792  77.7313919  53.0466385  57.8565216
   1.9469254  48.0825653  41.6215897   1.1800753  47.5136299  41.5546036
   2.5762203  47.7100372  41.0039787  60.7352028  31.7688866  23.6037579
  61.1683960  31.0670815  24.0896053  60.0343895  31.3295059  23.1220570
  86.3509903  31.8312359  47.0184517  86.0636520  31.5126934  46.1627655
  86.7996216  32.6552849  46.8289642  45.8772812   6.7516880  70.7857819
  45.4686279   6.8681812  71.6434860  46.3376122   5.9150176  70.8514481
  62.4404678  64.4360428  57.7570419  62.8815346  63.6439476  58.0640907
  63.1168251  65.1128082  57.7846794  51.2206001  53.9797897  88.6517792
  50.4998398  53.4710732  88.2803802  51.0532913  53.9794273  89.5942459
  75.9246750  29.8092804   3.7957072  75.3952866  30.6064777   3.8170719
  76.0559464  29.5841808   4.7167563  48.2142143   3.1828818  33.6082726
  47.6876297   3.9819782  33.6278572  48.7937393   3.2963402  32.8549385
  10.6719866  24.9611130  74.6072845  10.4948425  25.2280388  75.5092850
  11.3611135  25.5563622  74.3123093  62.0204735  25.4143143   8.3836498
  62.9103661  25.1041889   8.2158852  61.4637794  24.6594009   8.1927900
  70.8380814  14.1751604  64.0885925  71.1881638  14.5939789  63.3022957
  70.5286560  14.9017849  64.6294327  11.8091240   6.8029447   8.6543732
  12.0721598   6.9335675   7.7433391  12.1924744   7.5443358   9.1230030
  26.7016525  43.5906639  52.5600471  26.3646965  43.6050606  51.6642342
  27.2436924  44.3769455  52.6247253  68.8700714  11.5639906  25.1578922
  68.9971008  12.4775982  24.9021244  69.6504593  11.3473749  25.6680927
   2.5450058  66.8673553  24.3187351   1.8705939  66.3840714  24.7960587
   2.9002781  66.2320328  23.6971416  11.6349878  61.5803413  22.5913277
  10.9504061  62.0805283  23.0356178  11.6534376  61.9363174  21.7029743
   4.6434484  16.8687572  71.9077606   5.2969337  16.8134079  72.6049805
   5.1343079  16.6933041  71.1049500  42.8021927  54.9003754   8.9522629
  42.1346855  54.9505463   8.2680502  42.7804718  55.7605591   9.3716021
  20.5173893  21.1267719  25.8634720  20.8504620  22.0173626  25.7532787
  20.4555092  20.7822590  24.9725666  46.5483971  62.0905647  26.6002312
  46.6075630  62.9747887  26.2384605  45.6087837  61.9156113  26.6526661
  82.8211823  13.3301830  12.8354168  83.1532745  12.4892397  12.5211515
  83.0681915  13.9551001  12.1537285  11.3974771  14.5236769  18.5222797
  11.0290756  13.7481947  18.9455280  12.3346052  14.3393707  18.4586105
  38.2218933  53.3216820   9.7058525  38.4962845  53.3665466  10.6217823
  38.9500809  53.7070198   9.2185259  75.4275513  45.8781204  42.9694633
  75.9134445  46.3907127  43.6155205  75.9429016  45.0787888  42.8612175
  62.1422691  70.9942551  83.4061432  62.9366417  70.8561096  83.9220123
  61.4980392  71.3119125  84.0388260  26.9385262  55.0066490  37.7836952
  27.2904015  54.4257240  37.1091957  26.0653248  54.6598740  37.9667206
  79.6066132  68.6593628  89.3381348  79.3936005  69.5905991  89.3985291
  79.5632019  68.4639511  88.4020996  59.3253250  30.9987431  85.8996277
  60.2037888  30.7661591  86.2003555  59.0022812  31.6146660  86.5572815
  83.2316208  54.0950432  46.8206100  83.4109344  54.0018349  47.7562332
  83.4565277  55.0042305  46.6230507   4.9277968  30.1658726  57.6912956
   4.1857166  30.7573490  57.8166161   4.5356312  29.2933369  57.6578140
  43.5198250  32.4618950  10.0968103  43.7147980  32.1546974   9.2114601
  44.2393875  32.1255035  10.6309452  64.3686981  30.0327053  81.8895721
  65.1547852  30.5182877  81.6395645  64.3427734  30.0941658  82.8444443
  66.2539444   7.1690025  17.3027344  65.4175110   7.5954237  17.1162682
  66.9135590   7.8170872  17.0554829  57.0731850   2.1564202   5.1910887
  56.4187202   2.2038648   5.8879781  57.1097183   1.2283515   4.9596033
  60.0851746  31.8065853  19.2256756  59.7245140  32.0012932  20.0906868
  59.3965302  31.3081627  18.7857018  14.6346493  61.0442543  37.0642395
  14.0615292  61.7036629  36.6731606  14.3239260  60.2133179  36.7047577
  85.9957047  53.6963463  37.2146378  85.2171402  54.0536423  36.7875519
  86.6907043  53.7904701  36.5632133  71.5858459  35.6613503  74.1418152
  70.7125092  36.0104141  73.9638519  71.5547791  34.7613792  73.8172836
  29.8915691  42.2351952  16.8103695  30.3307323  41.8782158  16.0384045
  30.2404575  41.7254295  17.5415649  10.1519299   2.1612549  74.1799164
  10.9633331   2.6602619  74.0858459  10.4264088   1.3274629  74.5616074
  82.9912186  13.9306173  58.6891518  83.6681213  13.6536694  58.0716209
  83.2902527  14.7829409  59.0059395  27.4055614  50.4919624  17.4994850
  27.5365582  49.8133392  16.8372593  26.9418850  51.1906853  17.0379372
  71.9393539  44.1571121  81.5518341  71.6864548  44.1422691  82.4748993
  72.0405121  45.0864601  81.3461304  52.1825562  35.9150581  84.1657257
  52.6547394  36.7134094  84.4021835  52.7715874  35.4571114  83.5660934
  29.2400436  60.3922157   0.4461515  29.2580452  60.1870384  -0.4886269
  29.3955269  61.3358040   0.4872918  65.6737747   6.5242562  56.8175735
  65.2059021   5.7339535  56.5478554  65.5787811   7.1233101  56.0770721
  77.1025620   1.6295168   4.6098742  76.6524887   1.1998613   5.3372407
  76.6984863   2.4955864   4.5562372   3.1713939  23.3189869  87.1818619
   3.0111492  24.0353603  87.7961578   3.1692693  23.7369175  86.3207245
  54.2241249  60.9120140  55.2880249  54.2430649  61.7131119  55.8115883
  54.8063812  60.3095551  55.7508965   3.2224545  10.0564966  47.2253456
   2.8349841   9.8445435  46.3761253   2.5783310   9.7528591  47.8649864
  80.7914047  49.3760338  75.1265717  81.1787033  48.8596725  74.4197464
  80.3765030  50.1159019  74.6830826  82.0217285  50.5278358  63.8810005
  81.9780350  50.6583862  64.8282471  82.5657578  49.7479095  63.7715607
  30.3536339  51.9830055  87.7084351  29.6938229  52.2686501  87.0765457
  30.1715374  51.0526581  87.8408279  78.9359741  22.8240147  17.6508732
  78.6079559  22.2811604  18.3677731  78.5644455  22.4291019  16.8620491
  66.6232681  34.0706444  58.1213799  66.5666656  33.8456192  57.1927299
  67.2933960  34.7529259  58.1620865  34.8616104  69.9675903  50.6843338
  34.0349541  70.3119736  51.0223694  34.6659050  69.7187958  49.7809868
  15.3156528  69.7045212  36.2229004  14.8167505  70.0945892  36.9406586
  15.8190575  69.0023727  36.6349831  83.5709457  25.0279789   8.1401262
  82.7051697  25.1358147   7.7463875  83.5933533  25.6706581   8.8491354
  79.2746735   7.8573155  56.3114929  80.0772171   7.7338452  55.8046379
  78.8068619   8.5553265  55.8530579  57.7718315   7.9773231   8.4422197
  58.4952927   7.9450598   7.8162827  57.1853600   7.2726827   8.1669636
  79.0799789  33.5253525  21.4790668  79.3087082  34.1437187  20.7851372
  78.9385071  34.0732727  22.2510757   3.1336079  37.3000450  30.2722187
   2.8098807  38.1485863  29.9698772   2.4175937  36.6916122  30.0895557
  23.2833958  63.5037727  16.4379673  22.6418877  64.1505051  16.7319679
  24.0675697  63.6928635  16.9532795  86.5348129  58.2482185  58.4892464
  86.9424133  57.4481506  58.1576080  85.9420395  58.5227776  57.7896271
  46.0818863  53.7482834  14.7290764  46.1564789  53.6259308  13.7826633
  45.8607903  54.6736412  14.8342609   0.8600944  53.7588425  88.6440735
   1.7618313  53.7155075  88.3259125   0.8786220  54.4306374  89.3256683
  56.3082123  22.4374084   6.0809956  55.9020500  21.7673168   6.6307607
  55.5952225  23.0413780   5.8733902  22.2272930  58.6900635  80.1206970
  22.6754246  58.3879585  80.9107285  22.3711147  57.9918365  79.4819260
  23.6599522  11.4439516  12.0957193  24.4610462  10.9337130  11.9768248
  23.9667320  12.3283567  12.2955866  20.8454952  42.4171143  87.3895340
  21.0763302  41.4894753  87.3402023  20.3099689  42.4889755  88.1796494
   1.5746806  20.7120800   5.8664508   0.9788350  20.3720627   6.5339751
   1.9710921  21.4841766   6.2701297  10.0008450  14.4404478  32.6109085
   9.8237343  15.3797140  32.6623154   9.1344471  14.0337753  32.5965881
  78.2194748  54.3290329  76.7095947  78.2479935  54.1063690  75.7790833
  79.0137863  53.9383240  77.0738068   9.5669947  39.6613846  87.6959457
   9.6228552  39.1030273  86.9204788   9.1433477  39.1127777  88.3560867
  75.0279312  24.3726196  86.1286697  75.2181396  23.4732895  85.8617249
  75.5009384  24.4827442  86.9535141  20.5437393  11.9562645  74.3999100
  19.8336487  12.2767639  74.9560471  20.6037979  11.0226555  74.6023941
  75.2443695  20.1081581  35.0402794  74.5950623  20.3996029  34.4002075
  74.7865906  20.1459923  35.8800659   0.2209687  66.0374298  35.1746521
   0.7246441  66.7111969  35.6313591   0.6203315  65.2121582  35.4497299
  64.4000397  15.9763422  56.0250931  63.6631355  16.4686756  56.3867645
  64.1720657  15.0589390  56.1755219   5.8550463  29.4935150  23.9705582
   5.7048950  29.3307877  24.9017963   5.2008882  28.9553204  23.5248489
  30.2973137  42.7461166   1.2022170  29.7325974  42.2093887   1.7583189
  31.1662350  42.3555717   1.2953981  40.7082596  21.6117458  13.4932013
  41.5454369  21.7290401  13.0441933  40.7399712  20.7159061  13.8289080
  17.0312653  31.9050846  80.8270187  16.7057476  31.7127972  81.7063904
  16.5406723  31.3143635  80.2555389  79.3988037   7.8365083  38.2323570
  79.9193573   7.9826508  37.4424820  79.0425873   8.6985531  38.4473457
  80.3225174  17.9303131  84.6501846  79.9444580  17.3866196  83.9590302
  81.1940994  17.5620041  84.7948685  79.7631378  13.8243141  32.6177406
  79.5913010  13.0226307  32.1237717  79.9165878  13.5251789  33.5139580
  50.8571091   5.3315458  68.3779907  49.9513893   5.3240085  68.0684052
  50.8395691   5.8885031  69.1562729  43.1947670  54.7484131  17.7621422
  43.1702461  55.4693642  17.1329670  43.6335106  55.1152153  18.5297318
  16.3531303  59.2378044  44.0508461  16.2865601  60.1926804  44.0542145
  17.2324238  59.0578346  44.3835373  70.4964371   9.3568163  39.0439148
  69.7782745   9.6877174  39.5833397  70.4886551   8.4106970  39.1889305
  79.7888184  43.8841095  86.6737137  80.0331497  44.0993080  87.5738449
  80.6237183  43.7697182  86.2197418  78.4049454   7.7052379  22.1585979
  77.6911621   7.3519711  22.6895771  78.6663437   8.5069237  22.6115913
  13.7950401  17.8105602  43.6868858  13.8531694  16.8757839  43.8844833
  12.8572683  17.9775105  43.5923080  71.1494064  52.7326584  63.5442276
  71.2589951  51.8372803  63.8644104  71.1081619  52.6431885  62.5921135
  28.9141235  35.3735771  21.0726509  29.0512066  34.4275665  21.1226959
  29.7710304  35.7275009  20.8345737  22.6181946  15.1647062  78.4711380
  22.4570141  15.6079578  79.3040771  22.3212547  14.2664089  78.6164703
  62.6782150  13.9537430  37.5285339  63.1570015  13.2378502  37.9462547
  63.1795311  14.1470280  36.7363510   5.4141898  34.2888298  56.7423935
   5.1454306  35.0532608  56.2328377   4.6729245  33.6864853  56.6796532
  59.0702095  12.8741264  73.6315918  58.2691307  13.1167221  73.1672134
  59.0201836  11.9217997  73.7140808  66.3064041   2.2711749  60.8783951
  67.2474136   2.1527426  60.7491150  66.2403870   2.9562478  61.5436401
  60.1023293  45.5428047  28.3258247  60.9554138  45.1442451  28.1536980
  60.3004074  46.4596825  28.5164242   7.2994471  47.6824493  10.6738424
   8.1165028  47.4061394  10.2587490   7.4210320  47.4786263  11.6011534
  72.9849854   9.1358099  61.8063469  73.7282639   9.5598860  62.2352142
  72.4196854   8.8573475  62.5268555   4.1472001  43.8141708   6.5764441
   3.2919908  43.8333130   7.0059586   4.7774324  43.8365211   7.2965412
  29.7649555  55.5453377  67.4668503  29.6294594  55.8207054  66.5601883
  29.9931450  56.3511467  67.9303513  44.1282196  14.5236959   2.9157875
  43.5823441  13.9143753   2.4188180  43.9383430  15.3809500   2.5346103
  33.9251900  10.1985855  72.7425385  34.0129204   9.7602081  73.5889130
  33.0263367  10.0147305  72.4696045  83.2075195  45.5779610  39.1340828
  82.9303818  46.4660072  38.9086914  82.4870682  45.0204010  38.8403091
  67.8422546  46.6532707   8.3589191  68.3821945  46.0060120   8.8125267
  66.9454727  46.3378830   8.4709263  35.6411247   5.0879035  21.2763214
  36.3358879   5.1829500  20.6247845  35.0367737   4.4533463  20.8911839
  53.8045044  19.7813377  30.4671230  52.8634453  19.6208916  30.5371094
  53.8885384  20.7340698  30.5054913  34.1234283  25.4803162  84.1288681
  34.5156746  25.6321640  83.2690277  34.5983315  26.0684891  84.7160187
  42.1555328  26.8264809   0.7437310  42.0777435  27.4705830   0.0399466
  42.7860298  27.2116451   1.3522980  71.8697510  49.4184570  26.6405983
  71.1729813  49.0713768  26.0835743  71.4173279  49.9865837  27.2641144
  38.7624588  68.5959091  60.5882874  37.8349838  68.6054840  60.3517952
  38.9161987  69.4513092  60.9893951  34.2238197  61.0297356  66.2568207
  34.8257523  60.2862587  66.2908249  33.4665489  60.7027931  65.7711487
  52.2286873  54.9518318  75.6258011  51.5374336  55.2563934  76.2137146
  53.0220490  55.3807755  75.9464493  27.0130672  16.2564259   7.0888939
  27.5460587  15.4690037   6.9788094  26.6787357  16.1961689   7.9837809
  44.1727715  24.5424328  26.9559422  43.4799538  24.9936829  26.4736500
  43.7096863  24.0391541  27.6256409  86.1628647  15.5729160  35.0485001
  85.3229752  15.1842890  34.8039780  86.1415863  15.6070900  36.0048523
  33.3878746  -0.2545560  28.1532211  34.3330803  -0.2985996  28.2977009
  33.2373848   0.6303208  27.8206882  38.6519852   0.8175460  74.1497498
  38.0922127   1.4673628  73.7247467  38.1971359  -0.0141037  74.0166931
  71.4601364  12.4121447  19.3557148  70.6883774  12.9338541  19.1356239
  71.9348145  12.9442720  19.9942722  23.7367268  56.5338593  49.8576126
  23.3145447  56.3663254  50.7001839  23.0467396  56.3871078  49.2106056
  60.9836693  65.8919373  69.9498520  61.4243202  65.0840302  69.6865234
  61.2869148  66.5462494  69.3204498  50.9651527  55.3832397   9.6735497
  51.4165268  56.2127876   9.5175257  50.1589661  55.6307068  10.1263828
  33.3129883   1.6637592  72.0048981  34.0065765   1.6053156  71.3478165
  33.0458984   2.5828223  71.9901276  26.0183487  41.2409630  14.5923843
  25.9471893  41.5070381  13.6756659  26.8755150  40.8193512  14.6535654
  69.2916489  29.2992210  32.6803322  69.9165192  29.5743103  32.0094414
  69.7128830  29.5289497  33.5085945  56.8327866  70.1858292   9.6985254
  57.4038048  69.5525284   9.2636690  56.3626938  69.6726913  10.3557453
  30.1739311  52.2168961  74.4958344  30.6574116  52.5962257  75.2297211
  29.3197918  52.6480865  74.5232697  53.2430077  68.4874802  70.4896164
  53.1576385  67.5400314  70.3833847  54.0661926  68.6020508  70.9644547
  42.3115387  13.7759104  81.7249756  42.4704971  14.5247278  81.1503143
  42.3390656  13.0168648  81.1424637  28.2039375  48.7555580  66.9042358
  27.7223797  47.9330177  66.9923325  27.5758648  49.3595543  66.5080719
  42.6515198  10.1635056   8.6909752  42.5562744  10.4868240   9.5868692
  42.9354668  10.9277563   8.1894512  29.9711704  20.9375763  18.2207966
  30.1217594  21.4881382  18.9891968  29.9174385  21.5545254  17.4909191
  32.2960968  14.7968931   7.0587206  32.6528931  15.6568079   7.2811532
  32.0267372  14.4248209   7.8985057  64.9927979  21.1104145  50.0098190
  65.0851135  20.1600533  50.0770645  65.2319336  21.3108521  49.1049042
   0.1843237  58.7821274  78.8386917   0.1141867  57.8321342  78.9326324
   0.6085477  59.0719986  79.6463013   6.8602576  68.5881805  14.6614542
   6.5775547  67.8820648  14.0803242   7.7019019  68.8705139  14.3034687
  82.4943390  39.9627113  11.1088419  83.4270401  39.7534294  11.1589317
  82.3414383  40.1553192  10.1837721  77.2697449   3.2613888  28.7887344
  77.3215256   2.3810406  29.1609421  77.7324371   3.8149781  29.4177723
  85.1425171   8.0297937  33.5680351  86.0792007   7.9383073  33.7426300
  84.7267914   7.9084616  34.4216652  81.4645233  53.7285080  82.6126556
  80.6905975  53.5158539  83.1342392  81.8376694  52.8782539  82.3801346
  77.3241577  43.6856728  43.8335381  77.7623596  42.8516312  43.6644783
  77.8860092  44.3399315  43.4182014  80.8010941   2.3541408  27.3344383
  81.2500839   1.8145103  26.6837177  80.2804947   1.7324649  27.8430939
  44.3142395   9.4778175   3.9529757  43.4236946   9.4391260   4.3017726
  44.2042236   9.3956909   3.0056729  80.4042740   7.7643967  14.6584082
  81.1272354   8.1931944  15.1163282  79.6588058   8.3512888  14.7851343
  48.6925468  53.7085724  75.3302155  48.9744949  54.6138153  75.4616318
  49.1958809  53.4084167  74.5733795  79.9593811  23.0275517  60.3949509
  80.3908615  22.7835999  59.5760841  80.6255875  23.5132523  60.8812637
  60.2210236  49.3830070  15.0615129  60.4424820  49.0640869  15.9364290
  60.9320145  49.0666122  14.5041790  11.1668854  45.3250885  12.0461864
  10.8449259  45.0972977  12.9183598  10.7620411  44.6807022  11.4655819
  16.8677464  25.1026859   7.1969876  16.4573002  25.9447918   7.3935132
  17.8075027  25.2831593   7.2197800  72.3412247  46.5555115   0.5754974
  72.4390030  47.0539436   1.3868157  71.4457703  46.7363930   0.2897148
  83.1022186  28.5597496  51.1919975  82.9506836  27.8838387  50.5313835
  84.0331573  28.4851494  51.4018211  56.4277611  50.2185745  84.2889557
  55.5342102  50.4421158  84.0285110  56.9735718  50.5371284  83.5700378
  16.9129620  51.1414566  28.4390068  16.0094872  51.4544601  28.3943748
  16.9746552  50.7084846  29.2904530  63.9594917  21.3043232  42.5945511
  63.7427635  20.7401199  43.3367996  63.3819771  21.0073643  41.8913231
   2.9398158  10.5809231   4.4985323   3.8894098  10.6313314   4.3891611
   2.8138947   9.9580059   5.2143188  41.3120193   0.5154042  45.9958534
  41.6133575   0.0970801  45.1893578  42.0901604   0.5515515  46.5521126
  77.1785889  46.1505318  55.9308281  77.3627243  45.3667564  55.4131203
  77.4668579  46.8763466  55.3773613  49.5706711  50.5556412  24.0031090
  49.3559418  50.7220383  24.9209518  49.4569283  51.4032021  23.5730629
  46.9401512  62.8511086  57.3486710  46.0133133  62.7568436  57.1288490
  47.1663361  62.0319748  57.7892265  16.9228134  57.5567703  24.6380463
  16.9838734  57.0920982  23.8034306  17.8044682  57.8984184  24.7870255
  77.5469589  46.4833298  82.4126892  77.7987595  46.0168953  83.2097244
  78.3744736  46.7942352  82.0455551   5.8171601  10.7660589  47.0127792
   5.6339941  11.7055187  47.0226440   4.9543962  10.3543196  46.9643936
  33.9712563  59.1654892  12.7971573  34.1318932  58.2246933  12.7241154
  33.2337494  59.2361984  13.4032221  23.9814568  27.9558678  58.8947296
  23.5666122  28.7626019  59.2002068  24.6876450  27.7976017  59.5212135
   2.0699937  33.3584862  30.8625050   2.5633900  33.1194725  30.0778618
   1.9996880  32.5430641  31.3588696  53.0655975  41.8355980  26.7270031
  53.2618256  41.4568214  27.5838890  52.3935547  41.2614937  26.3595772
  55.6031303  33.6064224  12.8464928  55.1422005  32.7928505  12.6418571
  56.2639999  33.3518295  13.4904366  12.5002527  68.4424820  75.5911331
  12.8993206  68.6768494  76.4290161  12.5318127  67.4860382  75.5700150
  72.4607849  14.6797342  81.4148407  72.5089722  13.8615370  80.9204102
  73.3725815  14.9535780  81.5142212  72.9721527  49.2786102  18.6562119
  72.5832901  48.4059334  18.7149906  73.4652786  49.3764496  19.4707603
  20.6360683   2.4877200  88.4862976  21.4989452   2.1103652  88.6574020
  20.1115685   1.7523115  88.1695862  42.4181557  45.0689087  82.5812607
  43.0075684  45.8208389  82.6397705  42.9325485  44.3954201  82.1362381
  21.4456367   9.6435022  79.6244202  20.6671219   9.1288738  79.8372726
  21.6002007   9.4710321  78.6956558  39.5436897  69.2837296  32.6406250
  39.3249397  69.3153992  31.7092934  38.8040924  68.8302536  33.0450859
  58.5972061  59.8754463  85.9252243  59.0994797  60.4575958  85.3550873
  57.8594513  60.4084473  86.2216263   5.2118177   3.4915388  35.3243675
   5.3062463   3.7021601  36.2533188   5.9560637   2.9214449  35.1311760
  79.0241699  58.1418152  49.9517136  79.7245407  58.2135124  50.6002274
  78.2256622  58.0472336  50.4710083   8.6018009  21.4179897  60.8884468
   8.8755274  21.9639282  61.6255074   9.2742805  20.7392921  60.8303680
  33.5639191  56.8237686   3.6398752  33.4384995  56.8764992   4.5873566
  33.4181557  57.7172279   3.3288872   6.2576094  40.3292084  55.5469131
   6.5770988  41.0770950  56.0517159   6.0754642  40.6869812  54.6779747
  21.2658672  63.9140778  43.2372475  20.3201065  64.0238495  43.1386604
  21.5009403  63.2598801  42.5792236  43.9679680  27.4928284   3.2529299
  44.6514778  28.1625099   3.2291291  43.1791115  27.9650974   3.5192010
   7.3403497  68.4367752  87.3833237   6.8972950  68.1952057  88.1967010
   6.6306472  68.6615524  86.7816315  64.9557877   9.1600847  62.9252014
  65.1209106   9.5450935  63.7858582  65.1542816   8.2303476  63.0366516
  11.0169888  60.7100372  12.3747606  11.2680178  61.2335587  11.6137476
  11.8194628  60.2528152  12.6261864   2.0115130  23.5105381  74.2514343
   2.5498781  23.3938961  75.0342407   2.4891021  24.1522312  73.7257233
  68.9774933   1.7731469  33.2475586  69.8879013   1.9523563  33.0124664
  69.0357895   1.2135087  34.0219231  67.0724411  52.6300201  82.4842606
  67.1892624  53.5757713  82.5744705  66.5925674  52.5252495  81.6626892
  61.4700470  29.5273170  38.7561150  62.3963318  29.2861595  38.7476120
  61.2831802  29.7278824  39.6732216  66.1612320   5.6975083  33.2067261
  65.2854767   5.6512108  32.8231354  66.4221878   6.6120391  33.0982475
  77.8569107  17.8463497  14.4332991  78.1406555  18.4074173  15.1550503
  78.3746719  18.1401272  13.6837320  71.4194412  60.8757133  21.3702602
  71.1092987  60.2900696  22.0609589  71.8003769  60.2918625  20.7143345
  39.8937225  57.6227722  38.6330414  40.0029984  58.5579529  38.8054466
  39.2445984  57.3351212  39.2750168   3.5572999  47.2625923  16.9831676
   3.1945219  46.9857063  16.1417656   3.1310940  48.1004448  17.1636868
  17.7029057  63.9991455  45.7760086  17.8394051  64.9171448  46.0102577
  18.0665188  63.5074387  46.5123749  10.0921326  66.5907440  64.0925827
  10.8949633  66.7922821  63.6118774   9.7642050  67.4431152  64.3792038
  22.6265907  34.4393768  24.8546600  22.6096821  34.9440804  25.6678123
  21.7079678  34.2336998  24.6812763  47.9874420  50.3026237   8.9020052
  48.4120216  50.5218124   8.0725946  48.7092247  50.2135811   9.5243692
  36.5789948   6.1325440  84.6469498  36.8169250   5.5054555  83.9640350
  37.2870750   6.7765713  84.6379776  51.8728676  32.2954674  27.4861412
  52.8293953  32.2624321  27.4720135  51.6212845  32.3451805  26.5639343
  47.8089142  52.6165085   3.1735823  47.9517136  53.5626793   3.1491368
  48.1552162  52.3003769   2.3390954  70.9236755  66.7860413  47.9922523
  71.3933258  65.9615021  48.1179085  70.4091644  66.6497803  47.1966743
  43.4461632  68.1351929  88.5388412  42.5883446  68.3910904  88.8778000
  43.8179321  68.9458847  88.1912994  13.5838413  20.6848564  22.1796875
  12.9993820  20.6408119  21.4229183  14.4437695  20.4480705  21.8322849
  69.5736771  43.0520782  35.9864922  70.0966263  42.7140846  35.2595024
  70.2159958  43.2749443  36.6602783  75.1193695   7.8162088  88.0351028
  74.8484650   7.6806393  87.1271057  74.3364334   7.6215911  88.5502396
  63.7442398  64.3992081  21.6314087  63.5473518  65.1853333  21.1220303
  64.3819275  64.6897812  22.2834511  55.5413742  69.0638809  72.3982239
  55.2274361  69.7474442  72.9901810  56.0352669  69.5359039  71.7277832
  45.9614601  20.4049549   3.1380544  46.0656624  20.4742355   2.1890686
  46.5168037  19.6660271   3.3866715  38.0640297  46.1355057  11.9614382
  37.5913162  46.6957550  11.3458948  38.9880028  46.2894707  11.7644491
  35.8231506   2.0406516  60.2654190  36.6348038   2.4564946  60.5561562
  35.1920624   2.7583685  60.2121315  75.3694382  50.4115448  50.9340973
  76.1743469  50.2285118  50.4494781  74.6668777  50.2166443  50.3138924
  61.6631966  46.0143356  85.0580139  62.2274933  45.7982903  85.8003922
  62.1608467  46.6624908  84.5595474   6.5001688  48.7712479  87.3420944
   6.2351012  48.8034630  88.2612991   6.8330784  47.8821716  87.2198410
  73.8783417  20.1539307   2.4226806  74.3384781  20.9569187   2.6670384
  74.2917786  19.8807163   1.6037449  65.4688263  46.8877525  76.6578522
  64.9860840  46.6875877  75.8559036  65.3684082  47.8332558  76.7681885
   7.7914762  12.9417915  39.1898308   7.8188405  13.4073963  40.0257111
   8.6985168  12.9450369  38.8840561  50.9316101  10.8488245  25.2233124
  51.8713303  10.7122211  25.1028881  50.8368225  11.0553627  26.1531448
  15.0326004   0.6988435  26.6379929  14.4644260   1.2286026  26.0787373
  15.4897938   1.3359261  27.1869297  39.6675682  50.0090637  77.5399246
  39.6709061  50.8306580  77.0487976  38.9776344  49.4875946  77.1296844
  14.2687922  20.6390629  50.5628319  14.1511354  21.1792736  51.3442154
  15.1924057  20.3884411  50.5817719  41.9974403  55.0183678  22.2461643
  42.0193329  55.0775299  21.2910461  42.3208160  55.8678513  22.5462303
  22.9225349  45.0481453   3.7084088  23.7568130  45.1250992   4.1713266
  23.1613884  45.0552330   2.7815156  72.5114212  44.6185417  26.5260735
  73.2241516  44.8418388  25.9274197  71.7512054  45.0842819  26.1776752
  19.1620255  61.1665306  23.8375816  18.3706226  61.6895332  23.7095833
  19.8038063  61.7848244  24.1869602  34.1239052  45.9235191  15.2629557
  33.2594872  46.0136185  15.6640730  34.3441010  44.9985962  15.3736782
  57.8334007  47.1056099  30.9322453  57.3513222  47.8209038  31.3471985
  58.6677742  47.4972305  30.6740131  35.0534210  41.5867043  85.5418320
  35.7244225  41.9964790  84.9958725  35.5372772  40.9765930  86.0985031
  29.2945881   8.8408060  65.7827988  29.5140057   9.7288685  65.5009613
  28.9825592   8.4076042  64.9883118  24.1320324  13.0504227  21.7963257
  23.9770050  12.2576361  22.3098316  24.8985577  13.4536667  22.2038326
  16.3433456  61.4749908  57.2135429  15.9846373  62.3480453  57.0543671
  17.2379570  61.5183983  56.8758812  79.0707169  46.2505760  47.1088333
  79.3207092  45.3358345  46.9785118  78.1165619  46.2513123  47.0325584
  39.7625809  25.4799557  21.2842560  39.5676041  25.2137890  20.3857174
  39.0438042  25.1180916  21.8025665  50.0669289  50.1631889  10.5553799
  49.8705673  49.4287834  11.1370363  51.0014648  50.0765457  10.3673191
  32.2075806  55.1438866  20.9788532  32.5647125  55.9148102  21.4197254
  31.3741798  54.9801331  21.4202824  81.2858353  23.1356544  16.3478355
  80.4564896  22.9225769  16.7756481  81.1387939  22.9302044  15.4245796
  57.6759911  64.4623260  79.2645569  57.4512901  63.6025887  79.6203537
  58.4038429  64.2914047  78.6668549   7.1225500  53.1023254  19.6874695
   7.8008804  52.4989166  19.3841553   6.7428470  52.6707039  20.4528179
  12.6019039  37.4278183  71.5047226  13.4793873  37.6278305  71.1787567
  12.0575638  38.1468468  71.1838989  85.2937622  13.3417778  48.4031105
  85.3073273  12.7747536  47.6320534  85.8713150  12.9068727  49.0304298
   2.1477587  43.7552185  57.2307549   2.4238713  42.9604607  57.6872139
   2.6292286  44.4598885  57.6641808   3.0356853  24.9311085  58.5235558
   3.1059325  23.9768829  58.4961128   2.2141795  25.0975971  58.9857712
  48.0507698   6.2395253   2.8199143  47.9771614   7.1202812   3.1874506
  48.8598175   6.2601309   2.3087902  65.9137039  44.6751709   2.3318105
  66.8027573  44.4487762   2.0587549  66.0151443  45.0129089   3.2216842
   1.6251097  61.5464668  78.7598877   2.2511272  60.9632683  79.1890869
   1.5666505  61.2168579  77.8631287   7.7508163  44.3563309  53.4647408
   8.3289881  45.1162949  53.3983688   7.3797612  44.4138489  54.3452187
  23.1132221  41.5336761  50.7121124  22.2300377  41.1646919  50.7036324
  22.9966736  42.4265060  51.0369301  62.7788773  33.4398079  84.2503281
  63.4028587  32.7224274  84.3609695  62.6928596  33.8194466  85.1248016
  54.5828323  60.6060791  78.6493759  54.1434975  59.7610397  78.5538559
  55.0059166  60.7530403  77.8034210  45.5796585  46.1355667  70.0032654
  46.4238625  46.5864143  69.9862976  45.4619751  45.8818665  70.9187012
  57.2032776  67.8274689  56.0922470  57.9700012  67.5507660  56.5940437
  56.5701637  67.1196899  56.2124481   6.4604635  50.8506851  83.2724686
   5.6768265  51.2928772  82.9459534   6.1244025  50.1223450  83.7947845
  83.1261597  43.9646378  53.9978638  83.7794113  43.3601189  54.3500710
  83.6238632  44.7507896  53.7731667  53.6092834  57.0715065  70.6342239
  53.2709045  56.5635872  69.8968353  53.9230042  57.8855896  70.2404251
   3.1146376  20.5155125  65.7908096   2.5081990  20.0128479  66.3346710
   3.9830019  20.2658405  66.1067810  57.1215591  61.0018005  43.5836716
  57.5610886  61.4464760  44.3084526  56.6643753  60.2681465  43.9947281
  70.6931839  18.1460342  57.9251213  70.5315323  17.3883495  57.3629723
  71.5984497  18.0388546  58.2170868  69.3572235  12.2107344  31.2188129
  68.5159531  11.7674980  31.3285294  69.6627197  12.3692207  32.1119995
  30.3320217  12.4769173  81.1062088  29.7975273  13.1191788  80.6392517
  30.8082752  12.9905891  81.7585526  54.0538216  52.8045311  23.6377163
  53.9463882  52.9381790  24.5794334  54.2445564  51.8707733  23.5485458
  76.0660553  40.6442604  36.1819496  76.3690643  40.4241562  35.3010559
  75.9903183  39.8002357  36.6270523  60.8428230   5.9796457  31.7219067
  61.6318207   5.6498194  32.1519394  60.1269341   5.4896488  32.1264305
  43.9669113  49.0783768  27.6748276  44.1408958  49.9652290  27.9901962
  44.0167732  48.5313301  28.4587173   2.6999128  45.9564285  25.9732704
   2.7231081  46.0655518  26.9239483   2.1289229  45.2011452  25.8327408
  58.2637177  38.1799583  88.3819427  58.4682007  37.2547531  88.2462463
  59.1024170  38.5792236  88.6130295  17.2727718  25.0096169   4.3661418
  18.2042294  25.2153912   4.4453425  16.9346180  25.0826511   5.2586389
  50.6661949  37.4483299  74.3985062  50.2638893  38.2763977  74.6605911
  51.3239365  37.2776527  75.0726547  12.0343647  23.1319103  87.8489761
  12.6755457  23.2803822  87.1539459  11.3843412  22.5501804  87.4549103
   5.7504420  27.7428627  75.5649261   6.1664639  28.5204105  75.1926651
   4.9694686  27.6087856  75.0279541  38.1415901  50.9202652  27.9174385
  38.2628479  50.1464462  27.3672276  37.8416481  50.5724106  28.7572384
  51.0276489  64.7037430  67.2406921  51.3679886  65.1867676  66.4876404
  50.8267746  65.3797226  67.8879395  23.4809265   1.5288723   0.1207899
  24.1518784   1.2171246  -0.4865563  23.9131432   2.2217863   0.6200806
  73.2732162  17.9402771  45.6747284  73.7160950  17.0937481  45.6157532
  72.4747162  17.7588139  46.1704025  86.0296249  35.1232834  55.8615990
  86.8935318  35.2448120  55.4677315  86.0714493  35.6090698  56.6853065
  79.8051071  38.1618195  30.1113014  79.2445602  38.5552483  29.4425468
  80.6447754  38.0280685  29.6716309  86.3400726  36.9011459  23.2560387
  86.9218674  37.1932716  22.5543194  86.6444626  36.0186729  23.4677467
  15.5708122  25.4769688  43.7238426  16.3037663  25.6149254  43.1238594
  14.9192171  26.1263142  43.4592514  65.6827164  14.0091743  45.0294380
  65.2964478  13.9173651  45.9004135  65.0031815  13.6969757  44.4319420
  35.5238953  26.1613426  10.3769646  36.4322128  25.9833260  10.1330309
  35.0069809  25.7945976   9.6596594  78.7319565  60.2909622  45.6576195
  79.2184830  59.6427498  46.1668816  77.8661423  60.3149033  46.0650826
  73.2465591   8.8444834  53.1673431  72.5623932   9.4987602  53.0256729
  73.8133469   8.9205523  52.3997459  11.1158838  49.8943825  81.8797607
  11.6220675  50.6074295  81.4904404  10.7180920  50.2811317  82.6597748
  32.3336449   7.4932303  36.9473839  31.7927513   6.9522862  36.3720169
  31.8296967   7.5581141  37.7585907  50.3890114  51.7518692  17.9217529
  50.2778549  51.1616631  17.1764126  49.7822914  52.4719391  17.7496338
   6.1647725  61.7048721  41.6790428   6.4055834  61.7890244  42.6016273
   5.2950225  61.3054466  41.6939964   2.7790530  63.7638092  80.4016418
   2.0671229  63.1776123  80.1452103   3.5217590  63.1820793  80.5635376
  18.3629017  42.0915947  24.5028286  18.4619484  42.7302055  23.7967148
  18.5632706  41.2495651  24.0940819  35.6885071  13.5583763  40.6073074
  34.9543304  13.5443411  39.9932899  35.2947655  13.7988300  41.4459877
  61.4448509  59.8351173  14.1872015  61.5207100  60.5912209  13.6051483
  62.3421669  59.5161476  14.2836819  76.6910248  64.7770996  71.1770782
  76.0858688  65.4449921  71.4994659  77.0577850  65.1525421  70.3766022
  19.8927422   9.9985857  11.2483082  20.1051807   9.0743752  11.1181688
  20.6799316  10.4667597  10.9701443  56.7970695  47.7539864  14.4549789
  56.6062355  47.9482956  15.3726158  56.3855286  48.4681549  13.9683294
  56.9159317  39.1833458   9.6824627  56.6889992  40.1124573   9.6438780
  57.7560425  39.1229057   9.2277174  54.3337212  12.5968580  26.9759102
  53.5891190  12.0421944  27.2086010  54.4170265  12.5003719  26.0272350
   3.9989853  44.4443550  68.5350037   4.6942825  44.7272339  67.9410553
   4.0108342  45.0894203  69.2420959  11.8687925  37.9780312  81.3153458
  12.0975275  38.5384178  80.5738068  12.3376303  37.1598854  81.1508560
  47.5211372  60.6441383  34.8358383  47.9115448  61.4641914  35.1380424
  47.2235222  60.2113647  35.6360664  32.4135551  41.1762047  22.9082890
  32.3312187  40.3039742  22.5227203  31.9866409  41.1020584  23.7617970
  46.5790710  25.5189552  85.8742752  46.6437302  24.6633530  86.2985306
  47.4601974  25.8868275  85.9414902   2.6902950  52.4371529   7.5985370
   2.4032097  51.5484085   7.3888979   2.0241239  53.0025101   7.2076201
  69.9206543  49.2996483  64.4626389  70.2306290  48.4590721  64.7996597
  70.1180038  49.2698174  63.5264740  62.9867325  19.6148720  21.9175453
  63.5108719  20.2389526  22.4195766  62.7950211  20.0687065  21.0968666
  78.6825943  12.9644089  38.1130791  79.4241333  13.5644026  38.1928406
  78.4033585  13.0486145  37.2013931  33.8712234  16.5933075  82.8695984
  33.0232887  16.5093861  82.4334869  34.2585144  15.7199650  82.8103333
  24.2205601  21.3539333  88.7026672  23.2947140  21.5519028  88.8435593
  24.2691422  21.0734692  87.7887650  20.0746689  27.3007126  60.6329651
  19.2770672  27.4221172  60.1178703  20.7129822  27.8879414  60.2280579
  61.5279884  19.0260067  32.2744789  61.0130692  18.9276657  31.4735947
  60.9081459  19.3715630  32.9168320  21.7724209  66.5679474  37.0917587
  22.6470795  66.2500534  37.3157005  21.5959702  66.1951370  36.2279778
   0.4797298   7.8208227  57.9842377   1.3027625   7.3562274  57.8325806
   0.6893197   8.7398663  57.8179169  16.7171650   0.5919816  11.1173277
  16.0949268  -0.0999267  10.8930178  16.1687660   1.3327143  11.3757935
  23.9963970   3.0097623  24.6441345  23.3111172   3.0628293  25.3103237
  24.6139545   2.3636284  24.9867210  83.3525848   7.2484694  73.6018143
  84.1411896   7.6784177  73.2709427  82.6323624   7.6895704  73.1513138
  70.1425552  11.4665852  12.0022449  69.4247589  10.8989763  11.7215099
  70.2851562  12.0563278  11.2619066  66.9832611  23.1133156  43.7329941
  66.5474930  23.1981773  42.8849754  66.8228531  23.9499569  44.1694946
  29.0775757  70.6949158  11.6696320  28.1545238  70.7841797  11.4324865
  29.0673275  70.5211792  12.6108780  69.5868149  39.1494370  24.9655113
  69.8723068  38.6517982  25.7317238  70.3952179  39.5039215  24.5953121
  14.4944706  60.1226654  58.8710403  13.9634972  59.4877129  58.3902779
  15.1580315  60.4053230  58.2417374  49.0563202  13.3088322  84.5085144
  48.7204399  12.5023966  84.1172562  49.2842255  13.0631876  85.4051437
  80.0799179  23.1258659  84.7975769  80.8259811  23.3414001  85.3571854
  79.3151474  23.2500057  85.3596649  46.4361877  59.7282257  43.1958618
  46.5493355  60.0966721  44.0720329  47.2797623  59.8691101  42.7660179
  60.0107613   4.1019568  26.0964909  60.2026978   4.2608709  27.0206871
  59.1525536   4.5025396  25.9577808  85.7874603  23.9900398  68.0192490
  85.1809845  24.6816254  67.7544327  85.2641449  23.4123840  68.5748520
  18.2315273  35.6363297  87.1760330  17.3996639  36.1021690  87.2610550
  17.9936275  34.7873917  86.8032837  24.8507671  66.8879089   1.0912253
  25.0209351  67.7544327   0.7218955  23.9304581  66.7182922   0.8899938
  60.9456444  58.4403229  25.9912968  61.4631577  59.0898895  25.5154037
  60.3961372  58.0341110  25.3210239  57.4633255   4.9948354  24.9477787
  57.4115257   5.7820559  25.4898434  56.8038254   4.4067712  25.3158455
  80.2488327  21.0292759  78.3666687  80.8881302  21.6104584  78.7786789
  79.4888000  21.5874271  78.2021942  37.0140038  32.8484154  10.1668901
  36.8474731  33.7900047  10.1232357  36.9196892  32.5463676   9.2635050
  19.6617050  62.5766640  58.8672295  18.9372368  62.0264435  59.1649475
  19.6380882  62.5079880  57.9127884   1.0657498  32.7879372  16.3705158
   0.7247155  32.8907928  15.4820633   1.3134233  31.8650398  16.4266472
  46.3464432   6.4184361  80.6220016  46.7954903   5.6399674  80.2924957
  45.6883812   6.0770488  81.2275162  79.2073975  48.8542900  84.2612610
  79.1740646  49.4923668  83.5485306  79.8887939  48.2359467  83.9974747
  78.7246170  21.3416405  53.8175354  78.0412292  21.4170513  54.4835129
  79.1089554  22.2169189  53.7685661   1.3547695  22.5560417  14.5500193
   0.7321064  22.4402466  15.2677336   1.2470977  21.7725582  14.0107679
  46.2067032  38.9050369   5.9827037  46.9262009  39.5298576   6.0730042
  46.5592613  38.2129936   5.4232302  25.4965286   4.0289721  82.2094879
  26.3726482   3.6803849  82.0447693  25.3401699   3.8550642  83.1376801
  21.5136089  29.5397453  20.8677940  21.7829914  29.4048996  21.7763557
  22.1270313  29.0130463  20.3554134  15.6555481  49.4847374  72.7421036
  16.3636971  49.6147690  72.1113510  15.9121466  50.0078888  73.5015106
  80.7622833  10.3441410  74.7298431  81.3583221   9.7494984  74.2744598
  81.3332443  11.0142851  75.1055298   5.0841217  15.9594765  57.7540855
   5.0922437  15.6947603  58.6739197   5.8873825  16.4683247  57.6441917
  60.5230064  51.5759811  44.1845131  61.2496605  51.1484184  44.6377220
  60.2242241  52.2506790  44.7942200  24.2742462  64.9784546  62.6410065
  24.8546104  64.3587570  62.1989822  24.0607643  64.5552902  63.4726257
   0.1989002  12.3194542  14.4893141   0.3254952  12.8118677  13.6783066
  -0.0557068  12.9801655  15.1334162  71.9552994  45.7447662  60.1461067
  72.1749268  46.3174324  60.8809853  72.7864532  45.3363953  59.9039574
  30.5540009  41.1525269  77.5467606  30.4227791  40.8454323  76.6497116
  29.9641781  41.9015541  77.6321945  63.7424965   9.1928434  27.0935574
  64.5276413   9.7088346  26.9104614  63.1301079   9.8179808  27.4813957
  48.3435707  12.3364325  31.7127934  48.8312721  11.7770395  32.3173256
  47.4252396  12.1198359  31.8739891   1.6150925  52.5290146  70.8914490
   1.2422324  53.3915558  70.7091522   1.1122550  52.2036552  71.6381302
   3.2420063  63.3815575  46.3218880   2.7555912  63.9235649  45.7007103
   2.5655451  62.9358063  46.8317261  24.0564823  70.0161285  36.2777061
  24.2008362  69.2605362  35.7080765  24.3872700  69.7386932  37.1320152
   8.6381998  16.3613148  83.1160202   8.4174738  15.4475698  82.9355164
   8.9582748  16.3567009  84.0181046  70.1007004  30.6451244  70.0973587
  69.8529816  29.9954967  69.4394455  69.3136520  30.7585220  70.6302032
   6.9303532  26.7818928  50.2296219   6.0405517  27.1094341  50.3607788
   6.8371897  25.8292370  50.2286835  19.4836044  54.8914452  54.5684891
  20.2144794  54.5162201  55.0596695  18.8574600  55.1619263  55.2400665
  80.4259567  55.1926804  64.4534683  79.6941833  55.4953804  63.9157791
  80.5148544  54.2646599  64.2364197   4.3972583  14.9579458  84.0406189
   5.1862044  14.6691799  84.4993286   4.0512023  15.6671009  84.5824509
   7.4377613  52.8226929   5.6811495   8.1653719  52.5088654   5.1441894
   6.8455205  53.2448654   5.0588517  74.1620407  19.7668915  83.2894592
  74.0970459  18.8707218  82.9594727  73.3935928  20.2106075  82.9305191
  83.4161377  11.5424852  15.4390774  84.2388306  11.8062754  15.0269747
  83.0251923  12.3627529  15.7399979  31.4979763  61.2938385  48.9534416
  31.6238270  61.0397530  49.8676834  31.2210083  62.2091408  48.9951820
  12.2341375  66.0477524  49.2090378  12.5794106  66.9365768  49.1252899
  12.9976892  65.5138931  49.4286194   6.1873579  45.7760124  72.3985138
   5.7187414  45.2243004  73.0248032   7.0835571  45.8100700  72.7330246
  58.6407509  57.3014030  17.1935978  57.7233429  57.2357407  17.4587135
  58.9284592  58.1484184  17.5342102   1.9534422   1.5266213  40.0240211
   1.6909541   1.9231018  39.1932755   1.1448214   1.4822446  40.5343094
  11.5794086  33.9861603  88.0110092  11.1602907  34.1582870  88.8541870
  12.1001873  34.7704086  87.8378754  82.3651733  62.8111267  63.8127441
  82.9695816  62.4313507  63.1750145  81.8068390  63.3927002  63.2967377
  10.5483685  61.4915924  74.8205338  10.7880907  61.9483643  74.0142288
  11.3214540  60.9716644  75.0401688  42.3496971  56.2622986  62.5587196
  42.7613182  56.9937820  63.0188599  43.0805550  55.7836113  62.1676521
  44.4811134  69.6863480  47.4035606  44.8340111  68.9901199  46.8495178
  43.5355682  69.6516037  47.2587547   0.4951851  14.2277260  22.3109055
   1.0313084  14.8655653  22.7820377  -0.1007764  14.7591352  21.7830181
  43.6405907  18.9854908  78.4209595  42.9589996  19.5709229  78.7510223
  44.3826027  19.1262112  79.0090485  74.6266098  58.2143173   7.2426343
  75.4790421  58.6229134   7.3931012  74.0121384  58.7506790   7.7436037
  63.9596939  23.9203186  23.3877029  64.8370972  23.9334621  23.0053196
  63.8282242  24.8097324  23.7161674  73.0295105   5.2075915  44.5496521
  72.3387985   4.5629892  44.7033730  72.9692078   5.4049706  43.6149673
  45.2246552  53.9045525   8.5522165  44.3469315  54.2751465   8.4600859
  45.1307449  52.9939651   8.2724962  18.9902439  13.7881746  79.6359711
  19.8975563  13.5162573  79.4978485  18.8047924  13.5509682  80.5445786
  54.3642960  43.1692886  32.4976349  54.9026604  43.2822227  33.2809906
  54.3242950  44.0420723  32.1066360  18.6500549  52.7650223  20.8693161
  18.6510849  52.2946815  21.7029877  19.5439816  53.0952759  20.7795353
  76.5190582  37.1618805  58.3319130  75.7681808  36.8244820  57.8434639
  76.2580643  37.0927467  59.2502480  61.2236290  21.1905537  62.1441154
  60.7996941  20.5612202  62.7275963  61.9967003  21.4821548  62.6273994
   6.0735765  22.8249817   6.2716055   5.3800383  23.0518646   5.6521211
   6.8485737  23.2786007   5.9401836   0.3653930  22.2198944  46.5861816
  -0.0005183  21.9885674  45.7324677   0.7927664  21.4185944  46.8886719
   4.3861747   2.9018137  52.5957642   4.3138213   3.7247276  52.1122284
   3.8289292   2.2908995  52.1135902  59.0057411  58.9143028  88.6505966
  58.6618156  59.1205254  87.7814484  59.7890358  58.3911629  88.4802933
  34.2991905  50.8326759  72.7463379  34.3987465  51.1824684  73.6317596
  33.3589478  50.8816566  72.5737839  58.2788544  63.4321785   8.8663197
  58.7410774  63.5548553   8.0371447  58.8323784  63.8661270   9.5155764
  11.6411209  63.6292610  77.4800415  10.7971020  63.1837883  77.4064331
  11.9767466  63.3664055  78.3370667  86.3553314  61.9219284  27.7563953
  87.3018570  61.8328705  27.8677006  86.1264496  61.2548218  27.1092377
  69.3058472  32.2851219  53.6910858  68.4594650  31.8794746  53.8790283
  69.7437668  31.6659718  53.1070404  36.0814972  44.2734489  82.4215546
  36.5462723  43.6861267  83.0176010  35.3625641  44.6266785  82.9455719
  47.3214836   5.8196735  19.0474281  46.5902023   6.3382149  19.3829498
  47.5578537   6.2444386  18.2228470  11.5048828  17.0812263  35.3813438
  11.9973164  17.4284611  36.1250954  10.7229605  17.6313057  35.3339882
  81.7839355  30.6820412  25.5689449  81.9024658  29.9607029  26.1868877
  82.4017868  31.3520355  25.8615303  32.5073929  52.4785767   7.7453690
  32.9186325  51.6187477   7.6570230  32.1508179  52.6639328   6.8766160
  84.2350082  64.5119400  65.5913162  85.0679626  64.6553650  65.1420364
  83.5764694  64.5693741  64.8990250  81.8774490  31.0837650  45.8534927
  82.0806274  30.1587048  45.9921036  82.7318649  31.5057735  45.7634773
  45.7200012  28.7086353   9.2115631  44.9589195  28.1294689   9.2509537
  46.4701958  28.1270294   9.3347492  66.1193924  17.4019890   5.9253259
  65.7580795  16.6266155   5.4958129  66.9946518  17.1345043   6.2056904
  25.8790302  47.3940697  31.6901779  26.1792717  47.2842674  30.7879429
  24.9997292  47.0159111  31.6976948  37.7119904  12.6448689  74.1364288
  36.8131752  12.8053474  73.8490143  37.8684349  11.7233114  73.9303055
  39.0801086  71.7719879  67.5441666  40.0122108  71.7287521  67.3307495
  38.7297096  70.9281082  67.2589951  67.7340775  17.6580772  24.2125664
  68.6741180  17.6871834  24.0345020  67.4117279  16.9313164  23.6795177
  37.7151108  34.3122520  17.3035851  37.6308861  34.9184875  16.5676384
  38.6224136  34.0100365  17.2623215  38.7739029   3.1252809  51.9884644
  38.3889236   2.6289990  52.7107697  39.7047806   3.1797662  52.2046432
  22.8809452  62.9189873  23.8976231  23.3609791  63.7377167  24.0220585
  22.0181370  63.0872765  24.2763996  19.9733467  26.2182159  86.2908630
  19.7412663  26.3640900  85.3737564  20.3384075  27.0540085  86.5814056
  76.9876175  46.0888634  62.0505447  77.7528839  45.9566612  62.6101227
  76.6463165  45.2074547  61.8993568  52.5292549  55.0706596  83.7523956
  52.2313919  55.9415855  84.0150604  52.7151794  54.6222076  84.5773544
  25.3599834  58.1997108   3.0463135  25.8280926  58.6987572   2.3769422
  25.9325142  57.4561386   3.2348342  25.8076878  23.2035141  57.0135422
  25.3292599  22.6976948  56.3566704  26.5737915  23.5378418  56.5471306
  68.2958984  64.8726196  30.6914711  68.5440140  64.0383453  31.0897942
  69.0368042  65.0994415  30.1294727  69.7813339  39.3257446  17.2554379
  70.3594513  38.5695419  17.3562965  68.8999405  38.9703293  17.3696594
  47.4947662   3.7256112   1.3757238  48.2996178   3.8677573   1.8739650
  46.8233147   4.2015686   1.8644453  65.9583511  67.9277573  69.0866928
  66.2438202  67.7093811  68.1995239  65.0709457  68.2689133  68.9755936
   6.8521214  71.0955048  12.7936211   7.7846017  71.0322189  13.0002766
   6.6283331  70.2381821  12.4314737  28.2702827  10.8324203  38.0695343
  27.6173229  10.1823301  38.3288727  28.0591011  11.0334883  37.1578293
   2.4689100  54.1622963  42.8442345   3.0354078  53.4247169  42.6177750
   2.2086754  53.9951324  43.7500839   8.6000347   2.5911374  80.7938919
   8.2814884   3.3701718  81.2498169   7.8063297   2.1141136  80.5515823
  59.1308746  24.9143867  14.3742933  58.3653908  25.1190357  14.9113083
  58.8521957  24.1771660  13.8310843  66.2031631  44.1374207  84.8306503
  66.7255936  44.1905212  84.0303497  66.0175247  45.0489006  85.0564194
  66.9966583  69.6282196  65.8647537  66.5854340  70.0435791  66.6227798
  67.3576508  70.3564148  65.3591309  30.6353474   5.8136339   7.0667105
  31.3449707   5.6354017   6.4495397  30.4226799   4.9585257   7.4406004
  51.7314072  19.4644260   7.3056016  52.6026115  19.7423096   7.0227327
  51.2461357  19.3318386   6.4912524   3.1259573  52.1513138  10.2219181
   2.9494734  53.0376930  10.5372248   2.8931017  52.1764488   9.2938137
   3.1034729   2.8355505  60.2667160   2.9963651   3.5198903  60.9273491
   2.5669687   2.1094692  60.5848351  36.0588570  15.4454327  73.0270233
  35.6216965  14.5942078  73.0038147  36.1348915  15.7007828  72.1076508
  13.8733835  10.2624235  39.7356834  13.3939905  10.7496433  39.0655861
  14.3023481   9.5539474  39.2558060  52.7978096  55.8980484   1.0624151
  53.4311943  55.8704987   0.3452706  51.9557457  55.7156944   0.6453919
  64.7643967   6.9000401  27.6092930  64.4512939   7.7415400  27.2775192
  65.5255356   7.1222181  28.1455173  79.2462921  22.9015961  75.1941833
  78.8795471  22.7220440  76.0599213  79.5006638  23.8237438  75.2283783
   1.1338015  34.0539589  73.7725830   1.9579815  34.2701035  74.2087479
   0.4770178  34.5822372  74.2262268  64.7142792  36.4709816  25.3597775
  64.5845566  37.1914635  25.9764748  64.0734100  36.6304665  24.6668968
  13.9042826   7.5973363  18.1135426  13.8594236   6.9728804  17.3894730
  14.4046669   7.1427717  18.7911987   5.8995314  16.0447178  54.0957031
   5.3824224  16.4137554  54.8116913   6.7370257  15.8154526  54.4985352
  16.7345104  27.8236656  25.2357540  17.3464146  28.2141571  25.8597107
  16.9277840  28.2597504  24.4058704  21.4237900   1.0537215  36.8343506
  20.9801598   1.6693963  36.2509384  20.7539444   0.8005900  37.4695396
  52.2626534  35.8499680  34.4115067  51.7212143  36.6233139  34.2533607
  51.8668900  35.4329338  35.1768112  72.4917374  21.4819012  10.4532213
  72.3585358  22.4296799  10.4389553  71.6088638  21.1152039  10.4053488
  60.9875832   9.3424492  69.7387543  61.7605667   9.4676323  69.1882477
  60.2814369   9.1536226  69.1207504   7.2252121   8.8361616  78.7658310
   7.5493102   9.6993856  78.5088501   6.7225399   8.5340948  78.0093231
   2.1542001  51.1573486  68.0176926   2.6633716  51.9306908  68.2604141
   1.6985974  50.9084549  68.8218765  65.7453537  29.3689175   3.1482394
  65.2433395  28.7461662   2.6225073  65.1031570  29.7483196   3.7481282
  17.0151081   1.2966070  73.7019653  16.0690193   1.3992485  73.8049850
  17.2219582   1.7752515  72.8992615  28.7480946  63.4118958  72.1014557
  28.2442188  64.0356750  71.5787277  29.6045246  63.8258018  72.2084198
   5.0593157   1.4479322  47.0431786   4.9511476   1.4074812  47.9933891
   4.8260570   0.5711742  46.7380295  51.8259048  46.8346710  86.9499512
  51.7063332  47.0298996  86.0205307  52.1244469  45.9253807  86.9672089
  83.6957932  26.6106529  28.5525112  83.6422653  25.7293282  28.1828728
  84.0558243  26.4809380  29.4298840  24.4275913  23.0491066  26.2306442
  24.2614021  22.9895153  27.1714230  25.3462620  23.3100014  26.1657600
   7.9652505  16.4095554  42.7375374   7.3439980  15.6894121  42.8455734
   7.8607244  16.9368954  43.5295067  38.3982239  60.1129036  25.5121937
  37.4812737  59.8389587  25.4924278  38.8341827  59.4517479  26.0498219
  68.2394028  46.4956017  16.3346596  68.9704285  47.0656242  16.5731907
  68.3169479  45.7466393  16.9256535  38.8346901  64.9734650   1.4355409
  38.7964249  64.0332794   1.2600074  38.6493988  65.0501099   2.3715024
  47.2962265  53.2534981  79.8304749  47.4288940  52.3315887  80.0512009
  48.0434837  53.4768524  79.2755432  39.8061371  49.7714539  14.7235537
  39.2144623  49.0411644  14.9047337  40.6208954  49.5352859  15.1669817
  39.2038078  59.9367294  67.3865662  39.2187843  59.0662422  66.9887466
  39.9272537  59.9261436  68.0132599  61.5042648  32.7854805  36.4341164
  61.1630669  32.0589638  35.9125862  62.4554749  32.6937866  36.3791351
  76.7176132  16.8106270  46.2505760  76.0640335  16.2743187  45.8017502
  76.6043777  16.6003685  47.1775055  47.3561249  33.8587570   2.4362752
  47.8600502  34.6582985   2.2845509  47.6947937  33.2364273   1.7926577
  63.9009132   3.1917655  68.3527451  63.9900131   2.2961485  68.6785660
  64.6792984   3.3287363  67.8127594  10.9463882  58.7621307  70.8083878
  10.5293016  59.2089539  71.5450134  10.2895947  58.7833557  70.1123962
  64.4875565  20.6506824  25.5126667  65.1812439  20.9873924  26.0798130
  64.9154053  20.5114002  24.6678123  13.1817780  42.5450287  16.1807194
  13.3778782  43.2800789  15.5997906  13.5181427  41.7776260  15.7179174
  57.6276932  55.4175262   8.7964449  57.6070900  55.8800926   9.6342020
  56.7944145  54.9477692   8.7616701  79.1983795  44.4897079  80.6742935
  79.8232574  44.0899811  80.0693359  79.6342850  45.2862473  80.9772034
  30.2731133  15.9162321   0.8605081  30.9893322  16.1082382   0.2552013
  30.3133965  16.6184978   1.5096865  63.3274193  33.7440948  42.8561440
  63.3074989  33.0157242  42.2354088  63.0704041  33.3539124  43.6915703
  80.6101227  50.0663033   6.6543298  80.3547211  49.9771576   5.7361507
  79.8358383  49.7924576   7.1459875  83.3364334  23.3201351  41.0113258
  82.5479889  23.8628788  41.0149002  83.8330765  23.6141682  41.7749519
  47.6683044  17.2164631  10.5063934  47.6344223  16.6496487   9.7358065
  47.5362091  18.0991364  10.1604548  57.3110809  32.4684181  27.6733685
  57.9499741  32.5600891  26.9665108  57.3158417  33.3190269  28.1123199
  63.2950974  35.0129623  49.4850235  62.6752739  35.5880356  49.9337349
  63.2708473  34.1975060  49.9856949   8.5268211  39.4940376  62.1427612
   7.7485847  40.0498734  62.1830673   8.6446161  39.1814537  63.0397797
  59.9243698  69.0938873  53.2743225  59.7203331  69.6479721  54.0277061
  59.6514015  68.2162247  53.5415726  17.9435253   1.4663457  64.6312637
  17.3830986   0.6903603  64.6305847  18.5617447   1.3159277  63.9161339
   5.1471658  30.4365616  19.6212940   4.4223709  30.8513298  20.0891304
   4.9120722  29.5092373  19.5891685  41.2713318  16.5252323   0.5642744
  41.8913689  16.5900383   1.2906256  40.8056602  17.3614922   0.5715402
  35.9501801  20.9774933   0.8471338  35.5963707  21.8539371   0.6958147
  35.1776924  20.4183121   0.9296325  78.6484146  56.4760551  62.5878334
  78.1156387  55.8278351  62.1272011  79.1056061  56.9483948  61.8920555
  53.9984398  37.2745857  81.1969223  53.5650024  36.4273605  81.0941010
  54.8371544  37.1706505  80.7474976  15.0255117  46.1260376  58.8856964
  14.0747910  46.2369118  58.8773766  15.1804390  45.3466873  58.3519897
  61.7978897   9.0356359  13.6128225  61.5343170   9.7396107  14.2054262
  62.7494659   8.9885588  13.7051144  20.2523804  33.6132393  82.4727783
  20.2680283  33.9724846  81.5856857  20.8001785  32.8298264  82.4236221
  80.2449493  21.1968613  33.7756233  81.0875549  21.4709435  33.4135170
  80.4737091  20.6205215  34.5048256  44.5619087  52.2756882  76.2080002
  44.4901619  53.0269356  76.7968292  43.7031860  51.8549728  76.2507858
  58.0820160  62.8038101  68.0667419  57.3658485  62.8874207  67.4371796
  58.1561050  63.6724434  68.4619827  81.6352997  62.9975548  17.4251366
  80.9959564  63.0123672  18.1373539  82.4678574  62.8012047  17.8546963
   3.5272448  39.9716492  64.5657196   2.5707800  40.0007172  64.5894165
   3.7728128  40.6646347  63.9527740  58.8704338   5.9626975  71.0630188
  57.9386826   5.9576654  71.2822189  58.9071121   6.3340507  70.1815567
  28.4407921   6.8484511  31.0776272  27.6924400   6.5604572  31.6003723
  28.4118977   7.8040819  31.1241741  44.3277817  49.8338928  46.5269852
  43.9415359  49.3691673  45.7846375  45.2552452  49.5986481  46.5005226
  21.0627670  15.1686468  68.6767654  21.6822910  15.2075500  69.4054031
  20.5506496  15.9735765  68.7545700  69.2398148  32.9878044  36.0906868
  69.0882645  32.8776054  37.0293655  69.8179398  33.7481995  36.0290527
  86.4162674  41.8527718  32.1533318  87.0914154  41.8007545  32.8298683
  86.7289505  42.5309486  31.5545559  49.6835251   5.5642786  51.6786194
  49.8327484   6.1359115  50.9254951  50.5380363   5.1697187  51.8528671
  46.7574348  51.3962860  21.9130325  47.5613899  51.9099236  21.9909229
  46.5290909  51.1706009  22.8147831  20.6730938  17.7877369  87.3757935
  20.1841984  17.3790359  86.6615219  21.5391064  17.3819218  87.3362122
  26.2207394  43.7703094   7.1740217  25.9148884  43.2314873   6.4443946
  27.1716080  43.6604385   7.1707826  52.1623993  62.0946999  27.6006279
  51.7965431  61.4327621  27.0139275  52.6384163  61.5920448  28.2616711
  24.4185772  10.7939138  74.4595261  24.8161907   9.9238482  74.4260559
  23.8510189  10.8276644  73.6894760  54.8721924  56.0375099   5.9056182
  55.7336731  55.7515793   5.6017594  54.3443718  56.0953979   5.1091986
  69.0479736  12.4587994   2.8542972  69.5289536  12.9716454   3.5038180
  69.6824265  12.3026752   2.1547771  62.5395699  66.6843491  74.5477982
  61.7789803  66.1395035  74.3456116  63.2460098  66.0589981  74.7093887
  31.1602230  64.6460190  34.9711266  31.6024799  64.9263916  35.7723961
  31.2417717  63.6923065  34.9737091  78.6075058  40.5007286  49.3557358
  78.5807419  39.5837669  49.6290512  77.9596863  40.5603790  48.6535988
  84.9694595  16.3922367  24.4688587  84.8542633  16.4834728  25.4147129
  85.5807724  15.6621561  24.3713493  17.4749813  40.7382507  48.3357239
  17.1747684  41.6105843  48.0805092  18.4246559  40.7683411  48.2197647
  52.8191338  33.4241371  72.4112625  53.2597122  33.0248680  71.6611252
  53.3235245  34.2176018  72.5907974  66.3288727  53.8773003  43.6358070
  66.7382660  54.1675186  44.4509163  66.6190491  54.5136032  42.9822426
  48.4678955  59.9583015  11.6164808  48.5521927  60.5021858  12.3996267
  49.2692108  59.4349632  11.6009369  15.7993422  62.5065536   3.9865553
  16.3666611  63.0924034   4.4877176  15.6308565  61.7727470   4.5776296
  13.8085680  58.4076462  70.8734131  12.8690405  58.3823204  70.6920929
  13.9232597  57.8258171  71.6247864  19.2211170  71.0917892  73.2124939
  18.5067978  71.7252502  73.2811432  18.8495941  70.3651276  72.7123337
  58.7812119  58.5383148  31.5945740  59.2612801  57.7102280  31.5885067
  58.9038849  58.8927383  30.7139111  78.4056473  26.9266548  70.9105225
  78.8933868  27.2911072  71.6491165  77.4876404  27.0940876  71.1237259
   7.5608659  26.5054436  17.0284405   6.6569600  26.8194942  17.0047894
   7.7010345  26.1139412  16.1662846  25.1534214  37.4322472  58.7320747
  25.8696117  37.7408752  59.2870979  25.3716373  37.7552223  57.8578339
  47.9384727  68.4740067  41.5378456  47.3308830  68.4878387  40.7983360
  47.4232368  68.1239548  42.2646370  10.0046711  52.1863251   4.7717495
  10.2684050  52.0697289   3.8590167  10.5847588  52.8719101   5.1029658
  12.2271833  67.2275085  88.4919205  11.5474415  66.5551529  88.5378952
  11.7470026  68.0553131  88.5119781  70.6145020  46.0612602  25.2253666
  71.1922302  46.3620415  24.5239429  69.7550354  46.4146309  24.9958477
  78.1602859  40.8815269  42.1725388  78.9340439  40.3443985  42.3428955
  78.4122925  41.4375458  41.4352684  17.6319084  57.4223061   8.3561859
  17.9802666  57.8983879   9.1099911  16.8701210  56.9551048   8.6991663
  72.8152924  63.5629234  70.3918915  72.7127304  62.8413124  71.0123672
  72.6566315  64.3505478  70.9121857  75.1002045   2.9354627  67.2187424
  74.7711029   2.1677849  66.7512054  75.9913864   3.0525138  66.8896103
  27.3896179  67.1063538  36.0060272  27.5119076  67.3563766  36.9218674
  27.5021458  66.1558151  36.0001678  72.8616257  66.6733780  68.7655411
  73.2437973  66.6703873  67.8879547  71.9627686  66.3706970  68.6363754
  48.9602051  66.6881714  85.4690323  48.3305359  66.8032837  86.1807175
  48.6024780  65.9703827  84.9464951  72.8472824  32.5559425  80.6304092
  73.2384415  33.1686249  81.2531891  72.1705322  32.1027145  81.1332321
  45.0788651   1.2898560  85.3983536  45.7985039   1.2818706  84.7672501
  45.0938683   0.4164770  85.7897797   0.1622999  41.8507118  82.1851501
   0.6431068  42.4378014  81.6017303   0.7993694  41.1783066  82.4264984
  86.1839981  68.3141174  84.2422028  86.0185165  67.9995117  83.3534546
  85.9225388  69.2347107  84.2229691  85.1407700  22.9420681  11.3221254
  85.5511932  23.0964851  10.4712811  84.2722626  22.5997887  11.1105127
  15.8578405  19.0185585  38.5465393  16.6857319  18.7564373  38.9491768
  16.1098576  19.3916283  37.7018280  52.8849716   1.4362347  61.7889519
  52.3390846   1.2252547  62.5463982  52.5626259   2.2868094  61.4908829
   3.1725762  54.8505783  55.9893417   3.5103748  54.6272774  55.1220131
   2.3090482  55.2273941  55.8203392  58.5251732  68.0757065   8.8878956
  58.5544090  67.2944412   9.4401560  59.4441719  68.2940063   8.7329311
  71.4733810  13.5035877  10.4053993  71.2104263  13.0011330   9.6342773
  72.3009262  13.1076155  10.6785278  53.2468185  61.8198280  19.4070129
  52.9954414  62.0175362  18.5048199  53.6997757  60.9784775  19.3505459
  73.4410782   5.7003875  12.1803312  73.0033569   6.1936722  12.8740883
  72.7941589   5.6513810  11.4765396  10.7614861  69.3543167  33.5189743
  10.1852503  68.6849594  33.8879547  10.2607985  70.1670227  33.5900230
  15.4572849  71.7029877  31.2692394  15.4727163  70.9280701  30.7075424
  15.2996712  71.3585129  32.1482925  60.9117393   5.1326070  28.8715439
  61.8446884   5.1109467  29.0845432  60.5064087   5.5775719  29.6158180
  56.0886421  71.0513763  48.9666443  55.8863220  71.5485458  49.7591858
  55.2981720  71.1217346  48.4314461  79.9814758  19.5669403   7.2374620
  80.5493851  19.4406624   6.4773545  79.1241531  19.7721024   6.8644500
   6.3300285  52.1028061  34.0467072   5.6855907  52.7990990  33.9197922
   7.1563888  52.5643539  34.1893005  79.6281281  71.2688446  43.3749390
  79.6533661  70.8966599  44.2564545  79.6565018  70.5091553  42.7933006
  37.4414406  53.5849037  64.1069794  37.6007156  52.8932495  64.7492218
  38.3035660  53.7682838  63.7336922  22.2247486  51.7661591  38.7878342
  21.5598869  51.0776749  38.7743759  22.6121063  51.7080154  39.6612206
  66.3482132  48.3369980  53.4930801  67.2931595  48.4715004  53.4209404
  65.9677429  48.9909859  52.9067535  15.9431925  21.1264286  80.3275070
  16.6480465  21.4277840  79.7542725  15.2404900  20.8717651  79.7295227
   8.6128435   3.2892756  16.6508751   8.4265127   3.8517690  15.8991356
   8.4178858   2.4044669  16.3421097  11.2495203   2.3997445  84.4486008
  11.0020218   2.5529220  85.3604736  10.7988873   1.5893689  84.2109985
  10.5531387  56.3995972  27.0858746  10.7362242  57.2587624  27.4660645
  10.1819658  55.8923874  27.8078156  80.9587250  68.3902435  49.6696548
  80.6815796  69.0323334  50.3232155  81.0384521  68.8928223  48.8589211
  30.5488834   8.8129044  28.8625259  31.1344204   9.5592985  28.7349606
  29.7810860   9.1825838  29.2984829   1.6669438  20.8663521  22.2608471
   2.1618125  21.6815395  22.3433418   2.3360922  20.1832542  22.2178230
  48.3396187  57.4962044  57.9760399  49.1971703  57.2149277  57.6571045
  48.1988869  58.3488770  57.5644875   5.7343259  55.3828659  57.6358376
   6.3367252  56.1057510  57.8112946   5.5141382  55.4742126  56.7087975
  84.7705002  47.6687050  49.7212563  85.5348816  47.4395332  50.2498703
  84.0996323  47.9071693  50.3610229  71.6999435  39.7576866  32.1624184
  70.7620544  39.6266861  32.3017998  71.9635696  40.3602638  32.8578606
  77.2752838  19.6504726  87.6358490  77.6914825  18.8066902  87.8120422
  77.5733109  19.8856983  86.7571640   1.4330351  59.1864815  20.6360111
   0.8005991  58.9456787  21.3129673   2.1426060  59.6165848  21.1132450
   9.5488710  33.8568001  58.6716652  10.2466812  33.2316437  58.8678093
   8.8959484  33.3449326  58.1942596   2.8814380  27.3211575  54.2468987
   3.1545613  27.2926216  53.3299332   3.6975465  27.4217796  54.7368698
  78.9909897  10.4325418  79.7661514  79.6850052  10.0492878  79.2297821
  79.3320999  10.3977280  80.6598282  63.4558220  47.2275047  31.0931568
  62.8878212  46.5167542  31.3905525  64.3124237  46.8166313  30.9763451
   6.0123930  61.8909187  64.1315536   6.5900140  61.4278831  64.7383347
   5.2047758  62.0276070  64.6268387   3.4004679  66.1174164  77.8627853
   3.5329444  66.6078873  78.6740341   2.6193256  65.5891647  78.0271225
  67.7856598  46.9196587  25.2865639  67.0505753  47.5242195  25.1846313
  68.0888748  47.0603523  26.1835022  30.9537716  18.6962128  19.2485828
  30.8133087  18.9437218  20.1624985  30.7561283  19.4904575  18.7522507
  83.5675049  35.9346237  49.5601997  83.0598831  35.3789902  50.1516533
  84.4539261  35.5751228  49.5956345  13.8190422  48.2416611  78.4308853
  13.9408159  48.2986374  77.4831772  14.4721918  47.6037064  78.7183685
   7.4773641  29.2742329  12.6994286   8.2500420  29.1635513  13.2534599
   7.3693733  30.2224560  12.6256638  78.5152359  36.4665680  27.3956432
  78.3666382  37.0779877  28.1169720  78.6553345  37.0265083  26.6320515
  20.1770134   7.0413041  63.7650795  20.9154530   7.3925591  64.2626343
  19.9965210   6.1933436  64.1708069  48.1628761   8.0786905  84.3589478
  48.5822144   7.2310390  84.2110519  47.8518982   8.0375223  85.2632904
  72.4378891  25.0788746  48.7803192  71.7488480  25.7049503  49.0027771
  72.9490051  24.9894066  49.5846748   6.1143274  27.3458958  72.2660294
   6.6663795  26.8309021  72.8544617   6.1260066  26.8608208  71.4409256
  75.7908249  21.7225208  49.4449272  76.5271378  22.1684189  49.8635483
  75.9001999  21.9040833  48.5114899  61.3502922  51.3757973  52.0826874
  60.4391899  51.1670723  52.2889938  61.5994377  50.7316132  51.4199753
  11.0854044  31.7657719  59.1889610  11.4491310  31.8120956  60.0731506
  10.7565479  30.8701477  59.1118774  18.8424015  47.7673111  68.0764008
  19.7791023  47.8482056  68.2560730  18.6117096  46.8949776  68.3958435
  19.5944633  43.3039207  72.1272430  20.5461769  43.3877144  72.0684891
  19.2617207  43.8450928  71.4112473  64.1652985   9.3343821  82.0931931
  63.3799438   8.7882280  82.1273575  64.6847305   8.9626312  81.3802948
  38.8458672  53.4589272  44.1708412  37.8908501  53.5223999  44.1589279
  39.0988998  53.8140793  45.0229416  58.9452629   2.4325132  38.2149506
  59.0337830   1.5182505  38.4842453  58.7041626   2.8961482  39.0169144
  16.5177345  17.9204597  31.0682583  16.0127258  17.1105042  31.1401653
  17.1423016  17.7514706  30.3628578  38.0839195  42.2697296  23.6989670
  37.1761360  42.4751587  23.9224873  38.1842308  41.3461456  23.9295254
  70.7368622  66.2007523  20.2755356  70.6057053  67.0375137  20.7214718
  69.9734344  65.6772537  20.5191803   7.9553766  29.8647385  19.2898674
   8.4655476  30.5717144  19.6850166   7.0445561  30.1410923  19.3911896
  22.7575417  48.5520439  23.1392574  22.9904480  48.9433517  23.9811993
  21.8010216  48.5170097  23.1478443  12.8833284   5.5456510  76.3756104
  12.4232521   6.3697329  76.5351486  13.1027584   5.2208967  77.2488937
   3.5534511  23.6213436  76.7211380   4.2768207  24.0918903  76.3069534
   3.9792275  22.9643574  77.2718811  61.7852097  48.5115662  40.3655663
  60.8448257  48.4446449  40.5311966  61.8630142  49.1939774  39.6988602
  60.1067200  20.8195190  27.2401352  60.0919571  21.7070065  27.5984383
  59.3024101  20.7557449  26.7251110  61.4183044  65.7079239  24.8641167
  60.5640144  65.3980179  25.1647472  61.2301598  66.5337448  24.4181881
  84.4102097  70.5733414  47.0822487  84.7914963  71.2840576  47.5977440
  83.7566986  71.0021286  46.5297089  27.7924900  71.7436295  37.9593506
  27.5435390  71.0740891  38.5965080  28.7245598  71.8916473  38.1192513
  79.9841995  37.2041092  65.7702713  79.6872711  37.0932350  66.6734695
  79.2452316  36.9104118  65.2374420  62.1429901  17.9752045  69.9012527
  62.0607758  17.0357189  70.0650787  62.7353783  18.2867203  70.5855484
  82.4319687   0.5404165  42.5283241  81.6862717   1.0180700  42.8916512
  82.5053253   0.8592152  41.6287575  75.5301590  60.4222374  13.5960007
  74.9673233  60.2942352  12.8324127  75.4191132  59.6236839  14.1119566
  81.2461014  25.4679203  34.0827713  80.5272293  26.0503483  34.3281937
  81.5335999  25.0807323  34.9096069  82.1118927  31.6884651  66.9195480
  82.2569122  32.4392052  67.4953918  82.2338104  30.9258175  67.4850006
  57.5942688   4.0041270  28.6090622  58.2381554   4.7106471  28.5593681
  57.9413719   3.4101071  29.2745609  70.5958405  26.5025082  36.9138985
  70.9491119  25.9101696  36.2501450  69.8045807  26.8645535  36.5150795
  47.9895134  14.4570818  87.7868652  48.4690094  13.6769505  87.5080948
  47.3459511  14.6031551  87.0935287  44.6868629  69.2042542  19.1753139
  44.3857574  68.5708694  18.5238647  45.0656204  68.6689606  19.8726215
  65.4271164   4.7236738   7.5090337  65.8290253   4.8592968   6.6509490
  64.9250107   5.5230756   7.6673822  53.2303925  70.6742249  48.3327866
  53.4518890  70.9384918  49.2257233  53.0988464  69.7277603  48.3887749
  69.0714722  19.1810322  12.1175528  69.1818237  20.0429688  12.5189486
  69.8842468  19.0366306  11.6330147  18.4492340   4.4098458  25.6550865
  17.8909035   3.8041990  25.1675510  18.9020195   4.9147387  24.9795856
  36.9575729  13.8193502  18.1111221  36.5036888  14.3453026  17.4526424
  36.2570763  13.4630699  18.6575623  31.9368095  49.5683746  84.4239349
  32.8036118  49.5123749  84.8261261  32.1117249  49.6219406  83.4843826
  83.6182175  35.9537582   1.4788413  84.2682724  35.6533623   0.8436838
  84.0948868  35.9955673   2.3078616  23.1304569  33.2768593   5.2698960
  24.0672302  33.0906563   5.3332682  22.7459469  32.8303871   6.0242491
  57.3408470  11.8111086  15.8697691  56.9230537  11.4191694  16.6366215
  57.3233337  11.1198034  15.2079372  10.0559492  11.4902840  71.4572067
  10.9833155  11.5098619  71.2208939   9.6177216  11.1457872  70.6790543
   8.3434029   6.9597406  37.6559448   9.2494984   7.2106733  37.8355446
   8.2390223   7.0969114  36.7143936  43.5599251   0.6712021  48.5453453
  43.7654724  -0.2236866  48.2748718  44.1956902   0.8652511  49.2340965
  42.7280731  24.2194786   0.7760687  43.1996880  24.3008156   1.6050417
  42.4066467  25.1028709   0.5956981   5.9745698   6.9961014  51.5719948
   6.0517740   7.1453476  52.5143318   6.8739791   7.0422683  51.2477036
  82.8303680  49.4511795  66.6774826  82.3317871  48.9444580  67.3184891
  83.7148514  49.4932098  67.0410156   5.6812510  16.4713478   2.7427723
   4.9067235  16.2988720   2.2074299   6.2653670  15.7345772   2.5632997
  15.5440474  60.8731575  78.3424072  15.2967796  60.0496025  78.7629318
  16.3598156  61.1270103  78.7740402  20.9094753  61.1396370  82.2870636
  21.6160278  60.5932503  81.9428635  20.7618790  61.7968178  81.6069489
  73.2976456  60.7592468  71.4120255  73.9608002  60.3697891  70.8421249
  72.4866638  60.7071419  70.9062424  56.8853188  62.0868034  74.6197815
  56.8641739  61.4439888  75.3287125  56.5287819  62.8850441  75.0095596
  13.5278263  55.4299088  69.2852631  14.2259836  55.1052933  69.8539734
  13.8411760  56.2828217  68.9842987  29.3701954  16.2036018  87.0922318
  29.3432350  17.1489639  87.2398605  28.5313644  15.8851042  87.4256363
  25.9952984  14.0894785  67.5686340  25.6242981  14.9512901  67.3792343
  25.2975025  13.6245203  68.0302887  84.0902100   5.6225719  10.5238113
  84.0809937   5.0191593   9.7808170  84.6138382   5.1756306  11.1888590
  73.6650085  59.6621056  80.6698380  74.5223846  59.2454758  80.5828857
  73.6054077  60.2473221  79.9147186  11.6163826  37.5942459   6.9766893
  12.4769602  37.1854744   6.8842597  11.1913185  37.1014977   7.6786509
  10.6898441  54.9547691  59.9241295  10.0756483  55.4165993  59.3534203
  11.1123219  54.3137436  59.3524437  17.9290524  71.0434189  32.3653488
  18.5726719  71.4155884  31.7624607  17.0935631  71.4160919  32.0837402
  82.6839600  48.6863480  39.8534279  82.2082062  49.4741287  40.1166725
  83.6043930  48.9489937  39.8600082  63.3199234  11.8743277  33.5357513
  63.0908012  12.1996222  32.6651649  63.6634331  12.6406784  33.9950333
  55.6705055   8.8159437  81.4989471  56.0806580   8.6832027  80.6443253
  54.7365341   8.8982410  81.3061905  62.2740135  10.4075451  11.0578365
  61.8144646  10.5070200  10.2240791  61.7514420   9.7703686  11.5448208
  27.1704235   4.6668096  14.2427444  27.5562897   3.8139699  14.0427341
  27.5829678   4.9292998  15.0656281  64.1052475  28.0198936  79.9235306
  64.2479935  28.7916870  80.4714279  63.5235977  27.4630337  80.4410477
   8.6172266   9.2994022  45.2119141   9.1331491   8.5516319  44.9104271
   8.0813227   9.5408440  44.4564362  69.8218918  60.5856133  40.5585861
  70.5664444  60.2250214  40.0770950  69.5766907  61.3701324  40.0680389
  52.3247147  35.5206146  18.7811966  52.2346802  35.3684616  19.7219276
  51.4467163  35.7713661  18.4940166  26.2857685  54.8834343   0.7429632
  25.4745483  55.2809410   0.4265103  26.0152245  54.0360909   1.0965908
   1.0129786   6.4145560  79.8921738   1.9678522   6.3565035  79.8593445
   0.7115200   5.5359712  79.6609955  14.3244858  26.4546242  47.1318054
  15.1556177  26.9283352  47.1641808  14.3877001  25.9135361  46.3447495
   3.1984255  16.7036133  39.0621071   2.8352582  17.5388355  39.3566322
   2.8306994  16.5776844  38.1873779  21.3064728   7.8075671  10.5718851
  21.1635227   6.9058466  10.8594561  22.1982212   8.0105448  10.8543987
  83.5270462  43.1306763  36.2131805  83.6549835  42.5839195  35.4379883
  84.3768387  43.5477867  36.3549843  22.9000015  33.8791962  71.8368912
  22.4144783  34.2056389  72.5944824  22.9375153  32.9315758  71.9666443
  43.3718643  54.2045212  31.2936478  43.4701576  54.3939552  32.2267532
  42.7477493  53.4795151  31.2608833  71.0116501  38.7532883  36.4129944
  70.2675934  38.9242020  35.8355865  71.7715759  39.0695648  35.9244041
  52.4483604  55.0991898  50.2462425  52.4473915  54.4106140  49.5813370
  52.6321259  55.9023552  49.7590218   7.6768260  46.4827995  57.8359718
   7.6625113  47.4226456  58.0168495   7.9754562  46.0859375  58.6542320
   4.7927494  64.9323044  49.0758324   5.6490021  64.9039612  49.5027542
   4.9267192  64.4846954  48.2404099  19.9169121  19.9217167  52.1051064
  19.6264248  19.8283958  51.1978340  20.8541203  20.1047230  52.0389023
  13.4962721  43.1936989  50.9141731  14.1511774  42.9010658  51.5479698
  13.2724409  42.4052658  50.4197006  14.0041218  13.7764807  26.0016365
  13.3090029  13.1410713  26.1728001  13.6955833  14.5850077  26.4106846
  11.2855072  66.5215607  19.9552689  10.5582037  66.2612915  20.5205288
  11.5696192  67.3663864  20.3042431  44.6637764  33.0707550   5.6162958
  45.0596504  33.8401413   6.0256343  44.9404144  32.3378143   6.1662974
  34.6484871  44.3820839  75.4557114  33.9308815  43.9629440  75.9306717
  35.0327225  43.6785088  74.9326630  28.6582394  59.6328049  27.8095112
  28.9887657  60.3935623  27.3317795  27.7415218  59.5625000  27.5432091
  63.3587990  64.4651108  17.7430973  64.2141037  64.1563644  18.0420265
  62.7289314  63.9688911  18.2658463  82.2714996  40.3659744  27.0989285
  82.8930283  40.0036278  26.4675560  81.4642487  40.4856834  26.5986748
  25.6316280  46.9731216  82.3942337  25.7926178  46.0313148  82.3366470
  26.3897610  47.3172646  82.8664932  77.6172943  71.3133469  24.9409733
  77.9027100  72.2251282  24.8824749  76.6614380  71.3620300  24.9551983
  40.2962799  52.4836578  27.2662582  40.7479706  51.7866745  27.7420979
  39.3666420  52.2794991  27.3678722   4.9651899  51.5162697  13.3128614
   5.7724104  51.3737297  13.8071375   5.2612190  51.7568855  12.4349642
  18.5182037   4.7665267  31.7863789  18.3922348   3.8715789  31.4710503
  18.3988819   5.3131452  31.0097179  71.0113068  60.5656509  64.0092239
  70.7894897  61.4563484  63.7377777  71.0242310  60.0632095  63.1945953
  37.6317825   8.1740160   0.6974838  37.2155647   7.3252611   0.5471171
  37.8963699   8.1514568   1.6171123   5.0269461  29.3664970  82.8292847
   4.6119075  29.0439129  82.0293350   5.2649937  30.2713928  82.6274643
  78.2088699  23.2586384  56.0970230  77.7341080  22.5490608  56.5298424
  78.7096252  23.6746998  56.7987137  34.5283928   6.4993968  57.8100243
  34.8111610   5.6822047  58.2204781  33.5724030   6.4514570  57.8146248
  10.5020723  56.0457726  62.3952713  10.4031172  55.5179291  63.1876221
  10.6489677  55.4063377  61.6982956  82.8834534  24.6544819  85.7140961
  83.0886459  23.7476139  85.4866714  83.2969513  24.7869167  86.5671539
  50.6242599   6.4394636  38.0327988  50.7723656   5.9547868  38.8448257
  51.4301338   6.9390736  37.9016876   6.2118096  25.8892422   4.8307328
   6.2376614  26.4395580   4.0479712   5.4245663  25.3556156   4.7224574
  63.1693306  47.7372208  24.2171497  62.3585968  47.6699257  23.7127571
  63.8041573  47.2212715  23.7201328  86.3340988  52.7933311  58.9052162
  86.0401917  51.8827248  58.8797531  86.8498459  52.8561592  59.7091408
  85.8727493  32.8083954  30.5897331  85.5621414  33.2346611  29.7909508
  86.3050919  32.0112839  30.2832565  31.6672516  70.3214722  43.9728279
  31.1043453  69.7730713  43.4263687  31.8442307  71.0934753  43.4353104
  62.1122513  50.4770050  24.9939499  62.4024773  49.6865196  25.4490700
  61.5794830  50.1532402  24.2676125  39.0601807  58.7207451  71.9207001
  38.1226921  58.8926811  72.0089340  39.4023438  59.4882431  71.4623260
   4.0542760  63.3290100  14.0229311   4.9022121  63.1947327  13.5996037
   3.6171165  62.4799347  13.9581766  57.6912384  34.9637680   2.2325025
  58.3090439  34.6413879   2.8887200  57.2470894  35.6955681   2.6607950
  19.9700356  55.2779999  67.9837875  20.6347713  55.9404106  68.1723862
  19.7505894  55.4145241  67.0621414   2.1762981  68.8502274  30.2436924
   2.3327966  69.7922668  30.3093319   1.7206591  68.7407150  29.4090481
   5.7068710  11.3098202  38.9924049   6.5300355  11.7701597  39.1558647
   5.6609025  11.2323704  38.0394516  58.1124458  59.8246536  81.7677689
  57.7845078  59.1786194  81.1422043  58.9599915  60.0929222  81.4128952
  66.0182571  66.3266678  10.8069553  66.1688004  65.3830490  10.8630390
  65.1570740  66.4078751  10.3970728  80.7532578  70.6729431  78.8966904
  80.7382889  70.7450409  79.8510513  80.5505829  69.7537613  78.7227325
   0.8547599  27.8399410  55.9836960   0.1156867  27.3355389  55.6437225
   1.5979873  27.5685291  55.4450111  36.2376633  40.3015442  87.4313583
  36.7259674  40.5164490  88.2260895  35.3870087  39.9974136  87.7477798
  19.7208672  19.1001091  83.7115402  18.9488335  18.8467560  84.2175064
  19.3770924  19.6560097  83.0122299  77.3429947  28.5405922  62.5693321
  76.7126694  29.1835194  62.8942375  76.8649292  28.0550175  61.8970985
  72.0639420  50.5102730  58.5731735  71.5471115  49.8727837  59.0658417
  71.6033401  50.5984344  57.7387199  70.1425018  18.1091499  18.8100071
  69.8216934  18.1848698  19.7086601  69.5176773  17.5244579  18.3810997
  71.0435562  22.3070469  88.4341736  71.7045517  22.9565201  88.6739655
  71.4619293  21.4639320  88.6083908  48.8473244  65.8284607  14.4345779
  48.4237022  66.5364304  14.9199286  49.4166069  66.2749405  13.8078356
  34.9951973  66.3756485  86.1018524  35.2801819  67.2826767  85.9908447
  35.8053627  65.8854599  86.2417755   8.2438374  18.6203327  67.0432968
   9.1762648  18.4284973  66.9432449   8.0479155  18.3895092  67.9513550
  11.9867716  27.7841759  46.3084488  11.4850092  26.9717484  46.3749771
  12.8097134  27.5950298  46.7592506  70.5766525  71.0640717  39.8016396
  70.5729904  70.6421814  40.6608429  70.0424423  71.8497162  39.9183044
  63.2522278   1.0216269  65.9393616  62.3475494   1.3324641  65.9735641
  63.4497223   0.7599186  66.8386612  27.8774624  58.4759712  35.7349854
  28.1099052  58.4998779  36.6632271  26.9207993  58.5069427  35.7267647
  12.7655706  47.0267563  87.0288239  12.8113098  46.7245064  86.1217499
  13.5280752  46.6317368  87.4516449  80.0900421  46.2757988  61.0012627
  79.4789124  46.1194344  60.2813301  80.3315430  45.4007034  61.3047752
  38.5402298  10.3142080  83.0134354  38.0470276  10.9734030  82.5251236
  38.4406548   9.5120869  82.5006866  17.6144886  71.4521484  83.8961182
  17.9870949  70.5979233  83.6777191  18.3538857  71.9561615  84.2359543
  60.4859581  38.9395027  17.5914822  60.1365433  39.2164688  16.7444687
  60.8386765  39.7407074  17.9786339  11.4953194  61.5605392   4.7529492
  10.8219891  62.2179718   4.9280033  12.2043552  62.0492744   4.3350511
  81.8985519  11.7416544  62.4671059  81.8636398  11.3030367  63.3171806
  81.6385345  12.6440458  62.6523438  39.0889091  54.6768684  32.3989868
  39.7051163  55.3834801  32.2060661  39.6007919  53.8756981  32.2879181
   3.1169574  20.5279140  28.4667664   2.2596591  20.9322987  28.5999718
   3.0706475  20.1524296  27.5875072   2.4998531  35.1119041  70.7030411
   2.8303757  34.3448792  71.1706467   3.1974390  35.7620583  70.7861328
  61.3074226  27.3951855  29.4674740  60.9723358  26.5308876  29.2288589
  61.2141953  27.4337940  30.4193401  71.5667496  23.0615025  43.7259750
  71.5799408  22.2257309  44.1923904  72.2615051  22.9820156  43.0723534
  34.7707634   7.4559956  61.2353554  35.3756866   8.1271420  61.5513611
  33.9551506   7.6279697  61.7059174  24.5543823  30.9615479  16.3288422
  23.6248074  31.0089417  16.5521717  24.8297672  31.8752689  16.2546329
  49.6240311  70.7405167  34.7865219  49.7183304  69.7893753  34.7348251
  50.2576561  71.0081940  35.4521790  40.1847000  51.2109756  60.5334625
  40.5802574  50.3582077  60.7139015  39.2751923  51.1179276  60.8169556
   4.3344579  19.5025311  86.7948380   3.8858027  18.8629436  86.2417831
   3.6349828  20.0669441  87.1240845  63.0631599  24.7376976  69.0033646
  63.1344452  25.1625519  69.8581390  63.6430969  23.9786072  69.0640793
  36.2385902  46.1189117  33.4583359  37.0300865  46.6556664  33.4990540
  36.3009987  45.6634560  32.6187553  77.1291351  66.9532471  60.0430450
  76.7026443  66.7849731  60.8832970  77.2503433  66.0853653  59.6579132
  33.1821594  12.6777906  25.3861351  33.7658730  13.4239254  25.5232182
  33.7687912  11.9248886  25.3137760  28.0865612  16.0792141  24.3881989
  27.5882282  16.6438675  23.7973824  28.9789295  16.4236774  24.3527660
   8.5706310   7.9977622   8.8069468   8.8191738   7.4966259   9.5836840
   8.3597975   8.8694115   9.1416235  19.8693829  61.5390129  88.4816360
  19.6675777  61.9668465  89.3137817  19.3709602  60.7221603  88.5052338
  10.3717566  28.8416920   5.0695014  10.8724699  29.5308590   5.5060415
  10.9941940  28.4413223   4.4624538  67.3074570  60.4164925   7.1947031
  66.7286987  59.7050743   7.4688425  68.1861115  60.1106911   7.4198270
  52.6121864  59.5979538  46.4006615  51.7409515  59.9937248  46.3771515
  52.7814751  59.3375587  45.4952507  66.6208420  56.6135750  31.2316818
  66.5372009  57.2137833  30.4907436  66.2652206  55.7851028  30.9101276
  11.2635775  33.9923668  40.4728279  11.4002752  33.3741150  39.7549744
  11.1593876  34.8406410  40.0417786  38.0853233  40.4776230  30.1463413
  37.8906860  40.8057861  31.0242138  37.2585602  40.1036186  29.8416882
  57.7353477  44.2024460  62.0140648  57.2420769  44.9079094  61.5954475
  58.1830101  43.7618713  61.2917595  10.1666851  29.3084221  37.3789330
   9.3158436  29.7260571  37.5126534   9.9746771  28.3707066  37.3714104
  54.1925316   4.8260598  39.1293259  54.4694901   3.9945989  39.5142937
  54.1269455   4.6457577  38.1915512  70.7395477  66.5657501  26.9613934
  70.7288513  67.4511795  27.3248901  70.4123077  66.6696777  26.0678940
  50.4214134  13.3040895  78.3792267  51.3205795  13.5932417  78.5345612
  49.8859558  14.0745802  78.5685959  28.5159912  47.7780762  83.1699600
  28.2501202  48.6276054  83.5218811  28.6642113  47.9405174  82.2383652
  85.8616791   7.1964374  19.8332253  85.0608826   6.9534464  19.3685665
  86.3543091   6.3788939  19.9051533  28.4075241  40.1609459  15.1618137
  29.0601044  40.6210823  14.6339417  28.8865776  39.8760223  15.9399900
  38.5101852  68.8926010   0.2624966  38.9755478  68.0596466   0.3389619
  37.7297630  68.6846695  -0.2512540  18.3351803  18.5904198  53.9320793
  18.9289455  19.1528397  53.4347267  18.7014599  18.5780544  54.8163414
  10.4453793  52.8767738  33.9752655  10.1445084  53.0481987  33.0828972
  10.2247944  51.9582977  34.1301117  25.3740463  46.7510529  73.4023209
  26.0235233  46.3508835  72.8241577  25.0419083  47.5000114  72.9073639
  80.6143570  26.6428661   8.7277174  80.1851273  26.1879444   9.4523134
  80.7758331  27.5254822   9.0611038  73.5460052  12.8566589  12.0381126
  72.9657593  13.0248165  12.7805910  74.3170853  12.4426136  12.4257040
  37.7008591  35.5366402  14.9681435  38.1321869  35.5044518  14.1142397
  37.9025383  36.4093819  15.3056040  56.5396919  46.4199142  54.7974243
  55.7971573  45.8167152  54.7653694  57.1455078  46.0210457  55.4220238
  19.3462543   4.0431733  64.8642731  18.7358799   3.3161356  64.9871140
  19.0623531   4.7036400  65.4962616  22.5797176  21.8326759  73.0019455
  22.1433277  22.5335369  72.5175934  22.4991188  21.0645866  72.4364624
  52.0594215  48.6846123   6.6761584  52.3606148  48.2349663   5.8866420
  52.6965981  48.4417648   7.3479209   0.8896952  56.3189316  80.3790436
   1.2617836  57.1520958  80.6682205   1.1012155  55.7051620  81.0824509
  18.8788834  58.5443001  46.8602257  18.7660732  57.8880043  46.1726341
  17.9871025  58.8005028  47.0954247  58.9308128  48.7802010  40.8930740
  58.8010406  48.8923874  41.8347778  58.1719551  48.2725792  40.6055183
  68.0586700  39.0567627  29.6637611  67.5798874  38.5359955  30.3085842
  67.5285568  39.0000191  28.8687820  46.7482491  16.8940792  22.6980743
  46.6995354  16.4653568  23.5525074  46.0011673  16.5450191  22.2120132
  11.5266905  25.4191570  28.2340794  12.2355089  25.2460842  27.6145210
  11.0480728  26.1543674  27.8511658  38.2297096  25.4696274  10.2601509
  38.6713104  25.6922722  11.0796928  38.1385918  24.5171890  10.2882566
   7.8203201  37.6336136  18.6492348   8.4788485  38.2331810  18.2983913
   7.0078554  37.8873634  18.2113495   5.9111881   9.3919868  14.6187220
   6.2779679  10.1413794  14.1495581   6.4741273   9.2910728  15.3862810
   0.4142217  47.7685432  51.2711792   0.5583596  47.2572098  52.0674171
   0.0517522  48.5982590  51.5816994  81.4137573  23.9369316  63.3561401
  81.8020554  23.7231483  64.2045212  81.0996933  24.8356018  63.4561081
  36.1670151  19.1774387  36.1968307  36.4624367  19.6390095  35.4120293
  35.2260094  19.3484898  36.2353325  27.3251724  53.8656158  32.1740227
  28.2515812  53.7508850  31.9622803  27.2124844  54.8130913  32.2503395
  13.7847986  69.6487808  86.0970001  13.7389603  70.1646576  85.2920151
  14.7179527  69.4710541  86.2147598  49.2897682  67.3091049  77.0491104
  48.4718742  67.7278442  77.3173141  49.8572235  67.3782120  77.8168640
  37.9999695  47.3227501  14.3860645  37.9748192  46.9368858  13.5104465
  37.0798378  47.4264107  14.6286430  71.4615173  19.4264469  71.2251587
  71.8943710  20.2183571  71.5441360  72.1195145  18.7381077  71.3224182
  21.6040211  65.0112762   9.6456146  21.0116158  65.2071838  10.3714991
  22.2454453  64.4054260  10.0167665  86.0411453  65.8682404  68.4729919
  85.6614456  65.1222305  68.9372406  86.9510574  65.8965073  68.7687836
  22.5985699   6.6563993  31.6235905  21.8677273   6.7252064  32.2378922
  22.7980423   7.5620031  31.3862629  23.2282906  26.5967655   4.2165041
  24.0712547  26.1730442   4.3780775  23.1468983  26.6122742   3.2628973
  63.9223747  56.8517914  75.4916000  63.9650536  55.9298744  75.7455292
  64.5125580  56.9211044  74.7411880  52.6300735  70.7823334  33.7208824
  53.5237503  70.6022720  33.4290848  52.2683716  71.3556137  33.0450478
  18.0459976   1.4598864  26.3958664  17.3288383   0.8820882  26.1349735
  18.4039459   1.7853279  25.5699158  66.2984390  56.6392136   9.0226641
  65.5877533  56.0118179   8.8902731  67.0961990  56.1136780   8.9624300
  33.9673920  54.7490768  43.6469650  33.9585037  55.3115349  42.8725052
  34.8044319  54.2873344  43.5980415   4.5986419   2.5567646  56.6008835
   5.1885929   2.9044945  57.2696686   5.0893631   1.8407283  56.1975021
  24.5482655  24.2613602  31.7518463  24.5043449  25.2154598  31.6886253
  23.8513756  24.0296726  32.3657684  40.8874054   3.8910308  26.8062897
  41.2915344   4.4076705  26.1091576  40.1560707   4.4288721  27.1097813
   5.2156224  43.6004791  61.8437691   5.0675673  44.2943878  61.2012711
   4.9310741  43.9794235  62.6754341  75.3071518  22.7486858   2.4187796
  76.1638184  22.4655800   2.7384844  74.9728928  23.3240566   3.1068549
  17.1871071  17.3184605  76.6844864  17.5358067  16.8497314  77.4427338
  17.3472881  18.2418404  76.8792725  80.5269394   8.4092808  87.3063431
  79.6622772   8.1973257  87.6579971  80.5536423   9.3660603  87.2967300
  52.8264160   1.0515076  23.8339806  53.5252533   0.4093624  23.9585133
  53.0566292   1.5014247  23.0210800  35.8917580  55.5413132  62.5088120
  35.2264595  56.1578751  62.8145218  36.4184380  55.3526802  63.2855110
  43.2227364   5.3631954  81.2376633  43.5667152   5.7413979  82.0469055
  42.5957031   4.7017021  81.5300369   2.8948605  41.3767319  40.1235847
   3.6309056  41.9739189  40.2571335   2.1375551  41.9513092  40.0114136
  84.5290375  25.5765953  49.1086731  85.4671097  25.7014561  49.2524071
  84.4741669  24.8108711  48.5369339  39.0177422  10.9662113  61.9324837
  38.7017975  11.8334656  61.6789474  39.1646156  10.5127029  61.1024284
  83.1353226   9.3411245  86.1462479  82.2861252   9.0787249  85.7909470
  83.7743988   8.9719296  85.5367279  16.5698814  48.9204559  17.9755726
  15.7676725  48.9329262  17.4535217  16.2984276  49.2311897  18.8392792
  38.6264725  31.7791100  21.9295731  39.3290291  31.9111061  22.5661469
  37.8305855  31.7264061  22.4587383  18.5135002  42.7959366  69.1929092
  17.7702217  42.5653267  68.6356049  18.9321556  41.9585838  69.3924103
  47.8234711  35.7715340  81.9450302  47.3260612  35.2226601  81.3387604
  48.7109261  35.4137917  81.9189453  48.8312416  68.9539490  14.9838123
  47.9067345  69.1569290  14.8412752  49.2336731  69.0513992  14.1208038
  81.8723602  24.6642590  36.5375328  81.1722412  24.8698387  37.1570549
  82.3749313  25.4757729  36.4661369  46.0956573  39.6745720  22.3747196
  46.2918053  39.2390175  21.5452328  45.6406059  39.0102959  22.8923092
  41.6505890  11.4752531  53.9310265  41.1350975  11.7139196  53.1606102
  42.5516472  11.6941271  53.6935081  13.2909346  56.5957527   4.3340302
  13.9895315  56.1716232   3.8357272  12.9406872  57.2586060   3.7388949
  83.2368622  31.2186413  10.3886795  83.6745911  30.3720551  10.2997026
  83.8628311  31.8503227  10.0346098  21.8315811  45.8443909  74.0846176
  21.6028519  45.2220535  74.7749939  22.2057934  45.3036499  73.3890686
  68.8998642  47.2863617  51.9451675  69.5295410  47.1723557  51.2333107
  68.0949860  46.8831711  51.6198349  54.7919884   2.7861450  29.2760830
  55.5878410   2.3963275  28.9142857  55.0945168   3.2917881  30.0304260
  78.4860458  55.5844040  19.0748692  78.0288849  56.0459709  18.3718796
  78.8444214  56.2807999  19.6251717  34.0215759  47.4297180  35.3788376
  33.7274742  47.1172409  36.2344627  34.9721909  47.5023727  35.4641800
  31.9799671  12.4410496   4.1680579  32.4259300  12.0826492   4.9354553
  31.4464455  11.7167139   3.8410659  83.7065353  56.8013611  44.9704628
  84.4028931  56.1452522  44.9414177  83.0693359  56.5032310  44.3213654
  82.8985062  58.6166000   6.5028453  82.7621231  57.7087059   6.2319927
  83.2750931  58.5507507   7.3803864  51.3369141   5.0510869   5.5065341
  51.3740997   5.3421001   6.4176660  50.6830978   4.3519778   5.5048885
  71.2189026  69.2128220  61.5236702  71.2929764  69.0745697  62.4679337
  71.6263580  70.0659103  61.3738174   1.6292264  67.4757538  69.2704926
   2.3410544  66.8592300  69.0989304   1.8434277  68.2427292  68.7393570
   1.6966460  20.7186947  35.2805595   2.2713146  20.7050018  36.0459366
   0.8417846  20.9738750  35.6274414   4.5074201  21.4625435  14.4751930
   3.5885866  21.1969986  14.4369545   4.9939265  20.6386375  14.5020514
   0.5660555  16.2785072  40.7417603   0.0067899  15.6614571  40.2698479
   1.1828364  16.5955963  40.0820122  31.1320953  57.7821693  42.7992783
  30.8592224  57.5146523  41.9216652  30.3467426  57.6779099  43.3364792
   2.6798422   4.7572136  62.2058678   2.4786766   5.5137944  61.6550941
   1.8260620   4.3751311  62.4090996  37.5831757   8.1415396  81.6447372
  38.1247940   8.3292341  80.8781509  37.2489090   7.2578297  81.4912643
  86.9883957  57.4701309   8.4681339  86.6621704  58.3698158   8.4487915
  86.2233353  56.9334488   8.2610292  -0.3400090   1.4493345  34.5292511
   0.4509668   1.0556580  34.1610031  -0.1022708   1.6660624  35.4307747
  82.8450317  61.0219612  84.0268555  83.3677216  61.5316467  84.6459122
  82.3808136  60.3864517  84.5717010  31.4578724  59.8246841  51.7012291
  31.3477116  58.8914490  51.5191154  31.9057999  59.8524857  52.5466995
  70.5365677  14.8045073   7.3890471  70.7131500  13.9242220   7.7209325
  71.1153030  15.3727074   7.8974190  43.3861694  36.4769440   7.2201877
  42.9683495  36.5311890   6.3607020  44.0129585  35.7583160   7.1368728
  55.3132629  17.7383442  31.5384293  54.8510857  18.5722466  31.4533901
  54.8437729  17.1435699  30.9535732   9.9098072  46.9657745  71.8188171
  10.1809206  46.2249107  71.2767334   9.5019999  46.5644913  72.5862122
  12.9752998  62.4971886  55.2239952  12.8881969  61.5618057  55.0404129
  13.7336750  62.5576591  55.8048935  40.0192184   2.0015562   6.9323130
  40.4846840   1.2209730   7.2327509  40.6096802   2.4016559   6.2939487
  82.1859283   2.6840932  60.1234093  81.5265045   3.0775118  59.5519104
  82.9393234   2.5344360  59.5522346  22.4974594  22.8392220  22.9885311
  23.1816120  23.3391056  22.5432415  22.9533005  22.0795555  23.3509483
  17.6971436  27.1686649  64.1418381  17.1461926  27.5935440  64.7992249
  17.0806179  26.6998749  63.5793762   8.0421028   1.4272244  50.3600159
   7.3506112   0.8258560  50.6364708   8.7620592   0.8568073  50.0907211
  85.1834717  49.9841805  40.3568230  84.9663849  50.6808205  39.7373085
  86.1399765  49.9482651  40.3513260  28.2428284  68.2518997  18.4503822
  28.1936111  67.3225098  18.6741009  27.3403702  68.4972763  18.2464409
   0.0248545  59.3178902   1.8027786   0.0457659  58.4448128   2.1946049
   0.2729951  59.9063950   2.5157464  69.0282516  37.5292130  84.5022354
  69.9752121  37.4213409  84.5909424  68.7110443  37.6096039  85.4017639
  86.8326335  71.6455539  89.1946272  90.0000000  90.0000000  90.0000000
