QMMM reactant CHA#2 frame 36665
 55680
  30.9566498  46.1514702  38.3179092  31.4004803  45.6468658  39.0718956
  31.5845909  46.8842430  38.0198517  30.1699791  46.6334267  38.7289619
  30.6215992  45.3519363  37.1166763  29.8441505  45.8780136  36.5626755
  31.7755947  45.2621307  36.1802406  31.9632301  46.2470055  35.7525520
  32.6934700  44.9573898  36.6829720  31.6300831  44.2777634  35.0131607
  31.8662434  43.3156586  35.4677887  30.6096554  44.2219238  34.6340561
  32.6577873  44.4845276  33.6307297  32.7098045  46.2180748  33.2798538
  33.5649643  46.6030464  33.8353615  32.8900719  46.2886887  32.2071838
  31.7501431  46.6815376  33.5086555  30.0117416  44.0422134  37.6141663
  30.5034332  43.4871979  38.5848732  29.0580158  43.4883614  36.9197197
  28.7846432  43.8996544  36.0386925  28.3599148  42.2228966  37.2605629
  28.0761700  42.1610794  38.3111687  27.0282230  42.0675240  36.6390190
  27.1512051  42.2384796  35.5695534  26.5390511  41.0990524  36.7432976
  26.0516491  43.2028465  37.0289536  26.4088497  44.2069969  36.8005066
  25.9113846  43.2548065  38.1086426  24.3401184  43.0604668  36.4670258
  23.4461155  44.3724670  37.4233780  23.5755634  44.0588875  38.4592438
  22.4124413  44.3138008  37.0825233  23.7229710  45.3962250  37.1716461
  29.1797581  41.0219803  36.8353996  30.1196747  41.0458717  36.0059738
  28.9230900  39.8655815  37.4608002  28.1891136  39.8817062  38.1544342
  29.5373783  38.5654793  37.1700897  30.4097767  38.7596931  36.5461502
  30.0517731  37.9802284  38.5088234  29.1644459  37.7148705  39.0835724
  30.7817020  36.7091522  38.1042671  30.8612595  36.0971222  39.0027046
  30.2927818  36.0777969  37.3623428  31.7344341  37.0641632  37.7113686
  30.8508549  38.9007492  39.5027351  30.1309128  39.6460686  39.8407898
  31.0925217  38.2169304  40.3164253  32.0596619  39.7426949  39.0760155
  32.6032143  39.8796501  40.0108376  32.6553955  39.1142502  38.4139938
  31.9252872  40.7078209  38.5875702  28.5377502  37.6419601  36.4303818
  27.3862171  37.5774002  36.8502121  28.9838657  36.9398232  35.4218483
  29.9471989  37.1279526  35.1837387  28.2113075  35.9305038  34.6678352
  27.3174057  35.7284889  35.2579498  27.8886337  36.4799957  33.3023605
  28.7750454  37.0239029  32.9759560  27.5812950  35.6842537  32.6238060
  26.6504307  37.4221268  33.1803055  26.4393177  37.4884491  32.1130028
  25.7514858  36.9875298  33.6174812  26.8502274  38.8231239  33.6144295
  27.0268631  38.9071121  34.6867409  27.7398720  39.1488304  33.0754013
  25.6296177  39.6372986  33.4056396  24.7305756  39.1887741  33.3024101
  25.6924496  40.9283638  33.2648888  26.8073254  41.6148376  33.3832970
  26.6962051  42.6111488  33.5062408  27.6445026  41.1846237  33.0170326
  24.6331539  41.5939140  32.9883308  23.6814537  41.2579956  32.9492569
  24.7230377  42.5997581  32.9710999  28.8710384  34.5993729  34.5785980
  30.0462284  34.4609985  34.8261604  28.1084442  33.5609093  34.2651978
  27.1638927  33.6566391  33.9205856  28.7193317  32.2202873  34.1895943
  29.7631187  32.3345146  34.4821014  28.1106739  31.5382423  34.7832680
  28.6837769  31.7311058  32.6941986  27.9204330  32.2225571  31.8408909
  29.6209831  30.8833332  32.3040657  30.2961159  30.6230946  33.0087471
  29.7419338  30.3787556  30.9230232  28.8068542  30.6673527  30.4429836
  30.9142647  31.1053066  30.1510315  31.8613758  30.7759399  30.5783501
  30.8871727  30.5829678  28.6118641  29.8782234  30.6703796  28.2087727
  31.5896320  31.2077236  28.0601997  31.2395687  29.5578594  28.4975548
  30.9111862  32.6300735  30.2595501  30.1075878  33.0606766  29.6621304
  30.7821198  32.8649979  31.3160801  32.0933685  33.3029060  29.6527157
  33.0041962  33.0866280  30.2110348  32.2352257  33.2335854  28.5742073
  31.9429512  34.3824730  29.6510448  29.8582020  28.8525410  30.9183865
  30.5658112  28.2423267  31.7239075  29.1674995  28.2509956  29.9594307
  28.6265564  28.8662930  29.3687630  29.1344910  26.7772865  29.6094685
  29.7393589  26.2205563  30.3252087  27.6968880  26.2231445  29.6922855
  27.0551796  26.9695663  29.2241344  27.6224213  25.2856331  29.1412621
  27.1811008  25.9327374  31.0954227  27.3000774  26.8426590  31.6836319
  26.1235771  25.6734390  31.0453472  27.9638386  24.8946552  31.8648071
  28.9139996  25.3629322  32.1217346  27.3079166  24.7180748  32.7172661
  28.0656261  23.5615349  31.1821537  28.9713821  23.3511810  30.7878704
  27.1690350  22.6411095  30.9270267  26.0210896  22.4455624  31.4218044
  25.7104645  23.1453342  32.0805397  25.4488602  21.6598320  31.1474323
  27.4870968  21.7654324  30.0792961  26.7361393  21.1790180  29.7442074
  28.3188229  21.8917370  29.5203896  29.8434982  26.4533749  28.3367119
  29.9227848  27.3019600  27.4365025  30.2335892  25.1928272  28.2009354
  30.2234726  24.5422554  28.9734325  30.5387325  24.5620823  26.8988476
  29.7460804  24.8300972  26.2002945  31.5544453  24.8369026  26.6144161
  30.6058311  23.0789738  26.9628468  30.6750526  22.5196381  28.0691929
  30.5937634  22.3593979  25.8533764  30.6360760  22.8768978  24.9870605
  30.9033775  20.8865242  25.8570251  31.7295761  20.6692581  26.5339985
  29.7134666  20.0863686  26.2772961  29.3610897  20.5082054  27.2185631
  28.9517746  20.2728806  25.5202332  29.9307289  19.0293961  26.4312763
  31.3352814  20.3983631  24.4122009  30.9635506  20.9614811  23.3691444
  32.1755753  19.3928127  24.3670692  32.2676735  18.9650955  25.2773857
  32.8344116  18.6960258  23.3196507  32.2639771  18.8324013  22.4008923
  34.2842712  19.2665329  23.0624428  34.1776733  20.3472748  22.9689255
  35.2420769  19.0474548  24.2533207  35.9845505  19.8452053  24.2325706
  34.7769814  19.0082321  25.2383327  35.7572746  18.0872116  24.2288361
  34.9632950  18.7590675  21.9071884  35.6550713  19.3460197  21.5932865
  33.0283737  17.1955547  23.5880604  32.8506546  16.7935638  24.7027092
  33.4784584  16.3282394  22.6661911  33.7141495  16.6786861  21.7487297
  33.6784744  14.8489914  22.7831783  33.7488670  14.6968889  23.8602180
  32.5342598  13.9769316  22.1992054  32.7352104  12.9276485  22.4153671
  31.1590919  14.1484833  22.8420658  30.7936935  15.1401320  22.5752029
  30.4446564  13.3467875  22.6550541  31.3779392  14.2480650  23.9052162
  32.4145889  14.1076450  20.7701225  33.1440315  13.7048502  20.2933903
  35.0267105  14.3882151  22.1293468  35.4679375  15.0206347  21.1706505
  35.6816292  13.3737268  22.7030945  35.2322159  12.7826757  23.3877735
  36.9169731  12.7851734  22.1021156  37.3143272  13.4271145  21.3159046
  37.9495430  12.5893755  23.2381897  38.8373718  12.1365824  22.7967796
  38.3871918  13.8215885  24.0396309  39.2415428  14.2483072  23.5141907
  37.5900841  14.5477428  24.1990662  38.8663368  13.5413227  24.9776974
  37.4211693  11.5935268  24.2514687  37.1347351  10.6826363  23.7257977
  38.1283073  11.3596802  25.0473156  36.5410576  12.0348949  24.7191200
  36.6478767  11.4012613  21.4504089  35.6115341  10.8186178  21.6373463
  37.6805077  10.7993126  20.7361507  38.5514412  11.2993250  20.6286316
  37.5189400   9.4832783  20.1171017  36.4913025   9.2867050  19.8114262
  38.3539200   9.4684677  18.8094864  39.3256302   9.9159555  19.0183868
  38.6519890   8.4708996  18.4868202  37.6229019  10.1346836  17.6172523
  38.0546608   9.7774954  16.6823196  36.5874672   9.7942972  17.6067810
  37.6477165  11.6587801  17.8730869  38.7593269  12.2840424  17.5951614
  36.6124992  12.3011751  18.1957340  37.9981766   8.2871685  20.9592533
  37.6005592   7.1684504  20.6579056  38.8290634   8.4827642  22.0404129
  39.0429459   9.4488192  22.2431221  39.3843422   7.4523597  22.9280052
  38.7094345   6.6279216  23.1580162  40.6088676   6.7963276  22.1716328
  40.9212074   5.9002824  22.7079601  40.2108383   6.3933730  21.2403431
  41.8069954   7.6682367  21.7121048  41.3654251   8.5597544  21.2667809
  42.3810768   7.9414868  22.5974655  42.5780449   6.9022403  20.6743908
  43.1035957   6.0764980  21.1540222  41.8497734   6.5214720  19.9583321
  43.4418068   7.8099012  20.0306931  43.0589256   8.2387714  19.2002869
  44.6369781   8.2023706  20.4033375  45.3897133   7.4863806  21.2296619
  46.2475395   7.7915483  21.6668224  44.9652405   6.5988669  21.4582291
  45.0709000   9.3833981  20.0667133  46.0158081   9.7198687  20.1851902
  44.3123665   9.9740200  19.7570496  39.8235283   8.0119915  24.3509102
  40.0614319   9.2076521  24.5468006  40.0277481   7.1215487  25.3028240
  40.0805740   6.1503391  25.0306702  40.5400658   7.4324870  26.6275387
  40.0989532   8.3576708  26.9984207  40.1359673   6.2913022  27.6032753
  39.0517540   6.3375378  27.7054539  40.4310150   5.3226924  27.1997375
  40.7348480   6.5139098  28.9747944  41.0189362   7.6877956  29.3480072
  41.0455894   5.5241327  29.6547375  42.0595589   7.6818681  26.6607590
  42.8380852   6.7159505  26.7810078  42.5136604   8.9241371  26.5995216
  41.8416519   9.6774416  26.5673256  43.8998337   9.3410616  26.7141151
  44.3622055   8.7472954  27.5026302  44.5321579   8.8479061  25.4129047
  44.3035927   7.7852364  25.3317242  44.1047211   9.6258011  24.2032890
  43.0391502   9.7885847  24.0415630  44.6860313  10.5417576  24.0974369
  44.3357430   9.0002470  23.3410759  45.8771133   9.0657616  25.5413914
  46.1662102   8.6935310  26.3777332  44.1163216  10.7936764  26.8965874
  43.3239861  11.5224352  26.4323559  45.0859795  11.2725792  27.6475067
  45.7720795  10.6950836  28.1121216  45.4130554  12.6594219  27.8030968
  44.6562233  13.2062988  28.3654366  46.6690903  12.6419039  28.7150421
  46.3532906  12.1380148  29.6285343  47.3723793  12.0018282  28.1823235
  47.1702957  14.0717735  29.0721283  47.4393463  14.4313288  28.0789413
  46.3421516  14.7137375  29.3723946  48.3963013  14.1025810  29.9732208
  48.4394455  13.3969183  31.0513916  49.4389305  14.6784039  29.6472969
  45.6534042  13.4467812  26.4628391  45.1398201  14.5258627  26.3065472
  46.3501244  12.8541460  25.5069790  46.7478218  11.9583216  25.7507725
  46.6818199  13.4919252  24.2143764  46.9839134  14.5165167  24.4312859
  47.8036079  12.7888222  23.6199207  48.5499992  12.7660580  24.4139519
  47.3917160  11.7938051  23.4514427  48.4472542  13.3883247  22.3084202
  49.2765312  12.7453146  22.0135689  47.8023911  13.1879091  21.4527988
  48.9973564  14.8545389  22.4044952  48.9776230  15.5857811  23.4288960
  49.5937538  15.3189449  21.4385433  45.4871597  13.6863890  23.2845535
  45.6255836  14.3398552  22.2928677  44.3183479  13.1012630  23.6304951
  44.3893433  12.4859686  24.4282932  43.0450668  13.5421724  23.2011757
  43.0726967  14.1452408  22.2936268  42.1002045  12.3552160  22.8568344
  42.0434990  11.6798754  23.7105331  41.1383095  12.7849054  22.5771561
  42.6641769  11.4660568  21.7425117  43.5663605  10.9067345  21.9901581
  41.9074631  10.7199001  21.5001583  42.9805984  12.1997452  20.3820038
  42.4775505  13.3013630  20.0306950  43.6155319  11.5769129  19.5318089
  42.3897285  14.5272884  24.1961918  42.2347870  15.6493759  23.6857567
  42.0813904  14.1375570  25.4266376  42.3874283  13.2032423  25.6579304
  41.4074707  14.8374205  26.4716682  40.3806801  14.9805765  26.1350384
  41.3430061  14.0217066  27.8281536  42.3624802  13.7130127  28.0594139
  40.8307800  14.9426355  29.0129356  41.5822868  15.6065588  29.4401817
  39.9141617  15.4721766  28.7531281  40.6044083  14.2228441  29.7995529
  40.5958443  12.6463881  27.7236805  39.5190926  12.8154926  27.7341900
  40.8002892  12.1681461  26.7657719  40.7625122  11.6046810  28.7899837
  40.5494728  11.9997663  29.7832756  40.0881615  10.7551689  28.6819077
  41.7939301  11.2542057  28.7519627  41.9620552  16.2214127  26.5983524
  41.2089310  17.1561089  26.4455662  43.2359619  16.2947369  27.0066566
  43.7677269  15.4380102  26.9487991  43.9891396  17.5404682  27.2374897
  43.5416870  18.1043320  28.0559921  45.5200005  17.2697754  27.5475540
  45.6124458  16.3875923  28.1810417  45.9668655  16.9326744  26.6122570
  46.3923111  18.4108334  28.0872059  46.0630150  19.2894249  27.5324554
  46.0102310  18.5291386  29.5476017  44.9672623  18.8001099  29.7115593
  46.3453331  17.6738224  30.1343212  46.6105690  19.3363018  29.9673424
  47.8615341  18.2432117  27.7747459  48.4321175  19.0527725  28.2298870
  48.2820091  17.3279152  28.1913204  48.0439796  18.1910515  26.7013893
  43.8985519  18.4518585  25.9198933  43.6886749  19.6793671  25.9699688
  44.0626755  17.7674694  24.7490139  44.4430008  16.8415127  24.8833981
  43.9541855  18.4716454  23.4149284  44.4457512  19.4398212  23.5103626
  44.5818863  17.6169033  22.3443871  44.0049438  16.6981468  22.4498615
  44.3407059  18.0035000  21.3541927  46.1279640  17.3573189  22.4266777
  46.2496300  16.6544056  23.2508202  46.3337479  16.8723316  21.4724560
  46.8312912  18.5923500  22.7555676  46.4408760  19.6495686  22.2893734
  48.0272713  18.4269218  23.2928276  48.3775368  17.4977760  23.4775124
  48.3800583  19.2096901  23.8247261  42.5935020  19.0455532  23.0926189
  42.4819603  20.2354774  22.8826485  41.5014801  18.2690296  23.1741428
  41.5599976  17.2772770  23.3560867  40.1567497  18.7156601  22.7658901
  40.1147614  19.2629299  21.8241711  39.3440590  17.3887939  22.6730442
  39.5472832  16.6423950  23.4409580  38.2937927  17.6367168  22.8265610
  39.5636559  16.7722530  21.2848606  39.8897171  17.6042023  20.6606464
  40.4111214  16.0869274  21.2696877  38.2689285  16.1582088  20.7747192
  37.9934883  15.4241848  21.5319767  37.5323296  16.9571819  20.6900711
  38.2874107  15.6273785  19.3445454  38.5817604  16.4483318  18.6907158
  39.0257645  14.8258915  19.3681641  37.0759850  14.9642735  18.9434414
  37.1018982  13.9678707  18.7803154  36.3073235  15.1001091  19.5843925
  36.7704163  15.3865213  18.0783215  39.5489922  19.5823269  23.8777885
  38.8671341  20.4958897  23.4634209  39.9807396  19.4721985  25.1086769
  40.6070938  18.7145576  25.3405437  39.7218208  20.5098686  26.1445465
  38.6638145  20.6471748  26.3678627  40.3627014  20.0155067  27.4877453
  41.4272995  19.7817287  27.4790039  40.1517181  20.9969234  28.6313667
  39.1357765  21.3863697  28.6967926  40.3438454  20.5195389  29.5922470
  40.7208672  21.9121170  28.4682980  39.7166214  18.8187847  27.7775173
  40.3704529  18.1318417  27.6284733  40.3641891  21.8660126  25.9009323
  39.7048340  22.9037857  25.9927502  41.6451530  21.9141617  25.4896946
  42.1313248  21.0305424  25.5440292  42.5014496  23.0395203  25.1278629
  42.5349808  23.7757435  25.9309502  43.8961029  22.5862808  24.8607998
  44.3753967  22.1285801  25.7261848  43.8242455  21.8789978  24.0345497
  44.8749084  23.6944389  24.4170380  44.5515747  24.1302090  23.4717026
  44.8240509  24.5128307  25.1351967  46.3063354  23.2438602  24.2906799
  46.5579185  22.6003628  25.1337204  46.2642517  22.6217117  23.3966656
  47.2211990  24.4449368  24.2087975  46.9497757  24.8763313  23.2452984
  47.0987396  25.1649628  25.0179119  48.6728477  24.0635929  24.3197956
  49.0354500  23.8340778  23.4054966  49.2358322  24.8603630  24.5811577
  48.7613029  23.3646183  25.0434742  41.8976860  23.7646790  23.9728756
  41.6619186  24.9784336  24.1023941  41.4298058  23.0577354  23.0436668
  41.6049232  22.0695686  23.1575260  40.7019272  23.5988178  21.9426937
  41.3890457  24.3958302  21.6585464  40.4496956  22.5710449  20.8082447
  40.2495079  21.5726700  21.1971817  39.4972572  22.7216473  20.3000298
  41.6873817  22.5033932  19.8800812  41.6024971  23.3380585  19.1842136
  42.6087608  22.5970383  20.4548740  41.8483200  21.1463547  19.2092915
  42.0247459  21.0228176  17.9840794  41.9345627  20.0823803  19.9593925
  42.0636024  19.1579723  19.5734901  41.9814186  20.2100277  20.9601994
  39.3537369  24.2502213  22.4071369  39.1498985  25.3209705  21.9706631
  38.5329895  23.6314545  23.2181263  38.8733826  22.7388840  23.5460720
  37.1879158  24.1577110  23.5847301  36.6287193  24.5140896  22.7196331
  36.4859886  22.9385986  24.2901649  36.3428993  22.1713390  23.5292854
  37.1964645  22.5050335  24.9939747  35.1894569  23.4432526  25.0273056
  35.4143257  24.1584530  25.8185196  34.1496048  24.0346527  24.1423550
  34.5892792  24.9812908  23.8282452  33.8070450  23.3451557  23.3707695
  33.3030205  24.1759624  24.8142433  34.7011566  22.2024136  25.8173561
  34.4355812  21.4849987  25.0408936  35.4534264  21.7904797  26.4900398
  33.7546616  22.4482174  26.2988396  37.3292198  25.3869553  24.4585514
  36.8008614  26.4419689  24.1605911  38.3234215  25.3215504  25.4128094
  38.8377533  24.4692039  25.5832939  38.6495590  26.4788857  26.2459412
  37.7010460  26.7526340  26.7079887  39.7163048  26.1386108  27.2641983
  40.4512672  25.4519749  26.8441200  40.1215019  27.0839100  27.6252041
  38.9914780  25.4724445  28.4922962  38.3276138  24.6848068  28.1359043
  40.0120392  24.7702084  29.3671303  40.7341385  25.5573425  29.5841236
  39.5392036  24.3327789  30.2464390  40.6496086  24.0370617  28.8730583
  38.0993729  26.3589516  29.2775936  38.6219482  27.3087292  29.3913422
  37.0900993  26.4834385  28.8852100  37.9853668  25.9433746  30.2787914
  39.1530724  27.7205353  25.4913559  38.6218987  28.8236980  25.7295990
  40.1372795  27.5092506  24.5559254  40.5662193  26.5970345  24.4928837
  40.6973381  28.5405827  23.5739918  41.1783752  29.3529568  24.1187496
  41.7904129  27.9020538  22.6836052  41.4224892  26.8883877  22.5248222
  41.8174858  28.4139462  21.7216625  43.1649666  27.9272919  23.3628750
  43.1680107  27.9990997  24.4505024  43.6996956  27.0707455  22.9523926
  44.0252228  29.2030506  22.8911819  45.2085609  29.1638546  22.5633030
  43.3643227  30.2425747  23.0084839  39.5304337  29.0413494  22.7303104
  39.4039268  30.2379990  22.4742336  38.5733681  28.1985493  22.3259964
  38.6789589  27.2184372  22.5458374  37.3181839  28.5569401  21.6290340
  37.6877823  29.2295074  20.8549843  36.5239296  27.4398193  20.8820248
  37.2131004  26.7960320  20.3355103  35.9583282  26.8772221  21.6247826
  35.4278603  27.9200916  19.9564171  34.9007797  27.0411053  19.5853844
  34.7182198  28.5684700  20.4703426  35.9975014  28.6137638  18.7064457
  36.4942245  29.5314217  19.0215130  36.7965393  28.0586109  18.2150688
  34.8958549  29.0330811  17.7354641  34.0725441  28.3267040  17.8416939
  34.5964432  30.0232372  18.0790443  35.4845695  29.1187305  16.3340435
  34.7860565  29.5933323  15.7800179  36.3251915  29.6686001  16.2286949
  35.7307854  28.1869640  16.0319004  36.3358040  29.4217415  22.4520931
  35.8437080  30.4689884  22.0462971  36.1972046  29.1193027  23.7776718
  36.7735100  28.3851261  24.1636219  35.4271355  30.0257607  24.7576332
  34.4308014  30.3107815  24.4197330  35.3016624  29.3433704  26.1670570
  36.2648315  28.9244156  26.4584045  34.7211952  30.3897724  27.2331619
  35.4435081  31.1523075  27.5245438  33.7415771  30.7422333  26.9103374
  34.6081886  29.9547768  28.2261925  34.3881035  28.0991478  26.2225151
  33.4131126  28.5801277  26.3009949  34.6023712  27.4481430  25.3749428
  34.5041351  27.2020512  27.4985485  34.7659760  27.7995472  28.3717861
  33.6520729  26.5947475  27.8039646  35.2358589  26.3952370  27.4569645
  36.1745491  31.3536968  24.9222393  35.5450516  32.4079475  24.8182774
  37.4750557  31.3382511  25.1098156  37.8886642  30.4340820  25.2873173
  38.3247528  32.4866562  25.4268208  37.8455505  33.0347748  26.2380123
  39.8199425  32.1053848  25.6615620  40.0921516  31.3199215  24.9565430
  40.7707291  33.3724594  25.5513077  40.5946007  34.1032486  26.3406296
  41.7981071  33.0735245  25.7592087  40.6341019  33.7838669  24.5512161
  40.0225677  31.5404911  27.0686188  40.0145950  32.3897057  27.7518978
  39.2274361  30.8646755  27.3834896  41.3716240  30.7626438  27.1857948
  41.1131020  29.8256092  27.6789799  41.8415985  30.7476845  26.2024307
  41.9875793  31.1535168  27.9956818  38.1815567  33.4880409  24.2586040
  37.9034233  34.6625137  24.4629459  38.3483772  32.9972382  23.0421867
  38.2057190  32.0122147  22.8704967  38.1648445  33.8267174  21.8165417
  38.8270836  34.6626167  22.0419483  38.7298584  33.0966835  20.5184422
  39.8136330  33.1040916  20.6345139  38.5063248  32.0461235  20.3328133
  38.3312798  33.6455002  19.1241894  38.8273315  33.0225258  18.3799191
  37.2543335  33.5262604  19.0055866  38.8221130  35.0525589  18.8727360
  38.1718903  35.6985016  18.0468349  39.7903557  35.5923271  19.3969212
  36.6189041  34.2907104  21.6539173  36.3984070  35.5209084  21.6289883
  35.6841431  33.4076653  21.6111374  36.0112457  32.4705429  21.7979622
  34.2481155  33.6335793  21.3061810  34.0929565  34.1166916  20.3414898
  33.3634071  32.3337479  21.3623981  33.5643806  31.6999722  22.2261353
  32.3295403  32.6721573  21.4308910  33.7813759  31.5834827  20.1098099
  34.7929497  31.7821140  19.7557354  33.8192444  30.5122337  20.3075180
  32.9839973  31.7738552  18.8685131  31.7315311  31.4362240  18.8850365
  33.4856758  32.0085335  17.7471199  33.6122551  34.5985756  22.3066235
  32.7816925  35.4714127  21.9231434  34.0576248  34.5276031  23.5515747
  34.7427254  33.8149147  23.7584972  33.4953079  35.4239044  24.6473713
  32.6901703  36.0707169  24.2988033  33.0787811  34.5972252  25.9135036
  33.8778954  33.9225273  26.2205830  32.8649979  35.1627655  26.8204556
  31.8978634  33.8098602  25.5602036  30.8443069  34.3927383  25.3425999
  32.0558777  32.5218849  25.3379707  31.2825737  32.0946655  24.8484955
  32.9722710  32.1526375  25.5476894  34.5451164  36.5172234  25.0820408
  34.3028641  37.1421700  26.0805378  35.7055588  36.6624603  24.4116745
  35.8537788  36.0466652  23.6249542  36.6905365  37.7225266  24.5375500
  37.5452194  37.4783325  23.9066906  36.0219193  39.0670662  24.0936165
  35.3693237  39.5412369  24.8266792  36.8115311  39.7937012  23.9022579
  35.1854134  39.0270386  22.8073463  35.6556816  38.5602646  21.5517864
  36.5886574  38.2357712  21.3411694  34.7571297  38.7610893  20.5734921
  34.9019241  38.3919945  19.5688992  33.6641617  39.2450104  21.2066612
  32.8116035  39.4937134  20.7256298  33.9344101  39.4318237  22.5763435
  33.1968384  39.7227974  23.3096447  37.2838974  37.9112091  25.9065247
  37.6524048  39.0628395  26.2147713  37.2955017  36.9219971  26.7962971
  36.8719559  36.0942574  26.4018993  37.5954514  36.9481163  28.2402935
  37.3006821  37.9593582  28.5206490  36.7339897  35.9868584  28.9693546
  35.6954994  35.9601555  28.6393147  37.3253822  34.5949974  29.0412369
  37.7982483  34.4925537  28.0645065  37.9749222  34.5973396  29.9165630
  36.4797630  33.9099731  28.9798851  36.6930084  36.3786011  30.3374424
  36.2851753  37.2469673  30.3722916  39.0599594  36.8643837  28.6022110
  39.8052597  36.6900940  27.6795311  39.4618721  37.0443649  29.8578987
  38.8126984  36.8174591  30.5976200  40.8619957  36.9849167  30.2615547
  41.2361259  36.2660408  29.5326214  41.5228119  38.3836517  30.0502377
  42.5971107  38.4798279  30.2075081  41.3701134  38.6059418  28.9941273
  40.8401718  39.5255127  30.8209343  39.7721901  39.4517517  30.6158142
  40.9303284  39.3556213  31.8938351  41.4041824  40.8732910  30.4868546
  42.4477272  40.8996887  30.8005600  41.2017326  41.1733742  29.4587135
  40.6644707  41.9309196  31.3385620  40.8922958  41.6276855  32.3604469
  41.1293907  42.9057770  31.1915970  39.2157173  42.0986443  30.9624348
  38.8872337  43.0282021  31.1818123  39.1342316  41.9821854  29.9624825
  38.5906181  41.4138947  31.3630219  40.9343109  36.4303169  31.7885475
  39.8843880  36.4337730  32.5246849  42.0542412  35.8521118  32.2223320
  43.3365707  35.9132652  31.5100956  43.5472946  36.9810600  31.4508057
  43.2603188  35.4925385  30.5074635  44.3584442  35.2171974  32.3907700
  44.8094635  36.0168877  32.9782906  45.0209084  34.6720848  31.7183895
  43.5620842  34.3789444  33.4097214  44.0524864  34.4069862  34.3827667
  43.5339355  33.3245964  33.1346588  42.0795441  34.9480400  33.3700218
  41.4385109  34.0687943  33.3058662  41.7108803  35.6393280  34.6465454
  41.0005569  35.1244812  35.5212326  42.2448845  36.8628998  34.8182526
  42.6290359  37.2769661  33.9809494  41.9912796  37.6613426  36.0514603
  42.3295708  37.1301155  36.9411011  42.9109497  38.8429718  36.1358299
  42.8176613  39.2026367  37.1605453  43.9658737  38.5721588  36.0922089
  42.6205406  40.0428772  35.1962051  41.5428619  40.1007309  35.0433655
  42.8435669  40.9820900  35.7024078  43.4340858  39.8909912  33.9035568
  43.8680305  40.9188843  33.3959961  43.5351028  38.7933044  33.2737885
  40.5474701  38.0363808  36.2338257  40.2449112  38.3602104  37.3393555
  39.6829376  37.9724655  35.2435379  39.9884224  37.7878304  34.2987137
  38.1889572  38.1827507  35.3887863  37.9874573  38.9132347  36.1722946
  37.5371780  38.6506348  34.0733185  37.8406258  38.0173378  33.2396812
  36.4575005  38.6889496  34.2179947  37.8469353  40.0874939  33.6721001
  38.0606346  41.0107727  34.5103378  37.7040138  40.3738785  32.4469948
  37.4687614  36.8648987  35.8552704  36.3457336  36.9022217  36.3784065
  38.1226540  35.6969452  35.8357582  39.0648193  35.5530090  35.5015335
  37.5440369  34.3690300  36.0116501  36.4830894  34.4098663  35.7650337
  38.1958809  33.3174706  35.1159821  39.2847328  33.2675209  35.1177750
  37.6306839  31.9669380  35.5341949  37.9797668  31.5832729  36.4928627
  36.5422134  31.9313507  35.4887505  37.9761696  31.3219547  34.7262726
  37.6217041  33.6711960  33.7258759  38.0672188  34.6528893  33.5649452
  37.8785629  32.9384155  32.9609184  36.5337639  33.7237358  33.7674789
  37.6090240  34.1315804  37.5606041  38.7238045  34.1985664  38.1316681
  36.4430275  33.9246483  38.1430054  35.6372108  33.7803535  37.5514450
  36.3869667  33.6690369  39.6015625  36.8659363  34.4526596  40.1886063
  34.8918037  33.4854889  40.0399170  34.4949188  32.6438904  39.4722061
  34.6456261  33.3661041  41.5999832  35.1472549  32.4804726  41.9900360
  35.0704842  34.2387161  42.0961075  33.5797806  33.2732735  41.8084488
  34.0552673  34.7768135  39.4765930  32.9773750  34.7376823  39.6337814
  34.4695549  35.7443657  39.7599831  34.1492043  34.7932014  38.3907738
  37.0341682  32.3027878  39.9392815  37.8159447  32.2535515  40.8947296
  36.6053886  31.3135490  39.2283401  35.9223099  31.5512180  38.5233459
  36.9103317  29.9314365  39.4351196  37.9938774  29.8440990  39.3551216
  36.3119659  29.4661713  40.8123856  36.5036278  28.4014225  40.9453392
  36.6435928  30.0480595  41.6723480  34.7985611  29.5238342  40.8467522
  34.4456139  30.5094872  40.5434074  34.3735580  28.7857113  40.1665688
  34.1141548  29.3150158  42.2359085  34.7383652  29.5727806  43.2997246
  32.8786545  29.0317822  42.2345352  32.3771362  28.9210396  43.1041985
  32.4821396  28.8989773  41.3151665  36.3277779  29.0904160  38.2487450
  35.3523178  29.5038471  37.6196136  36.6995354  27.8081551  37.9610481
  37.3915482  27.4514904  38.6044807  36.3273087  26.9351006  36.8311653
  35.4215851  27.2508240  36.3133965  37.5208206  27.0198784  35.8735313
  37.7666969  28.0607777  35.6633606  38.3448792  26.6695042  36.4950371
  37.4410629  26.1141663  34.5835266  37.2735100  25.1179886  34.9929886
  36.6489601  26.5089626  33.9472771  38.9710159  26.0507946  33.5986633
  38.8325577  27.7269840  33.0216103  37.7987518  28.0648155  32.9494553
  39.3779984  28.4556007  33.6213684  39.3533859  27.7799911  32.0655594
  35.9796867  25.4822216  37.3315735  36.4795189  25.0114098  38.3187523
  35.2061958  24.7537861  36.5565376  34.8970985  25.2229862  35.7172470
  34.6536560  23.4617825  36.9765282  35.2335892  22.9918232  37.7708282
  33.1920929  23.7687149  37.4980240  32.7845535  24.4281960  36.7318039
  32.6146584  22.8447056  37.4683990  33.1301384  24.2807388  38.9742088
  33.7046432  25.1856270  39.1722565  31.6679382  24.6416016  39.0991440
  31.3784618  25.3825397  38.3539467  31.0301685  23.7588673  39.0530014
  31.4300995  25.0264950  40.0908012  33.6129532  23.2553539  40.0026436
  33.1030807  23.4524174  40.9456711  33.4948425  22.2077789  39.7256241
  34.6764717  23.4456501  40.1468964  34.6168213  22.6096401  35.7236786
  33.9631844  23.0445824  34.7677879  35.3750572  21.4721889  35.5870972
  35.8987389  21.2114849  36.4104347  35.6254692  20.6747551  34.3827019
  34.9641380  20.9577599  33.5637703  37.1679993  20.8305912  34.0770493
  37.8143883  20.7153339  34.9471054  37.4726601  20.0270767  33.4064903
  37.5147667  22.1049824  33.2461395  37.0885849  22.9931335  33.7126770
  39.0010147  22.2808037  33.0984344  39.5563126  21.4844151  32.6029549
  39.2033844  23.2601986  32.6649246  39.3918571  22.2823296  34.1159515
  36.9315605  22.0199699  31.8029709  35.8444824  22.0264530  31.8825092
  37.1937027  22.8513527  31.1486130  37.2378349  21.1298523  31.2534370
  35.3430214  19.2246494  34.6277847  35.3145752  18.7401276  35.7527008
  35.1476097  18.4133549  33.5919075  34.9711342  18.8628502  32.7048264
  34.7991142  16.9425793  33.6553383  35.3024635  16.4225922  34.4704170
  33.2465477  16.8691120  33.8579941  32.9683342  15.8172140  33.7931480
  32.9885216  17.2717094  34.8375053  32.5048790  17.5168228  32.8624687
  32.3139572  16.8585682  32.1902695  35.0270500  16.1794224  32.3795662
  34.9819946  16.7493839  31.3191547  35.2765617  14.8588610  32.5023613
  35.3359680  14.5086784  33.4478455  35.0743103  13.8780899  31.4180660
  34.4718933  14.3534107  30.6439438  36.3960342  13.5058947  30.8351269
  36.0738831  12.9907389  29.9301758  36.9327774  14.4110661  30.5510979
  36.9869080  12.7892427  31.4055462  34.3033638  12.6687450  32.0190582
  34.2891464  12.4864159  33.2246399  33.5414619  11.9907637  31.1465988
  33.4849815  12.4142237  30.2313995  32.5878754  10.9337626  31.5376339
  31.9216633  11.4944344  32.1933098  31.6759930  10.5569525  30.2848320
  31.2311420   9.5864429  30.5046520  30.3869686  11.4790764  30.1606503
  29.7604713  11.1203346  30.9772911  30.6633968  12.5331707  30.1846275
  29.8001938  11.2024975  29.2846947  32.2394028  10.4603214  29.0176945
  32.3307915   9.5332012  28.7859688  33.2165680   9.7099695  32.2055702
  34.4424782   9.5650291  32.1855583  32.4715195   8.9148102  33.0053864
  31.1340923   9.2953224  33.4548721  30.4568520   9.4397297  32.6130943
  31.2398090  10.2381754  33.9914856  30.6181870   8.1119776  34.3396339
  29.6315060   7.7374892  34.0670204  30.4619293   8.4531298  35.3630104
  31.7108765   6.9733195  34.2286873  31.3604622   6.2480102  33.4943581
  31.9055672   6.3910141  35.1293068  32.9601326   7.6715517  33.6494102
  33.5573158   8.0224037  34.4910583  33.7297134   6.6045485  32.7695465
  34.4370384   5.8123984  33.3717384  33.5288124   6.6283274  31.4707813
  33.0027122   7.3835235  31.0548401  34.3208504   5.8787761  30.4414597
  34.5193520   4.9111481  30.9023209  33.3862419   5.5008936  29.2311840
  33.9506531   4.9469514  28.4810562  32.6107826   4.8418269  29.6215611
  32.8410912   6.7360110  28.3974228  32.7968864   6.6344118  27.1445198
  32.4989548   7.8232589  28.9565811  35.7052612   6.4502263  30.1563816
  36.3450012   5.8383656  29.2539101  36.1758537   7.4836893  30.8065262
  35.7092209   7.5849190  31.6965313  37.3482056   8.2702541  30.4763393
  38.0323563   7.7286654  29.8231049  36.9806671   9.6966076  29.9151402
  36.3419609  10.3053112  30.5551662  37.8836060  10.3071804  29.9160538
  36.3013344   9.7333765  28.4712677  35.3438721   9.2155991  28.4140549
  36.0422325  11.1749115  27.9288788  35.7282143  11.1833706  26.8851261
  35.3558197  11.6686687  28.6167316  37.0046959  11.6856852  27.8994026
  37.2140846   8.9937201  27.4950390  36.8128166   9.0218058  26.4819756
  38.2240944   9.3968773  27.4212399  37.3808632   7.9379764  27.7087898
  38.1744308   8.4042292  31.7193546  37.6521454   8.4976530  32.8230057
  39.4805908   8.1384516  31.6609402  39.8607635   8.0221806  30.7324734
  40.3636208   7.8340607  32.8415871  39.9380035   8.1608114  33.7903671
  40.5726891   6.3434238  33.0021935  41.2665482   5.9777684  32.2452545
  40.9634743   6.1180325  33.9944572  39.3267937   5.4340677  32.7830429
  38.1950989   5.5667663  33.5454330  38.1128426   6.2478013  34.2867317
  37.4044991   4.5404744  33.1493149  36.4891014   4.2822556  33.6609497
  38.0294647   3.7162337  32.2910233  37.6059685   2.9336538  31.8131962
  39.2656021   4.3043847  31.9742050  39.9440765   3.8102679  31.2945499
  41.7554550   8.4699373  32.7785416  42.3307838   8.5719805  33.8822403
  42.3824310   8.7749939  31.6740856  41.9761467   8.4064341  30.8260288
  43.8126144   9.0329180  31.5601330  44.3055305   8.0953016  31.8170509
  44.1165009   9.2808647  30.1226196  43.7707481   8.4234924  29.5451584
  43.7135658  10.2301722  29.7696915  45.1906471   9.3228865  29.9421921
  44.3248024  10.2286854  32.4074707  45.5212746  10.2166052  32.8003807
  43.5738106  11.3371458  32.4648209  42.6232147  11.2053337  32.1500282
  44.0638046  12.6635542  32.9157829  44.9188690  12.5159416  33.5754623
  44.6526566  13.4844971  31.7592430  45.5221291  12.9562244  31.3680325
  43.7002296  13.7065334  30.6549530  44.1202011  14.3800077  29.9078560
  43.2903252  12.8093462  30.1911278  42.7426186  14.1449852  30.9357433
  45.2819557  14.8132553  32.2272682  44.5185471  15.5479469  32.4832611
  45.6733551  14.7395716  33.2419014  45.9391365  15.1876307  31.4423733
  42.9206123  13.4297056  33.6162567  41.7821922  13.4181318  33.2578964
  43.2263947  14.1901417  34.6984558  44.2091064  14.2921057  34.9081764
  42.3424225  15.2433481  35.2876205  41.3597717  14.8469772  35.5433350
  42.9263878  15.5938663  36.6675491  44.0151024  15.6459103  36.6769600
  42.6477661  16.5655518  37.0753479  42.5960846  14.7586422  37.7911034
  41.4202766  14.9033318  38.4548798  40.6939659  15.6000423  38.0631294
  41.2006340  14.1997604  39.7257004  40.2265663  14.2876148  40.1838226
  42.2829208  13.4070816  40.1738930  42.1478043  12.8608837  41.0957451
  43.4370842  13.1555271  39.4707870  44.2493896  12.5835152  39.8943024
  43.5753098  13.8586483  38.2553062  44.4908218  13.7671614  37.6897354
  42.2421761  16.4904060  34.3542519  43.3343163  17.0538006  34.1428757
  41.1120033  16.8840446  33.7759781  39.8523407  16.1727371  33.6964569
  39.2470131  16.5420723  34.5242691  39.9978409  15.0941963  33.7571144
  39.2597198  16.5136375  32.3349991  38.1754417  16.4039879  32.3145943
  39.7597694  16.0143795  31.5050640  39.6344490  17.9789562  32.2319336
  38.9494743  18.4766750  32.9183655  39.5195427  18.3726559  31.2220345
  41.0678864  17.9449272  32.7681046  41.7224312  17.7035904  31.9305897
  41.5447960  19.3411751  33.1954918  41.9109039  20.0945988  32.2344971
  41.6082344  19.6710548  34.4701462  41.0384827  19.1315575  35.1060867
  42.3440094  20.9077511  34.9689903  41.7453880  21.7902794  34.7433815
  42.4800224  20.7798519  36.4876404  43.0892792  21.5280819  36.9946518
  41.4659195  20.9716148  36.8382416  42.8345261  19.7584972  36.6263962
  43.7635727  21.0882664  34.3711853  44.1403732  22.2133312  34.1219826
  44.4539108  19.9816494  34.0318642  44.0487099  19.0864353  34.2653236
  45.7010841  19.9511108  33.2913742  46.4219360  20.4469147  33.9414902
  46.0983810  18.5312195  33.0918617  45.6624374  17.8944759  33.8616714
  45.6913681  18.1847839  32.1418991  47.5750427  18.3741627  33.1027412
  47.9576607  19.1176014  32.4034538  47.9930801  18.5625515  34.0916061
  48.0067329  16.9455070  32.6561470  47.6473770  16.1867886  33.3513527
  47.5343742  16.7390022  31.6957626  49.4600830  16.9655399  32.6037102
  49.7083588  17.7456093  31.8840199  49.8155518  17.3032093  33.5772209
  50.1738358  15.7656050  32.1323624  51.1647224  15.8921509  31.9832649
  50.0236282  14.9666157  32.7316589  49.8931885  15.4492893  31.2151508
  45.7511787  20.7911339  31.9692478  46.8912544  21.2083111  31.7028484
  44.6419640  21.0294952  31.2166481  43.7913704  20.5294094  31.4322968
  44.7522812  21.9759502  30.1569214  45.6463737  21.7547302  29.5740280
  43.5380821  21.6948299  29.1626949  43.6091576  22.4202099  28.3522224
  43.5819130  20.6571598  28.8319092  42.6149940  21.9573879  29.6794949
  44.7801476  23.4895515  30.4974670  45.1866798  24.3565197  29.6985588
  44.4559937  23.9172955  31.7195492  44.2000771  23.2383175  32.4221153
  44.1620102  25.3450089  31.9819717  43.6255951  25.7699871  31.1335888
  43.2673454  25.5274773  33.2128296  43.7648697  24.8990040  33.9514694
  42.8106537  26.8988037  33.6935081  42.2174911  27.4675846  32.9774513
  42.0920219  26.7955971  34.5065384  43.7119598  27.4346466  33.9911995
  42.0181046  24.6691246  33.0108566  42.2195473  23.6011524  33.0942612
  41.3186111  24.9187298  33.8086700  41.6945267  24.8850746  31.9926414
  45.4996262  26.1436424  32.3031273  45.4628563  27.3647079  31.9978657
  46.6146164  25.4158840  32.6052055  46.5637894  24.4739876  32.9662437
  47.9728279  25.9710617  32.6049042  47.9532852  27.0518818  32.7447281
  48.6932716  25.4776611  33.8571205  49.6139755  26.0344963  34.0313072
  48.0663528  25.6654930  34.7287827  48.7874756  23.9017334  33.8089485
  47.7802505  23.4875469  33.7636909  49.4229355  23.5754871  32.9856300
  49.4101791  23.3207321  35.1369514  50.4968643  23.2386971  35.1148109
  49.0058479  23.8166943  36.0193558  49.1126556  21.8785763  35.2632713
  49.8170395  21.1712666  35.1094513  47.9681396  21.4052029  35.7194786
  46.9142723  22.1138344  35.9240494  46.1700401  21.6307468  36.4065857
  46.8650780  23.0681248  35.5969048  47.8532829  20.1449509  36.1103477
  47.0282669  19.8057041  36.5840149  48.6645699  19.5833340  35.8947029
  48.7907104  25.7282104  31.3436508  50.0104752  25.8535881  31.4087505
  48.1582184  25.5513916  30.1460552  47.2076759  25.2101231  30.1358471
  48.8016853  25.6232433  28.8181210  49.8465843  25.3196049  28.8820953
  48.0553627  24.8561420  27.7457352  47.0290642  25.1803913  27.5734673
  48.4924355  24.9112301  26.7487221  47.9278450  23.3480415  28.0198326
  47.6460037  23.1601486  29.0558643  47.0973320  23.0682392  27.3717136
  49.1379509  22.6388092  27.5807590  50.0299454  22.5650597  28.4045696
  49.1320877  22.2963486  26.3780575  48.9917221  27.0833378  28.3450680
  49.7033195  27.2830467  27.3337517  48.2671928  28.0179958  28.9498806
  47.7562714  27.7188015  29.7681351  48.3194084  29.4353542  28.7156563
  48.9903259  29.5452271  27.8636589  46.9374809  29.9699001  28.3357639
  46.3403435  29.9731598  29.2476406  47.1185799  31.0107479  28.0675507
  46.0894051  29.1397209  27.3193550  45.8358841  28.1148720  27.5904846
  44.7915344  29.9555588  27.0273819  44.1092300  29.3953590  26.3880482
  44.2373505  30.0981350  27.9550972  44.9703712  30.8873005  26.4907513
  46.8519363  29.0637627  26.0258045  47.1820869  30.0415859  25.6751537
  47.7991676  28.5251122  26.0523396  46.1960678  28.6848507  25.2419910
  48.9577560  30.1374741  29.9325409  48.9836121  29.5574055  31.0264721
  49.4805756  31.3380470  29.6449890  48.9922600  31.7480507  28.8616982
  50.0723610  32.2893410  30.5437984  50.5719681  31.6972275  31.3105450
  51.1418304  33.1581802  29.8761272  50.8061028  33.9167671  29.1690636
  51.5569534  33.7197952  30.7130051  52.3090591  32.5156364  29.2958317
  52.9088364  33.2317238  29.0742741  48.9011154  33.1135101  31.1852016
  47.8646126  33.2932205  30.5759964  49.0567131  33.6029129  32.4608574
  49.9971695  33.4202728  32.7806778  48.0641785  34.1149216  33.3899956
  48.5734787  34.4013634  34.3101387  47.6513901  35.0471344  33.0044060
  47.0341759  33.1647301  33.8618431  46.5717239  33.3747864  34.9921227
  46.7070160  32.1283379  33.0642357  46.9238472  32.2371864  32.0838089
  45.6109047  31.2276001  33.4330025  44.8237534  31.8601437  33.8433418
  45.1651802  30.3693619  32.2140694  46.0199203  29.9499016  31.6834373
  44.5420036  29.5665016  32.6079826  44.3297844  31.1930065  31.2234612
  44.8807220  31.9810352  30.2230988  45.8958893  32.0104904  29.8557148
  43.9032516  32.7909241  29.6792526  44.0876389  33.6017570  29.1059723
  42.6473732  32.5031548  30.2761459  41.3634491  33.1212158  30.1682358
  41.1196442  33.8599434  29.4190788  40.3442650  32.5510292  30.9313068
  39.3064613  32.8348083  30.8373108  40.6334839  31.3854828  31.7629700
  39.8387604  30.9124870  32.3207245  41.9004555  30.9126530  31.9214611
  42.0437431  30.0097942  32.4965439  42.9163895  31.4156742  31.1182365
  45.9502335  30.1943111  34.5363808  45.0895729  29.4444294  35.0731239
  47.2287750  30.0410786  34.8116837  47.9069862  30.4860554  34.2099113
  47.7524796  29.0992184  35.7623787  47.3945084  28.0871334  35.5735550
  49.2773743  28.8043365  35.7264023  49.4880104  28.0540161  36.4884758
  49.6347504  28.4358158  34.7648544  50.1838608  29.9870071  36.0453224
  49.7971001  30.5932636  36.8644524  51.1416473  29.5441685  36.3185196
  50.4343681  30.9893284  34.9257889  49.6559219  31.2225914  33.9690781
  51.5256538  31.6259079  34.9639168  51.6551208  32.2484856  34.1792297
  52.1453209  31.7220898  35.7556610  47.3680229  29.4392891  37.2302208
  47.5088730  28.5618458  38.1502342  46.9322014  30.6852245  37.4926987
  46.9652786  31.2655239  36.6667099  46.5093269  31.1850319  38.8232803
  46.8593712  30.6172943  39.6853943  47.0212975  32.6363144  39.0090523
  46.3720474  33.2897148  38.4262657  46.8656731  33.0161438  40.0188103
  48.5450211  32.8576241  38.6685677  49.4858665  32.3791275  39.6283073
  49.1785774  31.8930225  40.5424614  50.9038010  32.4265976  39.3479004
  51.6684532  32.0172539  39.9914398  51.2724419  32.9768295  38.1361122
  52.6169777  33.0138474  37.7974014  53.1923790  33.0301437  38.5656776
  50.3794746  33.6550446  37.2777557  50.6857948  34.0294113  36.3121376
  49.0173874  33.6226273  37.5841522  48.3578033  34.0469093  36.8416290
  44.9521523  31.0776711  38.9221230  44.4469833  31.5088272  39.9304008
  44.3067169  30.4898911  37.9565277  44.8188286  30.2730217  37.1134300
  42.8362541  30.4614315  37.9359093  42.4468155  31.3393803  38.4513206
  42.2709160  30.5269184  36.5005569  42.7382736  29.6999149  35.9660110
  40.7607117  30.2169247  36.5340729  40.1959000  30.6716537  37.3478928
  40.2681274  30.4623680  35.5932121  40.5652008  29.1624870  36.7290955
  42.5412216  31.8825035  35.8076324  42.1112289  32.6917343  36.3978539
  43.6126251  32.0789337  35.8477440  42.2306709  31.8013325  34.7659683
  42.3808327  29.1484089  38.6619301  42.8006973  28.0520210  38.2568855
  41.5915146  29.2145672  39.7870903  40.9978981  30.4511719  40.3162918
  40.6168327  31.1563225  39.5776062  41.7671432  31.0489521  40.8051910
  40.0265923  30.0764008  41.4691315  39.0726852  29.7918396  41.0250740
  39.8303909  30.9352760  42.1109581  40.7139473  28.8061199  41.9187279
  40.1359406  28.0951996  42.5091515  41.5964165  29.1513920  42.4573708
  41.2629204  28.0969105  40.6843414  42.1600761  27.5823822  41.0285454
  40.2829094  27.1423969  40.0800438  39.1866341  27.4864349  39.7078018
  40.7728157  25.8643665  39.9279823  41.7578125  25.7879372  40.1378365
  40.0294228  24.7554798  39.2566338  38.9740067  25.0236950  39.3041115
  40.3738365  24.7778530  37.7641563  40.0420189  25.7665367  37.4471321
  41.8787498  24.7374039  37.5270958  42.1018906  24.9072647  36.4737892
  42.4705544  25.4547062  38.0957336  42.2953568  23.7759418  37.8273048
  39.7439156  23.6250114  36.9661674  40.1189384  22.6850471  37.3710556
  38.6813698  23.5919838  37.2069969  39.7378044  23.6708031  35.8771439
  40.1330910  23.3488331  39.9887123  40.9778671  23.1348953  40.8422966
  39.0763664  22.5736485  39.8238869  38.2294846  22.9480782  39.4205284
  38.9930382  21.2225418  40.2482986  39.9769249  20.7753925  40.1064224
  38.5718956  21.2214909  41.7487411  38.8680992  22.2164707  42.0809784
  37.0943604  21.0392570  42.0461502  36.9009399  21.2181702  43.1038284
  36.5454216  21.7595882  41.4396133  36.7822647  20.0149765  41.8423157
  39.2895012  20.2593079  42.4689369  38.9555092  19.4199276  42.1441422
  38.0035477  20.4176540  39.4132767  37.2258148  21.0318089  38.6340904
  38.0765953  19.0794525  39.4891930  38.7600174  18.6870213  40.1208839
  37.3941956  18.0996590  38.5872002  37.0667229  18.7228222  37.7550163
  38.4827614  17.2420883  38.0075378  38.8870125  16.6236649  38.8089294
  38.1892662  16.4562206  37.3115654  39.6608925  18.2573967  37.0752602
  40.6017342  18.1762333  38.0203171  36.1659088  17.3870583  39.1277695
  36.2244034  16.1515770  39.4285889  35.0014610  18.1224689  39.1902428
  35.0991020  19.0428047  38.7858315  33.6908989  17.5732460  39.5089989
  33.5337868  17.3600311  40.5663376  32.6198540  18.5817566  39.2040291
  31.6215706  18.2237740  39.4557877  32.9061050  19.3797188  39.8891678
  32.8074303  19.1906834  37.7829475  33.7128563  19.7649956  37.5868073
  32.8851967  18.4145718  37.0215607  31.5315647  20.3726997  37.1440163
  31.8690720  20.1260891  35.4467239  31.4640217  20.8906498  34.7837868
  32.9520035  20.0990448  35.3257637  31.5227375  19.1390629  35.1402321
  33.4309044  16.2706833  38.6689644  33.7060127  16.1843109  37.4593277
  32.9017563  15.2620535  39.3508644  32.8913918  15.2583208  40.3608017
  32.4723511  13.9794302  38.9587135  33.2759628  13.6347628  38.3079376
  32.4100227  12.9365883  40.0903664  33.3986473  12.8506441  40.5412979
  31.6620293  13.3349028  40.7758980  31.8801956  11.5877571  39.8191948
  31.6745319  11.0037146  40.7162399  30.8605614  11.7615328  39.4753227
  32.6875801  10.8523130  38.7886391  33.8421173  10.4712734  38.9557152
  32.0912056  10.5128145  37.6798019  31.1445713  10.6842155  37.3722305
  32.6774216  10.2219238  36.9104958  31.1463337  13.9937878  38.1302414
  30.0855999  14.3870087  38.6719551  31.2169323  13.6600132  36.8667603
  32.1031227  13.4478722  36.4311371  30.0843201  13.5606689  35.9992867
  29.5576324  14.5083370  36.1116867  30.7641258  13.4610300  34.5693207
  31.4713306  14.2734118  34.4019890  31.3888855  12.5680733  34.5492287
  29.6736336  13.4938469  33.4906998  30.1154613  13.1541643  32.5539474
  28.9313507  12.7515707  33.7842102  28.9742413  14.8026190  33.1426163
  28.8862400  15.1188154  31.9120827  28.4802570  15.4579344  34.1014061
  29.1884556  12.3758478  36.3679199  29.7064762  11.2809820  36.4226646
  27.9083042  12.6137838  36.6270561  27.5936165  13.5716791  36.5678406
  26.9166374  11.5435886  36.7884026  27.4381256  10.7455854  37.3169327
  25.7180443  11.8629885  37.6314125  25.2399235  10.9146624  37.8767242
  26.1786747  12.2131805  38.5551491  24.6555920  12.8661118  37.0580025
  25.0425282  13.8397989  36.7574806  24.1689587  12.4820433  36.1614647
  23.3363476  13.4166288  38.1521416  22.0126495  12.1890001  37.8373718
  21.7646961  12.0836010  36.7811966  22.5517464  11.2422657  37.8715439
  21.1357136  12.2288427  38.4835129  26.6275921  10.6994209  35.5711250
  26.5740547  11.1379547  34.4180984  26.5183620   9.3548861  35.7605934
  26.4063892   8.9855728  36.6939583  26.4664040   8.2725973  34.7814789
  27.1482239   8.4562960  33.9511299  26.9975243   6.9678025  35.4397163
  27.9660797   7.2306976  35.8650246  26.3207951   6.8380923  36.2842941
  27.1813087   5.7704239  34.5247955  27.9308910   4.8829398  35.0183258
  26.6166306   5.5688214  33.4415359  25.0532856   8.1241627  34.3080215
  24.2336559   7.4522977  34.9567223  24.6592903   8.8893204  33.3035355
  25.4462624   9.4656506  33.0415802  23.2625065   9.0926199  32.8681183
  22.6638374   8.7436037  33.7094765  22.9332962  10.6056595  32.6092148
  23.6208210  10.9688520  31.8453426  21.5529213  11.0219975  32.0998077
  20.8171539  10.6473303  32.8114014  21.4566669  12.0982704  31.9567337
  21.3417664  10.5795021  31.1263008  23.2009830  11.3540154  33.9440804
  24.2598515  11.2534714  34.1823959  23.0051270  12.4136677  33.7801323
  22.6320591  11.0112181  34.8083229  22.8319492   8.2190018  31.6461468
  23.6371555   7.9538493  30.7362537  21.6415577   7.6776438  31.7181015
  21.0865002   7.9460607  32.5180817  21.1546726   6.6612682  30.8403435
  21.8812466   5.8663712  30.6720352  19.9834251   5.9497738  31.5639591
  19.3181458   6.6939850  32.0017395  19.3276882   4.9802647  30.6099072
  18.7114830   5.6375980  29.9964638  20.0686436   4.4891863  29.9790936
  18.6992588   4.2522664  31.1229343  20.4457512   5.0088706  32.4836884
  20.9806995   4.4041381  31.9643345  20.8140049   7.1147099  29.4232292
  20.1654263   8.1189508  29.2662983  21.1849022   6.3584437  28.3815804
  21.6374760   5.4635320  28.5016232  21.1361446   6.8812423  27.0075741
  21.3947029   6.0687084  26.3285789  20.1745548   7.2836542  26.6889706
  22.0208206   8.1098986  26.8559895  21.6729546   8.9010592  26.0138054
  23.0870934   8.2301426  27.5998154  23.2224216   7.5286770  28.3137703
  23.9631882   9.3538685  27.5775127  23.3892326  10.2660933  27.4146576
  24.5077057   9.5156660  28.5077934  25.1069469   9.3620043  26.6213722
  25.3613243   8.2598248  26.0987453  25.6317654  10.5187759  26.2241688
  25.1618443  11.3312016  26.5973167  26.7061005  10.5653486  25.3053131
  26.3557777  10.0553761  24.4079266  26.9664574  12.0234690  24.8773594
  26.0365028  12.5579138  24.6833096  27.4926929  12.5003061  25.7042809
  27.8605099  12.2283316  23.6972885  28.8758183  11.9721546  23.9999847
  27.4925919  11.3936262  22.5368118  27.7145443  10.3330698  22.6553669
  26.4229965  11.5112200  22.3629131  27.9484673  11.7035303  21.5964737
  27.7889786  13.6937075  23.2712326  28.1777782  13.8981800  22.2736721
  26.7760601  13.9918251  23.0006351  28.2854557  14.2667494  24.0543251
  27.9635715   9.9505463  25.9419842  28.2642231  10.1757612  27.0992928
  28.7228432   9.2269535  25.1254387  28.2788162   8.9741917  24.2542019
  29.9333344   8.5374870  25.5044823  29.8864861   8.4915733  26.5925083
  30.1578293   7.0963445  24.8917351  30.5539875   7.1357179  23.8770409
  30.9923973   6.5984082  25.3853512  28.9895020   6.1654634  24.8931484
  28.1333675   6.6667218  24.4416218  29.2643242   5.2493515  24.3703556
  28.5838108   5.8306880  26.3709736  29.4285812   5.4440422  26.9410343
  28.3217812   6.7580562  26.8803139  27.4287415   4.8155346  26.3080235
  27.1286011   4.6907988  27.3484364  26.6579952   5.3090057  25.7159634
  27.7771568   3.4469008  25.8279781  28.1674023   3.4608016  24.8965187
  28.4531422   3.0230963  26.4472809  27.0156174   2.7842038  25.8594360
  31.2201347   9.3450937  25.2175713  31.2711277  10.1322536  24.3124046
  32.3061905   9.1946049  25.9476490  32.2268982   8.5427265  26.7150269
  33.5517006   9.9184208  25.6336002  34.1074448   9.7545519  26.5568523
  34.3151741   9.2921352  24.3828907  33.6479530   9.5794687  23.5702686
  35.2647705   9.8218479  24.3068943  34.6368027   7.7795811  24.4140491
  35.2076721   7.5840673  25.3217850  33.7429199   7.1796970  24.5849667
  35.5104828   7.2109857  23.2410049  36.2587433   7.9972954  23.1413841
  35.9196510   6.2160649  23.4165363  34.7066498   7.3167458  21.9518223
  34.0152206   8.1519756  21.8404026  35.2829857   7.3837142  21.0290794
  33.8548737   6.1377335  21.7156296  34.3409424   5.2953649  21.9881439
  32.8984680   6.1043601  22.0385437  33.7783356   5.9557309  20.7251148
  33.4266739  11.4835911  25.5752144  34.1486397  12.1495781  24.7916603
  32.5197639  12.0721903  26.3606110  32.1023064  11.5070801  27.0862007
  32.2078171  13.5509052  26.4480648  32.5865707  13.9829578  25.5217934
  30.7095718  13.6595078  26.4580097  30.1676006  13.1636992  25.6526890
  30.3236771  13.2045717  27.3702698  30.1896286  15.3905602  26.6460361
  29.2974796  14.9882612  27.5554981  32.8969002  14.3034286  27.5921879
  33.0203133  13.8126097  28.7492428  33.3767128  15.5017796  27.2746143
  33.3494682  15.7086744  26.2864094  33.9699364  16.4987411  28.2468014
  34.0303116  15.8757639  29.1391888  35.3786964  16.8953552  27.7387867
  35.2363968  17.1704559  26.6937180  35.8203049  18.2522812  28.3686867
  35.7996559  18.2344666  29.4583492  36.8488159  18.4374943  28.0588989
  35.1570625  18.9868469  27.9119377  36.5022278  15.7782841  27.8078403
  36.8861313  15.7851915  28.8279743  36.0009041  14.8639603  27.4903736
  37.6052246  15.9649029  26.7333145  37.0204239  16.0856361  25.8214340
  38.2690468  16.8241177  26.8291874  38.1399307  15.0373259  26.5288715
  33.1237831  17.7091427  28.3774567  32.7488594  18.2504730  27.3330936
  32.8492393  18.2300682  29.6124401  33.2620163  17.8366871  30.4460869
  32.1026802  19.4682159  29.8079224  31.8486519  19.9216442  28.8498135
  30.7407436  19.1748257  30.4472294  30.8123207  18.8442535  31.4834251
  30.2468700  20.1436443  30.3725338  29.7833252  18.2948132  29.6010571
  29.7253189  18.6676445  28.5784454  30.2811470  17.3346348  29.4656658
  28.4001331  18.0728378  30.2398014  27.7440166  18.9181881  30.0324459
  27.8687477  17.2048092  29.8496037  28.4876804  17.7677498  31.6559525
  28.9030514  16.8562202  31.7851143  28.2314415  18.5364056  32.6687050
  27.6628914  19.7393627  32.4959030  27.3453388  20.1692810  33.3528900
  27.0868607  19.8151627  31.6697407  28.3675785  18.1141682  33.8865204
  28.2198505  18.7899914  34.6224136  28.7394962  17.1818275  33.9984016
  32.8876953  20.5676594  30.5018120  33.8929863  20.3727360  31.1602917
  32.3441887  21.7844276  30.3235760  31.5641766  21.8696270  29.6876373
  32.9480858  22.9848289  30.9328537  33.6875191  22.7665386  31.7033634
  33.6692085  23.8225384  29.7805977  32.8987846  24.1686268  29.0915661
  34.4735527  25.0209446  30.4386654  35.0014534  24.7729950  31.3595066
  35.2660294  25.4500027  29.8254852  33.7677383  25.8319168  30.6182728
  34.7282028  22.9406033  29.0896854  34.2430458  22.1338444  28.5402737
  35.3935204  23.3678684  28.3394203  35.3853722  22.4464550  29.8052616
  31.8782177  23.8526058  31.5258770  30.7561684  23.9373302  30.9289188
  32.1924782  24.3476143  32.7601509  33.1010780  24.2012463  33.1762276
  31.5226402  25.3931484  33.5136719  30.8252029  25.8630276  32.8201981
  30.7199402  24.6706257  34.6112213  29.9906902  24.0210323  34.1271515
  31.4146690  24.0099220  35.1297989  30.0137634  25.6323261  35.5613022
  29.6014767  25.1803722  36.4634438  30.8342857  26.2673855  35.8952942
  28.8755569  26.6577950  34.6491432  28.3835831  27.7710514  35.9362526
  27.6872025  28.5175514  35.5542946  27.8667240  27.2075195  36.7130318
  29.2860985  28.2090168  36.3625793  32.6057281  26.4344959  34.0220375
  33.6181145  26.0010109  34.5640106  32.2768326  27.7537975  33.9960136
  31.4667168  28.1444950  33.5364876  33.2363014  28.7407475  34.5953064
  33.6107330  28.3725700  35.5504761  34.3772278  29.0811386  33.5826721
  34.9927597  29.8391876  34.0670052  34.9560089  28.1776009  33.3910179
  33.8464775  29.6326599  32.2372093  33.2285767  28.9387951  31.6672535
  33.3733330  30.6019669  32.3942947  35.1612511  30.0102406  31.0453339
  35.6139259  31.5583801  31.7123699  36.3775063  31.9009342  31.0140190
  34.8590965  32.3049736  31.4655209  35.9783020  31.4897385  32.7373695
  32.4749985  29.9896317  34.9351578  31.3873100  30.1871567  34.2952690
  32.8700790  30.8329468  35.9246979  33.5961571  30.4063511  36.4823074
  32.2749405  32.1190033  36.3637962  31.3752613  32.2791481  35.7696304
  31.8324242  31.9587269  37.8070984  31.6933060  32.9278107  38.2863007
  30.4770660  31.3968010  37.7539291  29.7099857  31.9283428  37.1907692
  30.5627270  30.4162560  37.2856407  30.0789871  31.2826004  38.7621880
  32.6087837  31.1310310  38.7078514  32.0566139  30.3948822  38.9813271
  33.2405128  33.2642899  36.1060829  34.4737358  33.1249199  36.3319473
  32.7442741  34.3516045  35.4738121  31.7461510  34.4641533  35.3680611
  33.5715714  35.4305458  34.9061546  34.4798965  35.4139023  35.5084572
  33.9830475  35.1313744  33.4994202  34.4262199  34.1533165  33.3120461
  32.8119354  35.1527252  32.5026436  32.2671356  36.0964928  32.5271454
  33.1483727  35.0940819  31.4675236  32.1145020  34.3529282  32.7516823
  34.9929543  36.0560417  33.0146713  34.6724319  37.0958366  33.0794220
  35.8800430  36.0127525  33.6465683  35.2470284  35.7811356  31.9909668
  33.0355873  36.9362984  35.1383858  31.8097687  37.1220474  35.1136971
  33.8205109  37.9079018  35.5035591  34.7698555  37.6287994  35.7059250
  33.5190659  39.3152275  35.5159798  32.5582008  39.3891220  36.0252724
  34.5796852  40.0083733  36.2995644  34.6099548  39.5477028  37.2869682
  35.5557175  39.7848396  35.8688583  34.3674278  41.5475578  36.2649536
  34.6538391  41.8164101  35.2481995  33.3435287  41.8495407  36.4852600
  35.2322083  42.2521324  37.2908859  34.8413582  42.8584328  38.2857933
  36.5454369  42.2729073  37.0697327  37.1420097  42.9246330  37.5590706
  36.9764671  41.8439217  36.2633324  33.3096809  39.8536453  34.1208916
  34.2215500  39.8403893  33.3122940  32.1204834  40.2912560  33.8079491
  31.4193192  40.2221413  34.5316124  31.8088932  40.9241638  32.4845390
  32.6369400  41.5994797  32.2691574  31.7221756  39.9337959  31.2614422
  32.7208900  39.5046158  31.1809864  30.8087254  38.7579689  31.6665955
  30.8745956  37.9188461  30.9740391  31.1287251  38.3278618  32.6156502
  29.7627640  39.0313721  31.8055744  31.3719692  40.5907059  30.1082516
  32.0665436  41.2465858  30.0134354  30.5561085  41.7675972  32.4693146
  29.5305519  41.4161339  33.1583862  30.5880890  42.8297577  31.6916389
  31.4566650  43.1864815  31.3195839  29.4314842  43.7022476  31.4414768
  28.9911156  43.9353485  32.4109306  29.9581699  44.9668427  30.8845634
  29.0976925  45.5952492  30.6548138  30.3875656  45.5224190  31.7182636
  30.8690262  44.8446732  29.7094421  31.9244728  44.2612228  29.7476501
  30.4779053  45.3739510  28.6217728  28.3673096  43.1095009  30.5430183
  27.2535954  43.7620316  30.4625168  28.5292473  41.9363708  29.8558464
  29.3157063  41.3892860  30.1756592  27.5584564  41.3874245  28.8589058
  27.0886345  42.1698036  28.2628689  28.2468681  40.4763565  27.8432999
  28.7773495  39.6718559  28.3526764  27.2424698  40.0285873  26.6895447
  26.7545319  40.8641090  26.1876202  27.8179073  39.4309311  25.9825935
  26.4393082  39.4194946  27.1043205  29.3118992  41.3613281  27.1403751
  29.8738098  40.8102722  26.3862553  28.8620071  42.0611038  26.4360924
  29.9127808  41.8982849  27.8743496  26.4320049  40.6843567  29.6271667
  26.6521397  39.9714851  30.6377182  25.1519070  40.8570900  29.1872482
  24.7593269  41.8579216  28.2515602  25.3418217  41.8650970  27.3302841
  24.7609386  42.8683853  28.6602917  23.2707520  41.6061859  27.9267941
  23.2851276  40.7653885  27.2332821  22.5847664  42.3919182  27.6103382
  22.7913685  41.1319008  29.3063831  21.9032230  40.5034790  29.2401752
  22.5696220  41.9573517  29.9828129  23.9693413  40.3228188  29.8445892
  23.9720840  40.3473511  30.9343090  23.8291302  38.8563614  29.4449329
  24.1393795  38.5413284  28.3443165  23.3523273  37.9334068  30.2929287
  22.9068813  38.2638969  31.1370010  23.5967140  36.4782028  30.1891956
  24.6671982  36.4006386  29.9990635  23.2539024  35.9352722  31.5442924
  23.7064571  34.9577789  31.7110271  23.6891289  36.5728035  32.3138618
  21.7043133  35.8553123  31.7778683  21.3998394  36.8815384  31.9834175
  21.1778679  35.4669914  30.9059944  21.3780994  34.9514618  32.9193039
  22.2338791  34.4041748  33.5416908  20.1647453  34.9130783  33.3064461
  19.4713898  35.4458961  32.8010139  20.0478249  34.5807304  34.2530060
  22.8683872  35.7214165  29.0631390  23.4152317  34.7209358  28.6399994
  21.8462811  36.2834854  28.4100838  21.4389935  37.1231079  28.7964115
  21.2408524  35.6998367  27.1494312  21.1327457  34.6336594  27.3486252
  19.8781261  36.3282127  26.9516277  19.3701897  35.8181763  26.1331158
  19.3369217  36.1015511  27.8702316  19.9476147  37.8168030  26.7847824
  19.7816124  38.5356712  27.7492371  19.9578686  38.2148170  25.5987206
  22.2197208  35.8645859  25.9539127  22.3348370  35.0052490  25.0459785
  23.0556526  36.9346771  25.9585094  23.1140060  37.5706024  26.7410011
  23.9943314  37.1749268  24.8243790  23.5492554  36.7621193  23.9190578
  24.1219978  38.7333755  24.6069431  24.7463951  39.0018539  25.4590874
  24.6641273  38.9303207  23.6820602  22.7618446  39.5087128  24.5554581
  22.0070591  39.2280617  23.8208599  22.3047962  39.4654579  25.5440617
  22.9625664  41.0587006  24.3709869  24.0575867  41.5970383  24.2527618
  21.9087296  41.7700272  24.3921013  21.0493546  41.2890358  24.6162148
  21.8753014  42.7757721  24.3057518  25.3460789  36.4610748  24.9014091
  26.0503807  36.4035797  23.9740829  25.6529617  35.9102898  26.1141815
  24.9339180  35.9490547  26.8224010  26.8475761  35.0698128  26.3040257
  27.7301865  35.6054878  25.9545135  27.0511475  34.6150742  27.8325768
  26.0783939  34.2452354  28.1567230  28.0082912  33.5039787  28.1921082
  27.8146114  32.5914841  27.6282425  29.0290356  33.7002716  27.8640022
  28.0136032  33.3004494  29.2629242  27.2251987  35.8217621  28.7556591
  26.6146164  36.5888557  28.2793655  26.9569740  35.6065636  29.7899933
  28.6300068  36.3791809  29.0065746  28.6552906  37.2409897  29.6734734
  29.2192154  35.5957184  29.4831448  28.9846268  36.6382217  28.0089569
  26.8670998  33.8793526  25.3201275  25.7772999  33.3082390  25.1745396
  27.9637184  33.4764175  24.7230759  28.7061920  34.1260185  24.9395294
  28.1894550  32.3673630  23.7513695  27.2909527  31.8884373  23.3622341
  29.1415615  32.7677612  22.5501900  29.9826260  33.3649597  22.9024258
  29.3945808  31.8654022  21.9935684  28.3833008  33.8069687  21.7466373
  27.4315472  33.3493614  21.4767265  28.1791286  34.6267052  22.4354382
  29.0381279  34.4059448  20.4725437  28.3521328  35.0655556  19.9411106
  29.9301643  34.9626617  20.7596645  29.4926605  33.3386040  19.5103283
  30.4147472  32.9297447  19.5621738  28.8377228  33.0845375  18.3980923
  27.8180733  33.7473030  17.9803524  27.2234249  33.4890900  17.2058678
  27.4157162  34.3375359  18.6943798  29.2437000  32.1099815  17.6823692
  30.1481342  31.6883545  17.8383503  28.6705723  31.6895409  16.9648342
  28.7111797  31.1098080  24.4133110  29.9184494  30.8968048  24.5378704
  27.8077965  30.1924171  24.8664131  26.8228283  30.3615665  24.7203770
  28.1382484  28.8484344  25.3581867  28.9781818  28.9841232  26.0395088
  26.8341370  28.3330860  26.0918255  26.0324135  28.2926502  25.3544617
  26.9523792  27.3748493  26.5977001  26.3837032  29.2813454  27.1981125
  27.0021210  29.6357574  28.4005604  26.1583843  30.3923931  29.0886993
  26.3526115  30.7885590  30.0744629  25.0561848  30.5860081  28.3492317
  24.2739391  31.1646214  28.6201553  25.1319160  29.7954788  27.1909523
  24.3871670  29.8281441  26.4094925  28.6282978  27.9005489  24.2756214
  27.8985329  27.6506805  23.2848492  29.8801689  27.5379791  24.2430878
  30.5143776  27.8634071  24.9586124  30.4821548  26.9947224  23.0720577
  30.0241966  27.4537754  22.1959057  32.0650215  27.2298985  23.0502682
  32.4140625  26.8331165  24.0035954  32.8667145  26.5242825  21.9696808
  33.9334755  26.6058254  22.1781807  32.4566193  25.5144958  21.9856644
  32.6432838  26.9658127  20.9984818  32.3255043  28.6819782  23.0516396
  32.2138176  29.0507507  22.0320148  31.6450634  29.2215958  23.7103615
  33.3388901  28.8927193  23.3933125  30.1920204  25.4695568  23.0332375
  30.3398285  24.7577496  24.0018482  29.6068726  25.0075359  21.8901711
  29.5604382  25.6022549  21.0751534  29.3698330  23.5895824  21.7429028
  29.8497448  23.1401501  22.6122723  27.8906345  23.3044605  21.9286022
  27.2985973  24.0952606  21.4679222  27.6982040  22.3169670  21.5091629
  27.3893204  23.2384434  23.3602638  27.2863350  21.9799156  24.0663986
  27.0542850  21.1497860  23.4156780  27.2008286  21.9783573  25.4627457
  26.9108105  21.0752964  25.9792500  27.1405640  23.2258968  26.1331291
  27.1264458  23.3009090  27.4630356  26.4567299  22.7458630  27.8692455
  27.1683273  24.4342651  25.4229946  27.2028961  25.3648930  25.9699287
  27.3521671  24.4470673  24.0901089  27.3731289  25.3678226  23.5260448
  29.9225693  22.9734097  20.4305630  29.8104286  23.5663109  19.4073048
  30.5848179  21.8216152  20.4126091  30.6989231  21.3473930  21.2970257
  31.3528290  21.2693787  19.2824421  31.1285210  21.8313274  18.3757992
  32.8807602  21.5681152  19.4985352  33.3205185  20.9300919  20.2651119
  33.3802185  21.2929459  18.5695992  33.2535210  23.0059204  19.8870926
  32.6523170  23.1797829  20.7795219  34.7586555  23.1376419  20.3048038
  34.8681374  24.0367756  20.9111652  34.9274101  22.3756351  21.0657043
  35.4626312  22.9701214  19.4896641  33.0346832  24.0465851  18.8354645
  33.7479362  24.0935059  18.0125599  32.0618820  23.7085342  18.4784241
  32.9599266  25.0795269  19.1753807  31.2166882  19.7204971  19.1928177
  30.6746960  19.0921612  20.2099171  31.7572708  19.0936432  18.1543961
  32.1910324  19.6790619  17.4549313  31.8260574  17.6148663  18.0083389
  32.1926498  17.4697933  16.9921341  32.8933601  16.9500637  18.9398422
  32.5445671  17.1373692  19.9554005  33.0344582  15.9034348  18.6700840
  34.3249741  17.4914970  18.8182163  34.3430862  18.5273647  19.1569672
  34.9753075  16.9938946  19.5376320  34.8996658  17.2784977  17.4571533
  35.4448891  16.2406406  17.0063744  34.7624931  18.1795197  16.6154385
  30.4793148  16.9273777  18.1230507  29.4661160  17.4926414  17.5971088
  30.3982410  15.7318592  18.7201271  31.2827816  15.2956686  18.9379044
  29.1246452  15.0677366  19.0783138  28.4907494  15.1067276  18.1924477
  29.4155884  13.5821047  19.5367928  30.0225449  13.7754850  20.4212742
  28.5922775  12.9758368  19.9145489  30.1788750  12.7741346  18.4356022
  29.5077362  12.6170492  17.5912094  31.0328007  13.3063583  18.0164890
  30.6027489  11.4303436  19.0592861  31.2450218  11.4984932  19.9373188
  29.6773224  10.9983492  19.4401665  31.0816288  10.4233284  18.0309105
  31.0484962   9.4476852  18.5158062  30.3375816  10.5301113  17.2415485
  32.4233589  10.8122959  17.5059452  32.7475433  10.1834965  16.7851009
  32.4823418  11.7403393  17.1117878  33.0795021  10.8012342  18.2737045
  28.2735023  15.7647238  20.1911144  27.1017380  15.4078398  20.3291740
  28.9002609  16.6567345  20.9680443  29.8287392  16.9487572  20.6983051
  28.2889633  17.3106136  22.1402664  27.8593655  16.4943714  22.7210350
  29.3293533  17.8841991  23.1013851  28.8412018  18.2725334  23.9952545
  30.0887146  17.1719341  23.4241085  29.7855930  18.7077694  22.5521431
  27.2723255  18.3598557  21.7714405  26.6967983  18.9249916  22.7010441
  27.0071373  18.5841255  20.4963684  27.5888863  18.1751366  19.7791538
  25.9562492  19.5251427  20.1232910  26.0118046  20.4697323  20.6643696
  25.9891415  19.9133396  18.6116371  25.3483658  20.7819729  18.4600391
  27.4268456  20.3597050  18.1848316  28.0265217  19.4778347  17.9594555
  27.3634338  21.0398350  17.3354187  27.7866116  20.9289608  19.0419273
  25.2320118  18.9504585  17.7044373  25.4840889  19.1178665  16.6572800
  25.5869999  17.9301376  17.8494453  24.1462059  19.0456638  17.6967564
  24.5756721  18.9844608  20.5650215  23.6976490  19.7263107  20.9217262
  24.4363995  17.6417294  20.5575256  25.2605286  17.0871372  20.3749313
  23.2311516  17.0779629  21.2139587  22.3609409  17.5119972  20.7215672
  22.9920940  15.5699635  20.9712067  21.9805641  15.3391294  21.3053093
  23.0660038  15.1170778  19.5260334  22.2632236  15.6848946  19.0556717
  24.0177937  15.4182110  19.0884056  22.8496017  14.0622749  19.3567333
  23.9663410  14.7299757  21.7572594  24.9799900  15.0550098  21.5228233
  23.8058567  14.6782808  22.8341408  23.8776646  13.7071495  21.3911076
  23.0793419  17.4378738  22.6961060  21.9875355  17.3064575  23.3150635
  24.0682945  18.0659618  23.3467464  24.9748459  18.1820164  22.9168682
  24.0682983  18.4825706  24.7795143  23.1852570  18.0917511  25.2850838
  25.2845936  17.7207012  25.4582710  26.2209759  17.8928795  24.9275703
  25.3591595  17.9724255  26.5161839  25.2740459  16.1772671  25.4854279
  25.4250088  15.7645283  24.4879532  26.4802246  15.8294230  26.3695450
  26.6123543  14.7771339  26.6212025  27.4047375  16.2204762  25.9447479
  26.4286709  16.2303257  27.3818321  24.0278530  15.4864883  26.0736427
  23.8556709  15.7581539  27.1151085  23.1693802  15.6295471  25.4173965
  24.2110767  14.4136906  26.0133705  24.1521931  19.9621086  24.9904518
  24.2790546  20.3351040  26.1183128  24.0502644  20.7848644  23.9530830
  24.2197533  20.3254585  23.0697269  23.9121037  22.2678127  23.9991150
  24.8131275  22.7190914  24.4145699  23.6698647  22.7750721  22.5638008
  23.4986095  23.8513317  22.5848217  24.4570141  22.3961868  21.9119263
  22.2457695  22.2531490  22.1152420  22.1848564  21.1935349  22.3634548
  21.5069599  22.8863163  22.6065369  22.0963268  22.4256535  20.5981464
  22.1339703  23.5001087  20.4186230  22.8808517  21.9099846  20.0443382
  20.8077602  21.8682022  20.1946754  20.0692940  22.5480251  20.0823956
  20.4723759  20.6655350  19.7649803  21.1360435  19.5500164  19.8780117
  21.9472752  19.4651165  20.4736595  20.6762924  18.7169113  19.5393906
  19.3593369  20.4603920  19.1336365  18.7706928  21.2763596  19.0453262
  19.1524277  19.5251007  18.8134518  22.7807217  22.7577953  24.9764118
  21.8106117  21.9930973  25.2548695  22.7821884  24.0084743  25.4525547
  23.6768494  25.1712093  25.1776943  23.8036919  25.2807884  24.1006584
  24.6376915  24.8389740  25.5707664  22.9938831  26.4390278  25.6919594
  22.3061981  26.9130783  24.9916267  23.6969109  27.2080631  26.0120258
  22.1674061  25.8579254  26.8217545  21.3068466  26.5131893  26.9565525
  22.6835690  25.6113472  27.7495880  21.7162704  24.4369164  26.2772350
  21.6529293  23.6497707  27.0285606  20.3326950  24.4902191  25.5702477
  19.3937378  24.6487408  26.2435226  20.2534046  24.5472126  24.2265472
  21.1617146  24.5683193  23.7853775  19.0566483  24.5353279  23.3977909
  19.4535770  24.5999565  22.3846874  18.4158802  23.1348343  23.4332371
  19.1935253  22.3865414  23.5862942  17.7374649  23.0624924  24.2833099
  17.5197811  22.7764721  22.2553864  17.5887814  23.4344044  21.1755714
  16.6216660  21.9092979  22.3045998  18.0269318  25.6866989  23.4610271
  16.7719517  25.4486160  23.6288242  18.4897518  26.8939323  23.2968864
  19.4423027  27.0258026  22.9880886  17.6798706  28.0224819  23.5742493
  17.1911201  27.9340286  24.5445061  18.6077118  29.2309971  23.7648373
  18.9917336  29.3687057  22.7540607  18.0173092  30.1038704  24.0434361
  19.7608509  29.0496807  24.7729321  20.2689247  28.1367073  24.4623833
  20.8027000  30.0796337  24.5942230  20.4389839  31.0700436  24.8678818
  21.5471096  29.8397846  25.3534508  21.1305809  29.9736462  23.5601196
  19.2508163  28.8545151  26.1947346  20.1115837  28.8345699  26.8631592
  18.6677742  27.9412708  26.3136711  18.6254425  29.7220459  26.4054394
  16.5550957  28.2406902  22.5285835  16.7916851  28.1831436  21.3294659
  15.3301229  28.4969158  22.9868946  15.1532784  28.5713615  23.9785023
  14.1657228  28.9605141  22.0925255  14.5192957  29.4134178  21.1662617
  13.3292179  27.7365055  21.8460617  13.8981400  27.0034218  21.2742023
  12.8585987  27.2830944  22.7184353  12.2592478  28.1386681  21.0107460
  11.4052839  27.7512493  21.2163029  13.4064379  30.0157795  22.8215618
  13.0111580  29.7677917  23.9098282  13.1257057  31.1896667  22.2431240
  13.4753351  31.3007622  21.3021049  12.2363815  32.1760101  22.7511883
  12.7691212  32.5308456  23.6334496  12.0318556  33.4022636  21.7528057
  11.3697081  33.1349182  20.9292850  11.4946117  34.1556702  22.3288670
  13.2646608  34.1613541  21.2159576  14.0659790  33.4631310  20.9741364
  12.9088755  34.7195663  19.8765640  13.7836704  35.1640930  19.4019794
  12.1487837  35.4914131  19.9974499  12.5405159  33.8867683  19.2775135
  13.9152746  35.1713257  22.2399616  14.4443121  34.5651588  22.9753399
  14.6799202  35.6872406  21.6592312  13.1725454  35.8843575  22.5977802
  10.7785139  31.6217766  23.1194458  10.0253649  32.3125191  23.8568974
  10.4182501  30.4668980  22.5780678  11.0312195  29.9573917  21.9577675
   9.2165956  29.7080994  22.9878693   8.3690987  30.3899174  22.9173241
   8.9209051  28.4416561  22.0371208   8.0439882  27.9729939  22.4837475
   8.6005106  28.8422451  20.5843620   8.3884068  27.8775063  20.1235027
   7.6791396  29.4162388  20.4858246   9.5225973  29.1066380  20.0667191
   9.9416361  27.5388222  22.1876831   9.5033407  26.8623829  22.7091503
   9.1748600  29.2372932  24.4794464   8.1169662  28.9475136  25.0448380
  10.3033419  29.1770134  25.1031189  11.0583124  29.5505199  24.5457916
  10.5404387  28.7445908  26.4773235   9.6127968  28.3134899  26.8537960
  11.6622696  27.6871414  26.4744587  12.4486017  27.9787273  25.7782097
  12.0998678  27.5146942  27.4577541  11.1039734  26.3079834  25.8951988
  10.2536497  25.9449406  26.4724789  10.8139353  26.5698490  24.8776493
  12.1264153  25.1787815  26.0177803  13.1109705  25.3450756  25.5806351
  12.2571316  24.9549274  27.0765076  11.5288324  23.9264050  25.4376335
  10.6452799  23.6911030  26.0309868  11.2963305  24.0619297  24.3813782
  12.4859552  22.7753487  25.5138874  12.3084450  22.3981400  26.4338341
  12.1180153  21.9839611  25.0055332  13.4606609  22.9207001  25.2926998
  10.8385029  29.8574066  27.4834251  11.4194841  29.6295910  28.5566063
  10.5423336  31.0702648  27.1237602  10.0162020  31.1520367  26.2655067
  10.4982243  32.2138672  28.0167217  11.3850079  32.0300026  28.6232777
  10.7397470  33.4970779  27.1106415   9.9922209  33.4057312  26.3226242
  10.6902542  34.4416313  27.6523666  12.1388102  33.4235229  26.5223122
  13.0970087  32.8730202  26.9511814  12.3850632  34.2136765  25.4966583
  11.7913151  34.8903275  25.0387154  13.3521557  34.1829987  25.2070179
   9.3203983  32.3451462  28.9109612   8.2949057  31.7143421  28.7458172
   9.4133720  33.1912766  29.8966827  10.3059759  33.6546097  29.9898605
   8.2742872  33.6620789  30.7452526   7.6376243  32.7907600  30.8987713
   8.6820097  34.2832718  32.1345329   9.0821848  35.2924042  32.0364532
   7.5619812  34.2549896  33.2035675   8.0540943  34.3252869  34.1736145
   6.9217520  35.1324005  33.1121597   7.0323868  33.3090210  33.0905380
   9.6805382  33.4708214  32.6962318  10.5358839  33.6644592  32.3057365
   7.3902931  34.6232948  29.9486828   8.0122271  35.4244881  29.1574249
   6.0928593  34.7393990  30.1821041   5.7175446  34.1009483  30.8688507
   5.0936966  35.4965439  29.4923248   5.5904808  36.4025002  29.1451092
   4.6452475  34.6939049  28.2779675   5.6017675  34.3836403  27.8573666
   4.1135082  33.8031921  28.6126099   3.6881642  35.4172134  27.2523594
   3.4238851  34.6249275  26.5519714   2.7110591  35.7301521  27.6203709
   4.3406892  36.6030960  26.4576588   5.5757828  36.6327705  26.2396889
   3.5776415  37.4124184  25.8260403   3.9537327  35.8458748  30.5470600
   3.4306512  34.9192352  31.1163692   3.6533186  37.1543961  30.7337017
   4.0175409  37.8809662  30.1340866   2.5169406  37.5289574  31.6219406
   1.8404318  36.7446404  31.9614735   3.1043062  37.9974213  32.9625282
   3.9470010  38.6464310  32.7242737   2.4852324  38.7327766  33.4764366
   3.5835874  36.9643135  33.9865990   4.2703862  36.2244797  33.5754356
   4.3061090  37.7089729  35.1050339   3.5530972  38.4036865  35.4771271
   4.7013440  36.9729729  35.8051758   5.1247196  38.3154030  34.7174568
   2.4524615  36.0947952  34.5270042   2.0816665  35.3636780  33.8086205
   2.7110920  35.5334892  35.4248619   1.6233598  36.7371674  34.8237534
   1.5179449  38.5240288  30.9761295   0.6047257  39.0182762  31.7327213
   1.6077336  38.7409058  29.7537975  34.6853447  45.1744690  44.0367622
  33.6907234  45.0257187  43.9434738  34.9235001  46.0367584  44.5056305
  35.1585884  45.0399742  43.1546898  35.0291786  44.1487007  45.0323257
  36.1083603  44.0768433  45.1676369  34.2491913  44.4576645  46.3681259
  34.1698112  45.5332794  46.5257759  33.2480087  44.0387001  46.2670746
  34.6941376  43.8080750  47.6705894  33.9111900  43.9329185  48.4185905
  34.7591476  42.7208099  47.7121925  36.2303314  44.5464554  48.3091125
  36.5556183  43.7516708  49.8893623  36.3670006  42.6849594  49.7682991
  37.5892830  43.9330101  50.1839027  35.7656937  43.9127045  50.6229744
  34.6732216  42.7658195  44.3875580  33.7556152  42.1143417  44.7730141
  35.4353447  42.4075623  43.3569298  36.2942085  42.9204063  43.2174950
  35.2318077  41.1979713  42.5617752  34.1867485  41.2266197  42.2533340
  36.0921974  41.1372490  41.3442879  35.7739105  41.8895340  40.6225853
  37.1338425  41.2261276  41.6527977  35.9874229  39.7869873  40.6173019
  36.4027557  39.0997162  41.3543625  34.9344177  39.6032906  40.4039040
  36.9650307  39.7896538  39.0573730  37.3800278  37.9697227  39.1408348
  36.5107956  37.3413963  38.9465523  38.0717125  37.7800369  38.3200531
  37.7915802  37.6943779  40.1118698  35.3621941  40.0266800  43.5093460
  36.2077713  39.9853859  44.3705254  34.5522308  38.9422798  43.3190498
  33.7606239  39.0291519  42.6978302  34.7171249  37.5930557  43.9343910
  35.0324936  37.7492256  44.9660187  33.3510551  36.7480507  44.0138245
  33.5686646  35.7318916  44.3427277  32.3938866  37.4453812  44.9876480
  32.3958588  38.5060730  44.7365875  31.3563175  37.1248894  44.8936806
  32.7372055  37.2615128  46.0056992  32.7312889  36.5640564  42.5853958
  32.5111465  37.5744629  42.2408447  33.4693489  36.1614265  41.8916664
  31.5020027  35.7631760  42.4521408  30.6143284  36.1727142  42.9342384
  31.3023987  35.5833473  41.3957710  31.6778851  34.7962532  42.9235535
  35.8795776  36.8522377  43.2943344  36.0065689  36.7969627  42.0683136
  36.7406349  36.2980156  44.0959244  36.7066612  36.5749283  45.0666275
  37.8112411  35.3184052  43.7580681  37.5782051  35.0177612  42.7365913
  39.1845856  35.9346466  43.9402008  39.3695488  36.2613068  44.9635201
  39.9250069  35.1949806  43.6356239  39.3579407  37.1224747  42.9870033
  38.9193230  36.8256989  42.0343018  38.8417206  37.9405594  43.4893532
  40.8221054  37.4045982  42.8704948  41.1913338  37.7579765  43.8332481
  41.3739967  36.5464516  42.4869537  41.0533524  38.5883255  41.9726944
  41.3490601  39.4504204  42.4079514  40.7953720  38.6545868  40.6968193
  40.4569359  37.6275368  39.9705963  40.4056206  36.7236671  40.4183540
  40.2723770  37.7619858  38.9867439  41.0344925  39.7019196  39.9853020
  40.7384644  39.6659889  39.0203247  41.2279053  40.5844841  40.4367142
  37.6391411  33.9935226  44.4898453  36.9509926  33.9220772  45.5279198
  38.2797737  33.0213852  43.9390678  38.8662987  33.1950035  43.1353607
  38.2577209  31.6560173  44.4528770  37.4545479  31.6448593  45.1896896
  38.0592384  31.0131664  43.5952950  39.5256653  31.2086525  45.0850105
  40.6863022  31.5358906  44.6215744  39.4399223  30.5076275  46.1834145
  38.5069923  30.4438915  46.5650978  40.4981461  30.0310726  47.0101089
  41.4564629  30.3666172  46.6137009  40.4621773  30.7285919  48.3673363
  39.5062180  30.5363884  48.8544769  41.4413185  29.9951344  49.2510071
  42.4212723  29.9321308  48.7779121  41.4108391  30.5603180  50.1825333
  41.0802994  28.9770336  49.3967438  40.6708984  32.2889786  48.4089775
  41.7319984  32.5008392  48.5404396  40.4651070  32.6574020  47.4039764
  39.7573586  32.9808617  49.4440804  40.1677399  33.9892998  49.4965439
  38.7426949  32.8064919  49.0861015  39.9214592  32.5344353  50.4248314
  40.4602432  28.4568100  47.0324707  39.4433937  27.8639145  47.3428879
  41.5181389  27.7948189  46.4768944  42.3152237  28.3567295  46.2141914
  41.6157074  26.2706680  46.4646759  40.6752243  25.7204685  46.4352341
  42.4718628  25.7845211  45.2668648  43.3400917  26.4419193  45.2209320
  42.8126373  24.7766113  45.5037003  41.8338165  25.7093601  43.9105301
  41.6060333  26.7103024  43.5440216  42.6508789  25.3857651  43.2657089
  40.5984840  24.7445545  43.9211998  39.8231926  25.3994656  44.3188400
  40.3277473  24.6525249  42.8693733  40.7661362  23.4652691  44.5327606
  40.2810974  23.3502712  45.4111748  41.5119286  22.4566422  44.2274017
  42.1114998  22.3074398  43.1281166  42.7929955  21.5706673  43.0148430
  41.8148918  22.8649483  42.3398819  41.8253250  21.5559807  45.1071167
  42.2162323  20.6863422  44.7739143  41.3849068  21.6820488  46.0072517
  42.2715912  25.6705666  47.7976646  43.0983810  26.3247681  48.4460678
  42.0016785  24.4621048  48.0637894  41.2896957  23.9951706  47.5205116
  42.9738846  23.6556072  48.7951469  43.9373474  23.8452320  48.3219872
  43.0193901  23.9654465  49.8391953  42.6170731  22.1814156  48.7257423
  41.6643753  21.7556114  48.0739288  43.4327660  21.3564758  49.3583984
  44.1129417  21.7783356  49.9744301  43.3312073  19.8406601  49.4056435
  42.2593651  19.6663704  49.4998703  43.9525719  19.4027252  48.0840530
  43.3131256  19.8265400  47.3097267  45.0075912  19.6356163  48.2282829
  43.8822136  18.3158340  48.1266899  44.0573807  19.2162075  50.5910759
  45.0667648  19.7727604  51.0061378  43.5904121  18.0748405  51.0732155
  42.7732430  17.6502399  50.6584320  44.2567711  17.2925396  52.1839905
  45.3291435  17.1918850  52.0167122  43.9247017  17.8950195  53.5717468
  44.1275024  18.9648800  53.5230522  42.3749352  17.6937962  53.9103737
  42.0548134  18.4278831  54.6497955  41.7708321  17.8157024  53.0113182
  42.0886955  16.7056484  54.2705574  44.6204414  17.1824036  54.5683403
  44.8356171  17.8264942  55.2469063  43.7478752  15.7980204  52.0145950
  42.9838829  15.5489674  51.0660553  44.2346268  14.9034920  52.8506279
  44.8754807  15.2378807  53.5560265  43.9924812  13.4348288  52.7224960
  43.0427589  13.2941875  52.2064018  45.1849098  12.7572737  52.0195236
  45.2751617  11.6883965  52.2130547  45.1819572  13.0278473  50.5284882
  45.0852318  14.1012526  50.3655586  46.1628227  12.8545408  50.0858040
  44.3598251  12.4947443  50.0509911  46.4173965  13.1934710  52.6366653
  46.5503082  12.7148533  53.4581642  43.9957695  12.6839981  54.0975685
  44.4864540  13.1775675  55.1027412  43.5022392  11.4262056  54.1194038
  43.0972061  11.0447321  53.2764778  43.4182205  10.6056881  55.3890572
  44.0558319  10.9905062  56.1849670  41.9607544  10.6142445  55.9137344
  41.8849335   9.7935133  56.6270027  41.5972252  11.9034529  56.6376801
  40.5852776  11.8564262  57.0399857  42.2976036  12.1060734  57.4479332
  41.7759514  12.7769423  56.0106468  40.9256554  10.3067331  54.7776566
  41.2830048   9.4422579  54.2181129  39.9180450  10.0835886  55.1284103
  40.7869606  11.1905794  54.1550179  43.9132500   9.1497002  55.1948776
  43.7521439   8.5810204  54.1196098  44.5008698   8.5435562  56.2577629
  44.6112251   9.0868130  57.1020317  44.9992332   7.2018356  56.1517487
  45.2759705   6.9290299  55.1333694  46.2296715   7.0760045  57.0226822
  46.0337639   7.2609043  58.0788727  46.4896965   6.0181875  57.0616417
  47.4017830   7.9839602  56.6338615  47.2506561   8.9971323  57.0063477
  48.3215981   7.5562797  57.0327721  47.6143379   8.0934486  55.1446342
  47.6221428   7.0383387  54.4576530  47.9027481   9.1796341  54.5886726
  43.9528198   6.2385306  56.6037407  43.9717903   5.0248179  56.3734856
  42.9062920   6.7296352  57.3082695  42.7226143   7.7131696  57.1703415
  41.7222557   6.0407596  57.8198700  41.6576805   5.0126567  57.4635811
  41.8046341   6.0121408  59.3387299  41.9257278   7.0230188  59.7280426
  40.9513741   5.5136480  59.7986794  42.9602089   5.0485768  59.7804680
  42.8227959   4.0685143  59.3236351  43.9820290   5.3426480  59.5406685
  42.8343430   4.7787962  61.3237267  41.8382225   4.4192977  61.5818024
  43.5709419   4.0432849  61.6470642  43.0191422   6.0903115  61.9763908
  43.8844185   6.5274143  61.6929436  42.3386116   6.6778727  62.9683876
  41.3075104   6.1205010  63.5177155  40.8114586   5.3857627  63.0337791
  41.0906906   6.5271125  64.4164658  42.7688217   7.7475533  63.5136757
  43.5443077   8.2313576  63.0839539  42.1891060   8.1678934  64.2259521
  40.4438591   6.7509937  57.3367996  40.3472900   7.9645572  57.4956284
  39.3931236   6.0858331  56.7441902  39.4691620   5.0993462  56.5413055
  38.0915985   6.6480026  56.3640671  38.1823273   7.6737118  56.0065918
  37.5373154   5.8564482  55.1723175  38.2163048   6.0175214  54.3349838
  37.6297340   4.7867899  55.3604469  36.0443954   6.1953464  54.8677711
  35.6874199   7.4220138  54.8978844  35.3139458   5.3387985  54.3892822
  37.2093048   6.7746315  57.5998192  36.5036507   5.8838367  58.0319672
  37.2855911   7.9204874  58.2203560  37.7990990   8.7160034  57.8688393
  36.6215706   8.1597023  59.5599289  35.6547279   7.6718793  59.4360657
  37.3750076   7.3746305  60.6522522  37.4291992   6.3004146  60.4755402
  38.8242569   7.8532367  60.8709183  39.3692856   7.6279879  59.9542389
  38.8643417   8.8998852  61.1726151  39.2043991   7.3212790  61.7430496
  36.7465591   7.5070891  61.9325867  36.0354652   6.8668375  62.0102005
  36.4530869   9.6330357  59.8343658  37.3375626  10.4425163  59.4516792
  35.4309120  10.0073175  60.5494080  34.7902832   9.2798986  60.8332253
  35.1583900  11.2797108  61.1701469  34.8758965  12.0733624  60.4784698
  33.9064102  11.2131720  62.0064926  34.0677299  10.6005135  62.8934669
  33.7272758  12.2341366  62.3436012  32.7185707  10.7829657  61.1506081
  32.5713196  11.5992517  60.4434357  32.8895149   9.8844929  60.5576248
  31.4596958  10.6276770  61.9736862  30.6424732   9.7215958  61.7145119
  31.0523624  11.5026894  62.7481804  36.2826347  11.7131062  62.1306992
  36.2895660  12.8917274  62.4724388  37.0300064  10.7998924  62.7025375
  36.8385506   9.8182096  62.5620270  38.1366005  11.0748644  63.6856956
  37.7319450  11.5960979  64.5532608  38.7091751   9.7228441  64.0552292
  37.8837585   9.0126076  64.1037521  39.3630905   9.1986580  63.3582878
  39.5628433   9.8951244  65.2706375  40.4850769  10.3527021  64.9125748
  39.0247955  10.4643450  66.0286560  39.9603958   8.4853411  65.7794266
  39.0158615   7.8407245  66.3178864  41.1484642   8.1586323  65.5703583
  39.2836151  11.9222612  63.0015030  39.9772224  12.6760721  63.6998749
  39.3524780  11.7325487  61.6636620  38.6720047  11.1064529  61.2573853
  40.4864540  12.3161850  60.8567047  41.1160088  12.8745909  61.5494881
  41.3222542  11.2921448  60.0704613  40.7137070  10.7207251  59.3695717
  42.0747261  11.8803530  59.5452003  42.0420914  10.1883020  60.8327141
  41.4019547   9.7828207  61.6162415  42.3148384   9.3448591  60.1984329
  43.2880630  10.6954365  61.5091400  43.3835144  10.3952303  62.6933746
  44.1158180  11.3920498  60.9708710  39.7943153  13.2258987  59.8920364
  40.1323624  14.4043369  59.8554573  38.8830528  12.7337856  59.0635452
  38.6081085  11.7783003  59.2411766  38.3067360  13.4799194  57.9467163
  39.1497383  13.6666431  57.2814560  37.2110748  12.7036848  57.1265793
  36.4504395  12.3966885  57.8444176  36.5998764  13.5839224  56.0097580
  36.1625900  14.5094690  56.3842621  37.3434105  13.8922033  55.2747574
  35.8158951  12.9585524  55.5826912  37.7244606  11.4251471  56.3962402
  38.0688591  11.6485205  55.3864899  38.4417496  10.8288202  56.9601440
  36.6695328  10.3265638  56.1828232  37.1892586   9.3994694  55.9409943
  36.0258293  10.1462240  57.0437660  36.0414925  10.6188698  55.3412590
  37.7743721  14.8691530  58.3658524  38.0571442  15.8730669  57.7374039
  37.0003395  14.8841190  59.4702873  36.9060516  14.0540552  60.0379143
  36.3592377  16.2123966  59.9524231  35.8102989  16.5384808  59.0690002
  35.3707657  15.7940216  61.0488625  34.9227257  14.8241749  60.8326340
  35.9217682  15.6970081  61.9843254  34.2568817  16.8629627  61.3703537
  34.6640892  17.7916336  60.9705391  33.0161095  16.5073929  60.5861778
  32.2941933  17.3216763  60.6484642  33.2905693  16.1400299  59.5973320
  32.6554909  15.6530275  61.1589966  33.8760681  17.0181732  62.8741150
  33.1550827  17.8156757  63.0537682  33.4792671  16.1151352  63.3379745
  34.7710228  17.3190269  63.4187660  37.4592896  17.1583862  60.4251060
  37.4573784  18.3431225  60.1600876  38.5691872  16.7035980  61.0458298
  38.4671097  15.7275143  61.2844505  39.7235298  17.3579369  61.6189461
  39.4668655  18.3457012  62.0017548  40.2315178  16.6829586  62.8622169
  40.7111893  15.7350807  62.6181946  41.0675011  17.2214222  63.3086357
  39.1516151  16.2453556  63.8707619  38.3852615  15.5611506  63.5065269
  39.6412659  15.7031488  64.6796875  38.4977722  17.4931145  64.5569382
  39.0200005  18.5556068  64.7068329  37.3104095  17.3003635  65.1268845
  36.8112526  16.4278164  65.0288620  36.8946381  18.1010513  65.5809021
  40.7902260  17.6796932  60.6379738  41.3480911  18.8151703  60.6722565
  41.0050583  16.9041328  59.6369514  40.4270477  16.0804405  59.5501518
  41.8342857  17.2513218  58.4835892  42.8288918  17.5634060  58.8021202
  42.0664406  15.9368048  57.7254906  41.1270790  15.4178391  57.5347710
  42.5079765  16.2176552  56.7693138  42.9516144  14.8953466  58.3634758
  42.4694939  14.3741579  59.1905327  43.2577209  14.2326517  57.5540047
  44.3642349  15.3052845  58.8826180  44.8628044  15.8658295  58.0918465
  44.2345200  15.9859228  59.7240486  45.2603912  14.1262512  59.2413483
  44.6647415  13.4038982  59.7994766  45.5666885  13.7022715  58.2850380
  46.5092926  14.5149364  59.9248505  47.1587257  14.9774961  59.3048630
  46.4611282  15.1189613  60.7328949  46.9892464  13.6593752  60.1651840
  41.1484032  18.3381405  57.6551208  41.8378639  19.3326569  57.3268929
  39.8411293  18.1598644  57.3096619  39.4303627  17.2406387  57.2296715
  39.0327759  19.2765961  56.7615471  39.4900703  19.4783821  55.7929039
  37.5963478  18.8189983  56.6241379  37.1242714  18.6237564  57.5870094
  36.6458778  19.7468662  55.8349838  35.6355362  19.3382225  55.8531647
  36.6440620  20.7050476  56.3545876  36.8826103  19.7970810  54.7721863
  37.6027412  17.6441364  55.8811378  37.6920509  16.8747044  56.4482346
  39.0169678  20.5678806  57.6088371  39.2959862  21.6178646  57.0568047
  38.9650002  20.5038433  58.9700813  38.9662094  19.5565548  59.3204269
  39.0382919  21.6553307  59.8496857  38.3263512  22.4133644  59.5231323
  38.7215996  21.2105618  61.2126999  37.6678085  20.9470539  61.3031769
  39.2916527  20.3195667  61.4759064  39.0042381  22.2496986  62.3112297
  40.0710487  22.4726086  62.2932625  38.6145630  23.2034073  61.9552879
  38.4510994  21.8387299  63.6102867  37.4805183  21.4144287  63.3532906
  39.1633415  21.1348476  64.0408249  38.2097435  23.0342979  64.5106354
  37.5075226  23.7967033  64.1734009  37.6885376  22.6852913  65.4020615
  39.4395638  23.7257481  64.8612442  39.8971062  24.0195274  64.0101013
  39.2848473  24.5419617  65.4356689  40.1017647  23.1180630  65.3220139
  40.4104729  22.3360329  59.7571602  40.5604553  23.5769272  59.6994667
  41.4584122  21.5100250  59.9172363  41.3817863  20.5066109  60.0031929
  42.8055305  22.0458221  59.9881783  42.9007416  22.7815685  60.7867470
  43.9019470  20.8859100  60.1892700  43.7371597  20.4402676  61.1702652
  43.6883507  20.2175846  59.3551140  45.3219299  21.3944569  59.9553185
  45.3283043  21.9718742  59.0308495  45.6757011  22.0299244  60.7671852
  46.3168755  20.2420063  59.8282852  46.0554276  19.0499172  59.4934845
  47.5105400  20.4867153  60.2625732  48.3115501  19.9051514  60.0619087
  47.8146362  21.4098835  60.5371323  42.9938889  22.7766800  58.6518822
  43.5338402  23.8694534  58.6734314  42.6402359  22.2210693  57.5108833
  42.2526169  21.2884140  57.5127335  42.7993011  22.8626709  56.1656189
  43.8514328  23.0907307  55.9949913  42.4195290  21.8684330  55.1018066
  42.9408875  20.9202976  55.2334290  41.3603058  21.6901112  55.2871513
  42.5108299  22.3286972  53.5851707  41.9517174  23.2546406  53.4505615
  43.9333305  22.5761757  53.0895729  43.9376373  22.7944508  52.0216560
  44.1847191  23.4982567  53.6136627  44.6608696  21.7976418  53.3190727
  41.7921944  21.3134212  52.6287689  41.5935173  21.6809750  51.6220245
  42.4353561  20.4497185  52.4600563  40.8600769  20.9816189  53.0861092
  41.9590988  24.1289940  55.9399681  42.5510025  25.1135330  55.5019455
  40.7325897  24.1550465  56.3971024  40.3521652  23.2900944  56.7538033
  39.8928146  25.3587627  56.3603058  39.9077034  25.7471523  55.3419571
  38.4029236  24.9809189  56.5617104  38.4507484  24.5194340  57.5480385
  37.8155327  25.8804512  56.7458687  37.7357216  24.1039047  55.5255585
  38.4195099  23.3216476  55.1959877  36.4342880  23.6412888  56.0358696
  36.3551903  23.1735020  57.0172043  35.7909889  24.4910145  56.2644157
  36.0061302  23.0138645  55.2541199  37.4921951  24.8705254  54.2187157
  37.0937653  24.1531487  53.5012627  36.7614746  25.6617260  54.3865013
  38.4539337  25.2289314  53.8516998  40.4910011  26.5094872  57.2039604
  40.6417809  27.6007118  56.7557373  40.8211937  26.1964092  58.4388542
  40.5583801  25.2808685  58.7747307  41.4648895  27.1083126  59.3149490
  40.7984581  27.9699554  59.2756310  41.5189857  26.6221161  60.7206421
  42.0768204  25.6933460  60.8402405  42.1215286  27.2875557  61.3388901
  40.1450539  26.4486217  61.4121742  39.5341072  27.3183899  61.1706276
  39.6390457  25.5575771  61.0405579  40.1892891  26.4019756  62.9122734
  39.3022957  26.9645710  63.6471901  41.0972366  25.6082096  63.3568459
  42.7292595  27.7015324  58.7649231  42.9875793  28.8751526  58.8654022
  43.5418167  26.9449139  58.0808334  43.3401070  25.9610424  57.9740028
  44.7711601  27.4164886  57.4221497  45.2849007  28.0988426  58.0993233
  45.6936264  26.2180595  57.0322685  45.8638344  25.6561165  57.9506111
  45.2851486  25.6321545  56.2088852  47.1420097  26.7654305  56.5859795
  47.0489197  27.3773880  55.6887932  47.5416870  27.3647003  57.4040451
  48.1867180  25.6473064  56.4129333  48.2654800  25.0877934  57.3450508
  47.9243774  24.9572697  55.6109772  49.6364822  26.1870918  55.9391136
  50.2490654  25.3310680  55.6561546  49.5182076  26.6740723  54.9711456
  50.2492371  26.9053078  57.0781250  51.1440506  27.3084106  56.8395462
  49.7038040  27.6668930  57.4557343  50.4254456  26.2845592  57.8551216
  44.4119034  28.3393345  56.1652412  45.1429482  29.2632084  55.8640594
  43.2577667  28.1752052  55.5779991  42.5675430  27.5293331  55.9337273
  42.8028603  28.9948559  54.4699478  43.6126175  29.2575607  53.7892265
  41.8096275  28.2791939  53.5419846  41.0379715  27.7466412  54.0979042
  41.0312881  29.3306274  52.7620621  40.5231705  28.9701805  51.8676376
  40.3118553  29.8384266  53.4044456  41.8116226  30.0208302  52.4414406
  42.5246468  27.3515282  52.4756584  42.9463615  28.0549984  51.7577553
  43.2866325  26.7985706  53.0249519  41.5588226  26.4122467  51.8555031
  40.9249496  26.9686127  51.1650238  42.0805321  25.6912518  51.2261505
  40.9623451  25.9289722  52.6292992  42.3232956  30.3380394  55.0575790
  42.8246346  31.4282494  54.6092491  41.5235443  30.2034874  56.0942612
  41.4894180  29.2643738  56.4643974  40.9951515  31.3623066  56.8862457
  40.4155273  31.9179764  56.1491127  40.0085945  30.8583279  57.9902954
  40.6160469  30.1475391  58.5505486  39.4948502  31.9956646  58.8403511
  40.2517319  32.4042206  59.5099106  39.1295624  32.7537689  58.1475754
  38.6524582  31.7879295  59.5001488  38.8040619  30.1366749  57.3674660
  38.2032166  30.8815155  56.8456497  39.0805588  29.3476562  56.6681099
  37.9729996  29.4081440  58.4321747  37.5408592  30.1933804  59.0524673
  37.2001877  28.7955170  57.9678955  38.5867615  28.7363644  59.0322647
  42.1351395  32.2238464  57.4174194  41.9345665  33.4455986  57.4478073
  43.2757149  31.7170677  57.9176788  43.2855263  30.7157879  58.0497475
  44.4314117  32.4681396  58.3849564  44.0553856  33.3056908  58.9724998
  45.1844902  31.4635944  59.2810287  44.4718781  31.0694237  60.0055351
  45.4523392  30.6097240  58.6587181  46.3315010  32.0505791  60.0435715
  46.6350098  31.3303967  60.8033943  47.2282906  31.9750271  59.4286232
  46.1993866  33.4543915  60.6279106  47.0944557  34.3021431  60.3216095
  45.2642555  33.6619682  61.4116287  45.2191238  33.0206680  57.1805763
  45.3979645  34.2260323  57.0946846  45.5302544  32.2619553  56.1600914
  45.2658424  31.2885227  56.1089134  46.2798500  32.6430855  55.0172501
  47.2894363  32.9736633  55.2613029  46.5132370  31.4162369  54.1297302
  45.5814095  30.8714981  53.9778900  46.8571968  31.7822208  53.1623383
  47.6357727  30.4286766  54.6423607  47.3557396  30.1158504  55.6482544
  47.6607437  29.5862274  53.9511604  48.9808655  31.1244488  54.8005295
  49.3469353  31.9165363  53.8928413  49.6859703  30.8898067  55.8288383
  45.6370277  33.8205566  54.1944008  46.3965874  34.7314568  53.8930168
  44.3107910  33.8546143  53.9986420  43.7072334  33.1072693  54.3105659
  43.5963135  34.9451981  53.3381424  44.2291832  35.5847473  52.7228775
  42.6208038  34.4056473  52.2584610  41.8060799  33.9357719  52.8094101
  42.1327248  35.1870193  51.6759377  43.1953125  33.4610977  51.3267746
  43.5115204  33.7951279  50.2036629  43.2705803  32.1941757  51.6904793
  43.8890572  31.6687756  51.0891953  42.7877808  31.9028492  52.5284157
  42.9154625  35.9071541  54.3025780  42.3794174  36.8789864  53.8320465
  43.0354614  35.7718849  55.6444626  43.5960464  34.9694519  55.8933563
  42.2888489  36.5602379  56.6845703  42.3994827  36.0564194  57.6447906
  42.9776993  37.8565559  56.9408951  42.9400673  38.3496399  55.9695282
  42.5743103  38.4154472  57.7852974  44.3927727  37.7489128  57.3888779
  44.8637161  37.2129402  58.5724525  44.2638435  36.6758881  59.1822281
  46.1927490  37.3528557  58.5190010  46.9102859  37.0392952  59.2627907
  46.5586205  38.1820412  57.4736748  47.3604813  38.7471695  57.2333565
  45.4104309  38.3510590  56.7406425  45.4128380  38.8482819  55.7819099
  40.7882080  36.6396484  56.4332199  40.1518135  37.6857834  56.6560211
  40.2472229  35.5871506  55.8152542  40.7541771  34.7220573  55.6939392
  38.7816811  35.6312180  55.3466492  38.7452202  36.4311752  54.6071663
  38.4569244  34.2964439  54.5283852  38.7653694  33.4031906  55.0715904
  37.0218353  34.1439247  54.0930748  36.4745140  33.8634872  54.9930153
  36.5656509  35.0598526  53.7174759  36.9175148  33.3954353  53.3075905
  39.2434998  34.3418388  53.3800583  38.9772110  35.1790161  52.9929810
  37.8730545  35.8922958  56.5456467  38.1032028  35.3937912  57.6243782
  36.7343674  36.6061668  56.3243942  36.7418938  37.1688347  55.4856758
  35.5931244  36.6649017  57.2068214  35.9658203  36.0750351  58.0442314
  35.3201065  38.1375427  57.7643890  34.5149651  38.0570221  58.4947090
  36.1377563  38.6231041  58.2970963  34.8002548  39.1199379  56.7209930
  35.6822548  39.3717346  56.1321182  34.0569572  38.7080917  56.0383568
  34.1001701  40.3813667  57.3814812  33.4597397  40.1015778  58.2179413
  34.8941917  40.9660378  57.8460274  33.4371834  41.2977676  56.3159409
  33.0115814  40.6165276  55.5791397  32.6571312  41.9215736  56.7523842
  34.3180809  42.2488213  55.5995522  35.0354729  41.7281723  55.1154251
  33.6855888  42.6558533  54.9254684  34.7731781  42.9297905  56.1905403
  34.4903374  35.8808479  56.5117760  34.2640800  36.0806885  55.3056908
  33.6945305  35.1705666  57.3352699  33.8783379  34.8942604  58.7749481
  33.7471581  35.7748871  59.4037476  34.7676773  34.2944412  58.9683228
  32.8311996  33.8956680  59.1706276  32.5035744  34.1374130  60.1817245
  33.2668610  32.9031219  59.0559235  31.7179852  34.0621681  58.1985359
  31.1041241  34.8633766  58.6100502  31.2678356  33.0704536  58.1542091
  32.4466934  34.5137138  56.8862114  32.7073746  33.5951576  56.3604736
  31.5105038  35.2890396  55.8701668  31.0840931  34.7563133  54.8721008
  31.2232418  36.5350685  56.1126099  31.5698605  36.9851646  56.9476967
  30.0988369  37.2231026  55.4703827  29.2751637  36.5326309  55.2889709
  29.6481247  38.4187469  56.2656784  29.4417362  38.0864601  57.2830734
  30.4790325  39.1220169  56.3214264  28.3237267  39.1740303  55.8479881
  28.4306812  39.2696457  54.7674713  27.4495125  38.5304146  55.9459839
  27.9868431  40.5218811  56.4220009  27.1009102  41.2031670  55.8883209
  28.5914307  40.9698830  57.4065437  30.4291592  37.7297745  54.0224838
  29.6002407  37.9131508  53.1467972  31.7021103  37.8491287  53.7170448
  32.3603706  37.4360847  54.3621712  32.3097191  38.0843430  52.3289032
  31.6444187  38.7344475  51.7607117  33.6768837  38.6541595  52.4605789
  34.1325836  38.0355530  53.2337303  34.2235680  38.6518440  51.5175858
  33.6678734  40.0472603  52.9092026  32.6905632  40.7747192  52.5897598
  34.6347351  40.5195122  53.5373878  32.3343811  36.7775002  51.4663200
  32.4575844  36.9251213  50.2503586  32.0582542  35.6011810  52.0169868
  31.7978668  35.5939827  52.9928207  32.0029716  34.3824387  51.2630119
  32.8052711  34.4012032  50.5254059  32.3583031  33.1557961  52.1570435
  31.6781197  33.1012383  53.0070267  32.3126144  31.7446938  51.5722427
  31.3269672  31.3685303  51.2982025  32.9009399  31.6454163  50.6600342
  32.6417046  31.0543194  52.3488922  33.7790031  33.3809242  52.6105919
  34.0690460  32.6656761  53.3802605  34.3816566  33.3593140  51.7026062
  33.9147224  34.3510094  53.0887299  30.6588573  34.1887627  50.6447258
  29.7228813  33.8550949  51.3791809  30.5894432  34.0703659  49.3392563
  31.4540901  34.2554359  48.8511620  29.3777695  33.7316055  48.5524292
  28.5654736  34.3733482  48.8936691  29.7780418  33.9953270  47.0472527
  30.4852161  33.2184830  46.7565346  28.4825172  33.8438454  46.1758957
  28.6996441  34.1003838  45.1390038  28.1188335  32.8305473  46.3463783
  27.7745190  34.5788994  46.5586891  30.4299145  35.3381882  46.6990433
  30.2516193  35.6003075  45.6561584  30.0582123  36.1399193  47.3371391
  31.5173073  35.3592224  46.7714195  29.1066818  32.2424774  48.8021545
  27.9904633  31.9689007  49.1584473  30.0547733  31.3822002  48.6223564
  30.9888439  31.6921730  48.3953514  29.8993320  29.9581146  48.9655838
  29.3491573  29.8440742  49.8996086  29.0958004  29.1455135  47.8962898
  29.0213528  28.0873451  48.1469650  28.0799732  29.5382347  47.8519554
  29.6675091  29.2761478  46.5080833  30.7393990  29.4729786  46.5283737
  29.4540348  28.3095951  46.0516815  28.9991741  30.3221340  45.6412277
  27.8125782  30.5335159  45.6329918  29.7669888  30.8745022  44.7271194
  30.7413425  30.6595249  44.5704956  29.2928448  31.4655552  44.0593300
  31.2851315  29.3014793  49.1973000  32.3072205  29.7698154  48.7161522
  31.2239323  28.1479244  49.8436241  30.3265820  27.9789906  50.2752762
  32.2541046  27.0526485  49.9439507  33.1893616  27.2500610  49.4200974
  32.5184708  26.8063183  51.4041023  32.2139053  27.6467800  52.0277710
  31.9263763  25.9301853  51.6685181  33.8692017  26.2283859  51.8362541
  34.1121178  25.3899975  51.1834145  34.5965347  27.0324059  51.7237968
  33.8426285  25.7978745  53.5973892  34.4135208  27.2251759  54.5252609
  35.4235840  27.4064980  54.1578331  33.8527374  28.1338005  54.3061104
  34.3903809  26.8815994  55.5594368  31.7920418  25.7412739  49.4024315
  30.6122990  25.4686356  49.5655022  32.5768433  25.1095314  48.5794487
  33.5183411  25.4663734  48.4997826  32.3841057  23.8697224  47.7902260
  31.3609676  23.4972935  47.8410835  32.3521080  24.4017029  46.3437881
  31.5385647  25.0950165  46.1303291  33.2906113  24.9428596  46.2235031
  32.4482307  23.2649269  45.3242340  33.3706284  22.6890812  45.3996353
  31.2531490  22.2873440  45.4346390  30.3023872  22.8033485  45.3008804
  31.3104897  21.5696926  44.6162300  31.2158070  21.8063469  46.4120560
  32.4109993  23.9766121  43.9632225  31.5481186  24.6317501  43.8434982
  33.3390579  24.4861069  43.7039452  32.2589111  23.1839485  43.2306519
  33.5253601  22.8768063  48.2265663  34.7092896  23.2285995  48.0512505
  33.1465607  21.6856823  48.7356567  32.1710320  21.5089970  48.9285965
  34.1821747  20.6261787  49.0632629  35.1387901  21.1068821  48.8585472
  34.1547737  20.1404076  50.5262108  33.1656494  19.8192348  50.8526802
  34.7725639  19.2424145  50.5193367  34.5459900  21.2319622  51.4799042
  35.2740173  21.9078140  51.0312386  33.4678726  22.2457905  51.8408318
  33.6130753  22.6621914  52.8376427  33.5588989  23.1064606  51.1782150
  32.4702988  21.8474331  51.6557541  35.0688972  20.6473560  52.8067856
  35.6089020  19.7212868  52.6095734  35.8321152  21.3182678  53.2010994
  34.2539864  20.4370594  53.4994545  34.0097313  19.4340439  48.0535088
  32.8763123  19.0630970  47.7425194  35.0940895  18.7484417  47.7516174
  35.9650459  19.0537167  48.1619072  34.9634094  17.5155411  46.9861069
  33.9869957  17.0850315  47.2083244  35.1139793  17.7556572  45.4513397
  34.6973038  17.0381432  44.7444763  34.6633568  18.7060299  45.1652756
  36.5229912  17.8928261  45.1385841  36.5438690  17.8738575  44.1789932
  35.8218155  16.3927116  47.5159340  36.7801514  16.5917225  48.2463417
  35.4643593  15.1182222  47.1725349  34.6886749  15.0591173  46.5283966
  36.1818581  13.9322309  47.6370468  37.2364845  14.2036800  47.6837883
  35.6638718  13.5687847  49.0672417  34.6293030  13.2342606  48.9906616
  36.2932587  12.9544163  49.7110786  35.6260643  14.5125589  49.6112747
  36.1768150  12.7187834  46.7511826  35.5314293  12.7513704  45.6297951
  36.9791946  11.6915188  47.1915131  37.5838394  11.7168283  48.0001335
  37.3445206  10.5385227  46.3757057  37.1154823  10.8434935  45.3546104
  38.8625336  10.2461338  46.5415268  39.0838699   9.2526674  46.1514778
  39.7103271  11.2783651  45.8247261  39.4275970  11.1510515  44.7797623
  39.5635872  12.2487698  46.2989426  40.7283554  10.9165773  45.9690628
  39.1924858  10.1281834  47.9015007  39.1300354   9.1937323  48.1124496
  36.4251175   9.3297062  46.6757011  36.2489548   9.0737095  47.8875580
  35.9308891   8.5586224  45.6681175  36.4386597   8.5485964  44.3464012
  37.5161285   8.4166031  44.4450951  36.1606255   9.4512367  43.8023071
  35.7904015   7.3205948  43.6515083  36.5204697   6.5547767  43.9134674
  35.7362061   7.5865827  42.5958481  34.5014000   7.0833530  44.3723793
  34.1250992   6.0642481  44.2834015  33.7216759   7.7439957  43.9933167
  34.8578033   7.4968734  45.8009529  33.9635925   7.8981471  46.2778931
  35.2999611   6.2398167  46.6338997  34.5881310   5.2781186  46.8163185
  36.5215416   6.3131618  47.2622643  37.1889420   7.0651174  47.1661415
  37.0239677   5.2767630  48.2446289  36.5058022   4.3229971  48.1449509
  38.4834099   5.0341129  47.9653816  38.7629700   4.3027229  48.7236786
  38.5241051   4.4309478  47.0583839  39.3798599   6.2614775  47.8536072
  40.5176849   6.1472092  47.3386612  38.9514694   7.4069400  48.2436218
  36.6773338   5.7749357  49.7066650  36.7272720   4.9556975  50.6118011
  36.3152809   6.9601912  49.9560928  36.4009476   7.6607919  49.2336540
  35.7562332   7.4271107  51.2736893  36.1752434   6.8836350  52.1205444
  36.0977135   8.9187117  51.4528618  35.6685410   9.4641523  50.6123810
  35.5468445   9.1137571  52.3729668  37.6366196   9.2678690  51.4973946
  38.1819763   8.8945761  50.6306000  37.5992813  10.7512074  51.7756729
  37.0083580  11.0520325  52.6407814  38.5966492  11.1666222  51.9198647
  37.2591515  11.3274012  50.9152031  38.2864037   8.5553427  52.6943245
  38.3095665   7.4757004  52.5462151  39.3115692   8.8804407  52.8716507
  37.6901588   8.7123919  53.5931702  34.2163353   7.2370324  51.3198166
  33.4666710   7.5443997  50.3417587  33.7338829   6.8010283  52.4752884
  34.4030418   6.5035014  53.1708488  32.3291969   6.4304757  52.7490845
  31.7623539   7.0004687  52.0129433  32.0507431   4.9385128  52.5928268
  32.5052834   4.3526607  53.3917465  30.9968090   4.7185140  52.7628822
  32.5557480   4.3956203  51.2845650  32.3150330   4.9627428  50.0022240
  32.0043678   5.9138274  49.8642998  32.7600861   4.1085944  49.0754433
  32.8133965   4.2868381  48.0115891  33.1615601   2.9779098  49.7392921
  33.5508614   2.2025445  49.2222290  32.9726791   3.0948467  51.0445404
  33.1577072   2.2851026  51.7348137  31.7728729   6.9773617  54.1176834
  30.5430393   7.0927877  54.2091255  32.7126350   7.3278861  55.0353546
  33.7015953   7.3128400  54.8308258  32.3699532   7.6905022  56.4412956
  31.9313202   6.8638506  57.0001755  33.7234230   8.0532608  57.1700554
  33.4005318   8.0419626  58.2110710  34.4625206   7.2632074  57.0371933
  34.1224518   9.0406208  56.9376869  31.4327946   8.8871212  56.6154594
  30.4573193   8.7918806  57.4369736  31.7790928  10.0983543  56.1137581
  32.6136398   9.9720993  55.5590591  31.2000465  11.4217310  56.4187431
  30.1453266  11.2757721  56.6518974  31.7880230  11.9993525  57.7467270
  31.4387589  11.2496309  58.4566841  33.3925400  12.0684061  57.6914864
  33.7240143  12.4341564  56.7196541  33.7615166  12.9042139  58.2859421
  33.8099709  11.0797729  57.8824158  31.2839890  13.3781872  58.1929016
  31.7259617  14.2142067  57.6508446  30.2003841  13.2971601  58.1072617
  31.4584599  13.5013523  59.2617760  31.3041630  12.4413652  55.2912979
  32.3223953  12.4633856  54.6243553  30.3017845  13.3304806  55.0678864
  29.6152954  13.3474426  55.8085251  30.4282455  14.3861723  54.0166664
  30.8770943  13.9923058  53.1048012  29.0560703  14.9043531  53.5653305
  28.4771500  15.1840515  54.4455147  29.2542648  15.8492174  53.0593147
  28.0701752  14.0602236  52.7664452  27.1494713  13.1976404  53.3319740
  27.2125607  13.0808449  54.4037857  26.1538181  12.4717464  52.5945511
  25.5035610  11.7714996  53.0977592  26.1588402  12.6879120  51.2115974
  25.5176105  12.0960474  50.5752640  27.0823326  13.5211325  50.6651115
  26.9991722  13.7097330  49.6049614  28.1044273  14.1884861  51.3956490
  28.8406162  14.7680988  50.8585510  31.3662300  15.4781551  54.6666870
  30.9903011  16.0140686  55.7052956  32.5676537  15.9023876  54.1099281
  33.2184372  15.2719507  53.0132828  32.8271599  15.6256199  52.0593834
  33.0183296  14.2011709  52.9747009  34.6712074  15.6003103  53.2628746
  35.2771149  15.4578905  52.3680573  35.0164986  14.8209057  53.9421463
  34.6919250  16.9660835  53.8465080  34.4827881  17.6939812  53.0625916
  35.5680122  17.1310825  54.4736824  33.4810982  16.8231754  54.7801437
  33.8010368  16.4482574  55.7523422  32.8453979  18.2446117  54.9290504
  33.2973633  18.9490108  55.8480606  31.7544708  18.6323910  54.1596832
  31.4142532  18.0813656  53.3846207  30.9346180  19.7993450  54.5043793
  31.4814758  20.7011070  54.2289276  29.6317749  19.7435017  53.7530365
  29.1427631  18.7705173  53.8006630  28.9843006  20.4999905  54.1964340
  29.8103924  19.9456139  52.6969376  30.5783424  19.9599094  56.0430794
  30.3876419  20.9977741  56.6318130  30.5435734  18.8226357  56.7852249
  30.7180786  17.9145241  56.3790436  30.1592236  18.8558254  58.1875458
  29.2051640  19.3789482  58.2525291  30.0145531  17.4107227  58.6935844
  29.6450100  16.6523170  58.0033951  31.0105076  17.0646114  58.9699516
  29.0811386  17.2185001  59.8956337  29.5596600  17.7144966  60.7400932
  28.1115208  17.6963215  59.7555275  28.9245758  15.7328205  60.2345963
  28.6850090  15.1873474  59.3218193  29.8163109  15.2410994  60.6233368
  27.7509899  15.6161423  61.2955589  28.1521091  15.1123238  62.1749763
  27.3120098  16.5916424  61.5048332  26.7076454  14.6736069  60.8757744
  25.8161983  14.7878065  61.3366241  26.4852543  14.7865391  59.8970566
  27.0089436  13.7136965  60.9646111  31.2147179  19.5562172  59.0090523
  30.8613968  20.0685863  60.0513268  32.5197372  19.5425835  58.6145020
  32.7210007  19.1667480  57.6988945  33.5664253  20.2578144  59.4607239
  33.4818916  19.8660469  60.4743690  34.9988174  19.9518909  59.0964737
  35.0765572  18.8826790  58.8993607  35.2137680  20.4537334  58.1530495
  35.7620430  20.2675056  59.8077888  33.2925415  21.8073540  59.6503639
  33.9049263  22.3208046  60.5394249  32.5166473  22.4643955  58.7864914
  32.1082077  21.9692268  58.0066948  32.1917763  23.8682060  58.9826317
  33.0920639  24.4507198  59.1782417  31.4810925  24.5202904  57.8259811
  30.4692078  24.1180706  57.8751221  31.3962841  26.0709248  57.8703842
  30.8838043  26.4359322  58.7604637  32.4053802  26.4797802  57.8188133
  30.7520332  26.4283619  57.0670891  32.0120888  24.1049271  56.4537201
  31.7196712  23.1025944  56.1407928  31.4549618  24.6894798  55.7215958
  33.0903969  24.2571487  56.4070129  31.4302406  24.0753670  60.2805557
  31.4659653  25.1511555  60.9161453  30.7874737  23.0479889  60.8533401
  30.8140640  22.1883965  60.3237228  30.2194691  23.1089535  62.2024956
  29.4717770  23.8974342  62.2883186  29.5951633  21.7753181  62.3872147
  28.8708916  21.5698700  61.5989761  30.2880573  20.9382172  62.3019943
  28.7559261  21.5706501  63.6553116  29.2451267  21.8158245  64.5980072
  27.8744221  22.2096634  63.6032600  28.3960152  20.0428734  63.7119217
  27.6274166  19.8682423  64.4648209  28.1116142  19.7080307  62.7143745
  29.5663929  19.3029118  64.1703491  30.4393578  19.7786045  64.3485336
  29.7049789  17.9783630  64.1424942  28.6547070  17.2852325  63.9663582
  27.7624912  17.7566566  64.0089493  28.7078533  16.2911110  64.1366425
  30.8218670  17.3898373  64.4288940  31.0068836  16.4305706  64.1726074
  31.6170292  17.9704762  64.6539993  31.2147999  23.3459625  63.3282013
  30.8682556  23.9375305  64.3382492  32.4461212  22.8813572  63.1440735
  32.7194824  22.6397896  62.2022591  33.5866737  23.0710812  64.0024185
  33.2348976  22.8966236  65.0192337  34.6028824  21.9742489  63.6903839
  34.9961472  22.3864269  62.7611084  35.3945122  22.1289062  64.4235306
  34.1347694  20.4880333  63.6211090  33.3730354  20.3506145  62.8536568
  35.0544891  19.9229393  63.4698296  33.6407738  19.9544449  64.8975449
  32.5078011  19.3705540  64.9412918  34.2786598  20.1371765  66.0204468
  34.1178703  24.5000725  63.9763718  34.6325798  24.9161510  64.9863205
  34.0673332  25.2146645  62.8423462  33.3603363  24.8412914  62.2252197
  34.3760796  26.6133060  62.6189728  35.3374863  26.8569012  63.0711403
  34.4960899  26.8762665  61.1386375  33.4874382  26.8071003  60.7312813
  34.8721466  27.8924484  61.0200310  35.4315224  25.9843788  60.3193817
  35.0730209  24.9658623  60.4683800  35.4539490  26.2852173  58.8103714
  35.5391731  27.3326283  58.5209465  36.3250618  25.8198967  58.3491364
  34.6161728  25.8842049  58.2399178  36.7999306  26.1740971  60.8374329
  37.4995117  25.5819588  60.2474747  37.2209702  27.1791058  60.8094788
  36.8506279  25.6354980  61.7837105  33.2993927  27.4688816  63.3490334
  32.0889549  27.4408550  62.9791183  33.7287178  28.3077869  64.2424164
  34.7201118  28.4882603  64.3107986  32.8409195  29.2667637  64.9838028
  31.9109745  28.7941189  65.2998886  33.5347023  29.8923531  66.2353745
  34.5321159  30.2358608  65.9610214  32.9488754  30.7131920  66.6490631
  33.7442627  28.9250412  67.2471848  34.5023041  28.3534565  67.1048279
  32.4108887  30.5129700  64.1354446  33.3096390  31.2213440  63.6937790
  31.0877190  30.8498077  64.0062408  30.4425869  30.1077633  64.2370529
  30.6153793  32.0837440  63.3749771  29.8122044  32.5950356  63.9056282
  31.4819012  32.7330170  63.5002136  30.3518066  31.9216900  61.8941383
  29.9877758  32.8506775  61.2373314  30.5004368  30.7232857  61.3166771
  30.7081451  30.0103283  62.0012550  30.3836842  30.3644619  59.8767395
  30.5578976  31.2207699  59.2252121  31.3953648  29.2353363  59.6405754
  31.3422909  28.4773445  60.4220657  31.0673923  28.6996822  58.7497253
  32.8109436  29.6828270  59.4715652  33.5361900  30.3050518  60.4339561
  33.2785072  30.2853260  61.4825821  34.7120209  30.7870941  59.8290977
  35.3502121  31.3006840  60.4198914  34.6816139  30.7459183  58.4623528
  35.4687309  31.3857956  57.5196495  36.2604370  31.9898815  57.9375992
  35.1122093  31.2467670  56.1457634  35.7246475  31.6469059  55.3512764
  33.9628487  30.4915066  55.8642197  33.7160606  30.3628082  54.8207016
  33.1982880  29.8664703  56.8627129  32.2795753  29.3597336  56.6066208
  33.5559044  29.9761143  58.1602783  28.9817734  29.8217163  59.5721931
  28.7108803  29.2246227  58.5347366  28.0473099  30.0853767  60.4398270
  28.2433949  30.5589485  61.3101044  26.8457127  29.2527905  60.6226959
  27.2002506  28.2400913  60.4307518  26.2302608  29.4741478  61.9877663
  26.9279957  29.2661171  62.7989349  25.8843670  30.5006065  62.1096420
  25.0386257  28.6127529  62.2266922  24.2219429  29.0982647  61.6924553
  25.1941032  27.6559143  61.7283058  24.7136288  28.4028835  63.7379684
  25.3247719  29.0301647  64.5622330  23.9247990  27.4084892  64.1660995
  23.4230747  26.7852592  63.5496902  23.7462730  27.2572613  65.1486282
  25.9061298  29.4300098  59.4184151  25.2391376  28.4785919  58.9997711
  25.9991131  30.5855007  58.7675476  26.6748695  31.2398968  59.1352692
  25.0921021  31.0796318  57.7427216  24.1448288  30.5619526  57.8936577
  24.9168968  32.6175613  58.0159569  25.8839207  33.0867119  57.8346786
  24.2352524  32.8993263  57.2134171  24.3434277  32.9235535  59.4045143
  23.0677662  32.5144691  59.7718849  22.4120884  32.0486259  59.0511398
  22.5196571  32.8286819  61.0165367  21.4477577  32.7333450  61.1078606
  23.2212887  33.6418915  61.9452057  22.6662674  34.0400620  63.1078568
  21.7087116  34.0470161  63.0397415  24.5522919  34.0551147  61.5762100
  25.2003136  34.5489006  62.2851868  25.1522255  33.6089973  60.3376236
  26.1699619  33.8974953  60.1199493  25.6187439  30.7854519  56.3034821
  24.8321304  30.8348598  55.3847961  26.9535561  30.5164928  56.1839333
  27.4857292  30.2059669  56.9842224  27.6536980  30.3382168  54.8804207
  27.4348297  31.2008781  54.2511253  29.1872826  30.3113136  55.0996017
  29.4399929  29.4058857  55.6513596  29.9543781  30.3632011  53.7513695
  29.6479015  31.2250576  53.1585999  31.0205688  30.4562054  53.9579811
  29.8428764  29.4521217  53.1634827  29.7289581  31.5202179  55.8710098
  29.4353294  32.4932060  55.4770927  29.5316067  31.4292641  56.9391289
  30.8184700  31.4948273  55.8504906  27.2125301  29.0510826  54.1606445
  27.0576324  28.0711784  54.9391365  27.0182056  29.0790749  52.8389816
  27.1683407  30.1712399  51.8754349  28.1835480  30.3244400  51.5093956
  26.7798767  31.1371269  52.1983414  26.2830524  29.8524780  50.6462898
  26.9027557  29.8199558  49.7501793  25.4286480  30.5293026  50.6440926
  25.6375065  28.4543591  50.9158630  25.6034946  27.7811356  50.0592918
  24.6171570  28.5860977  51.2759209  26.4867687  27.9180050  52.1281967
  25.7933731  27.3708515  52.7668953  27.6082325  26.9177246  51.6982155
  28.6216068  27.3437004  51.2135239  27.4271488  25.6140862  52.0654144
  26.5767727  25.4060669  52.5690918  28.4252758  24.6314068  51.9433784
  29.3797684  25.0804443  51.6687698  28.7146206  23.9273643  53.2430687
  27.8934402  23.2848606  53.5608139  29.9879684  23.0994186  53.0231552
  29.8700485  22.3125648  52.2781334  30.7767448  23.7095985  52.5831451
  30.3412170  22.6755524  53.9631882  28.9785500  24.9494724  54.4032021
  29.6859360  25.7209549  54.0990295  28.0361862  25.4249153  54.6752434
  29.4359932  24.5666065  55.3154869  27.9238682  23.7116165  50.8463707
  27.0329819  23.0049000  51.2057915  28.4084797  23.7786293  49.6144600
  29.1787338  24.4204559  49.4925232  28.1241798  22.6844807  48.7098198
  27.1857853  22.2189178  49.0110970  28.0675812  23.1636887  47.2060280
  28.4338112  22.3943596  46.5262375  26.5554543  23.3358517  46.8278465
  26.0709686  23.8557873  47.6543083  26.3676777  23.8049507  45.8620415
  26.0406837  22.3765945  46.8820801  28.6942444  24.4094429  47.0673065
  28.1444454  24.9839859  47.6050987  29.0936642  21.4148655  48.9903069
  30.1799488  21.7672958  49.5060387  28.7360668  20.1728325  48.5670204
  27.8156013  20.0669270  48.1649895  29.7048645  19.0957203  48.6478539
  30.7194843  19.4882278  48.5801430  29.5864010  18.3522377  49.9565926
  29.4428425  18.9640808  50.8471794  28.6870441  17.7456093  50.0626984
  31.1151199  17.3944168  50.2746582  31.2273388  16.5460453  49.2487106
  29.4667339  18.1729965  47.3697739  28.3531284  17.7437191  47.0708656
  30.5653858  17.8920746  46.6367722  31.4966736  18.0472202  46.9955711
  30.4228859  17.1321526  45.3442116  29.3615246  16.9010277  45.2537003
  30.7196770  18.0151558  44.1280785  30.4159660  17.5061264  43.2133408
  30.0093040  18.8408318  44.1696548  32.1254921  18.4459057  43.8056107
  32.7067528  18.6975937  44.6926804  32.6010742  17.5861454  43.3336563
  32.2273178  19.9310150  42.7389145  33.8661575  20.5482235  43.1510124
  33.9939690  20.6169224  44.2313080  34.5862083  19.8795071  42.6793709
  34.0223961  21.5462246  42.7415199  31.3610516  15.9408312  45.3387871
  32.3863907  15.9120522  46.0436783  31.1691837  14.8211355  44.6144257
  30.3578873  14.7034140  44.0244789  32.2587280  13.8873501  44.2831650
  32.8383904  13.6261435  45.1685257  31.6844540  12.5915012  43.8144455
  30.9276600  12.3209991  44.5507851  31.2372665  12.9033394  42.8705826
  32.6697121  11.4051409  43.6820908  32.2299767  10.6905355  42.9863358
  33.6395950  11.7535162  43.3270416  32.7409134  10.6030931  44.9856682
  32.0861130   9.6121922  45.2363167  33.5319481  11.0230293  45.9623222
  34.2057114  11.7200756  45.6790047  33.6655197  10.4084721  46.7526245
  33.1984749  14.4443598  43.2463074  32.6754494  14.9860344  42.2892990
  34.5247002  14.2400599  43.4152412  34.8310432  13.7776423  44.2592964
  35.5525131  14.5406609  42.4512405  35.4844360  15.4939222  41.9270630
  36.9474106  14.7634201  43.0719872  36.8147316  15.2314501  44.0474091
  37.4135132  13.7979822  43.2689095  37.9390945  15.5638161  42.2361336
  38.9220505  15.2801905  42.6122360  37.8085747  15.1473265  41.2373276
  37.8520889  17.1032295  42.1929626  38.8188896  17.7905560  41.7573814
  36.8030891  17.5430870  42.7162361  35.7536812  13.3171015  41.4655991
  35.8300285  12.1977415  41.9428940  35.9429321  13.5937366  40.1938591
  35.8912849  14.5671206  39.9293633  36.3718147  12.6158552  39.0851974
  35.5466042  11.9471436  38.8403587  36.7068100  13.4264088  37.8296890
  35.9529114  14.2048674  37.7124710  37.7160034  13.7764482  38.0467186
  36.7925301  12.6088638  36.5906448  37.4616852  11.7729282  36.7944679
  35.8675308  12.0842075  36.3514328  37.5753136  13.4150295  35.1431351
  38.1677055  11.9500093  34.2549973  38.6610146  12.4664135  33.4315453
  38.8442574  11.3407001  34.8542633  37.3595657  11.3453083  33.8434753
  37.5111351  11.6631508  39.4663887  38.6310196  11.9980707  39.9071617
  37.1595306  10.4134970  39.2846069  36.2783623  10.2081242  38.8357582
  38.0361176   9.2360849  39.3642731  38.6425705   9.3122015  40.2667809
  37.2489700   7.9740481  39.3911171  36.4220085   8.0457306  40.0975876
  36.7445030   7.7352014  38.4548645  38.0090370   6.6893783  39.7481270
  37.3906403   5.5685687  39.6602859  39.2125244   6.7457414  39.9416504
  38.9557457   9.2728062  38.1050682  38.4732132   9.2485476  37.0340691
  40.2627678   9.2449389  38.2997856  40.5016747   9.1941643  39.2798080
  41.3616219   9.3043280  37.2493858  40.8467216   9.1195440  36.3066025
  41.9385643  10.6843576  37.1592903  42.4951057  10.7420654  38.0947189
  42.8905678  10.9398613  35.9780579  42.2844734  11.0007982  35.0741539
  43.3531456  11.9079599  36.1701660  43.6021423  10.1142416  35.9673691
  40.8286819  11.7706375  37.1764908  41.2843170  12.6750298  36.7732773
  39.9136543  11.6063375  36.6074295  40.5289192  11.8603086  38.2206230
  42.4872971   8.2783499  37.5725899  42.8567047   7.9581604  38.6790924
  43.0090256   7.7775078  36.4360771  42.5837708   8.0215778  35.5530777
  44.1762962   6.9487753  36.5294838  43.9092331   6.0143123  37.0229988
  44.7208481   6.5994430  35.1421928  45.0301437   7.5378976  34.6820335
  45.9048882   5.6444564  35.0047264  46.3798485   5.6849976  34.0244865
  46.6832542   6.0026379  35.6784973  45.8884354   4.6514244  35.4538536
  43.7432289   6.1408191  34.2398224  43.2251282   6.9315124  34.0725670
  45.3397026   7.4640155  37.3273659  45.8429756   8.5976400  37.1096344
  45.8144836   6.6451735  38.2684250  45.3843040   5.7395935  38.3907890
  46.7832413   6.9333229  39.2833672  46.9415092   5.9929972  39.8114166
  47.6197586   7.2175007  38.6449356  46.5948143   8.1463728  40.2550850
  47.4855690   8.5160198  41.0557709  45.3904839   8.7530098  40.2238541
  44.7636642   8.4835606  39.4791451  45.0597534   9.9376259  41.0728989
  45.8281555  10.6933775  40.9101028  44.0376091  10.2317801  40.8345833
  45.1013451   9.5395279  42.5641136  45.0055008   8.3982000  42.9912071
  45.3340034  10.6290817  43.3370171  45.4423103  11.4859085  42.8133621
  45.5816879  10.6256628  44.7516022  46.4081078   9.9457712  44.9586639
  46.0201530  12.0860605  45.2122803  46.9731560  12.4082975  44.7926979
  45.2209167  12.7656183  44.9164352  46.2102165  12.2639198  46.7032623
  45.2703819  11.9788103  47.1760483  47.1874695  11.3007545  47.3417320
  47.4786682  11.7359324  48.2977295  46.7360344  10.3110943  47.4115868
  48.0831184  11.0884762  46.7579079  46.5108681  13.7097750  47.0230293
  46.1451683  14.0029612  48.0070992  47.5834923  13.8450623  46.8842010
  46.1174049  14.3436785  46.2283897  44.3930588  10.1147547  45.5998917
  43.3293686  10.7435074  45.5110779  44.5235443   8.9320345  46.1586342
  45.4783363   8.6026955  46.1571846  43.4415321   8.2806234  46.9567871
  42.5012207   8.3850346  46.4154854  43.7718163   6.8077626  47.0724144
  44.8420906   6.7535601  47.2715950  43.1695786   6.3757234  47.8716354
  43.5704575   6.0743337  45.7279434  42.5201149   6.1186423  45.4399872
  44.0845604   6.6472983  44.9562492  44.0692520   4.5822878  45.6869469
  43.7434692   4.0602975  44.7872276  45.1529922   4.5391049  45.7953262
  43.4275360   3.7415991  46.7673721  43.9353371   2.7773709  46.7898293
  43.6550789   4.2334495  47.7131081  42.0157127   3.7185323  46.5743103
  41.7888794   3.4774694  45.6200905  41.5425797   2.9708393  47.0613518
  41.4988976   4.5675282  46.7537766  43.2671890   8.8317795  48.3718719
  44.0956306   9.6200228  48.7962837  42.1238785   8.4817905  48.9261398
  41.5315590   7.7421031  48.5766869  41.6110992   8.9870243  50.2417946
  40.5466309   8.7661734  50.3207321  42.2096405   8.2140608  51.3063545
  43.2916718   8.3023691  51.2088432  41.9761353   8.6183586  52.2912979
  41.6910172   6.7620144  51.3766861  40.6524200   6.8245206  51.7015114
  41.7335167   6.2433724  50.4189262  42.5325165   5.9500403  52.4299011
  43.5385132   5.8097558  52.0344391  42.7306671   6.5228596  53.3358345
  41.9925308   4.6367879  53.0680847  41.1646500   4.8577604  53.7417984
  41.6809921   3.9226754  52.3057938  43.0653152   3.9152622  53.7566223
  43.7609062   3.5388882  53.1284485  43.3454132   4.4469581  54.5683784
  42.7557030   3.0834622  54.2386475  41.7153625  10.5231361  50.4738922
  42.3261337  10.9869070  51.4490356  41.2520828  11.2466736  49.4719505
  40.7073555  10.6646776  48.8517456  41.4743042  12.7305632  49.2838478
  42.0559616  13.0516100  50.1479683  42.2810097  13.0504732  48.0032845
  43.1813393  12.4483461  48.1255531  41.7787132  12.6868649  47.1068535
  42.7159958  14.8289061  47.8216324  42.8905563  15.1500750  49.1066513
  40.2893562  13.6538734  49.3634453  39.2080269  13.2866077  48.9037819
  40.2894783  14.7831593  50.1440811  41.1600456  15.1531010  50.4981346
  39.2983055  15.8141708  50.3521767  38.3680267  15.5898256  49.8302956
  38.9746590  16.0473919  51.8577347  39.8508797  16.4412537  52.3727226
  37.8635292  17.1787415  51.9910545  37.0099220  17.0515327  51.3252640
  37.4944382  17.2406731  53.0147934  38.2503853  18.1350155  51.6389427
  38.5614471  14.8042545  52.6875114  38.2656746  15.2920332  53.6163216
  37.7727051  14.2035742  52.2345581  39.7305183  13.8656301  53.1357079
  39.9625854  13.1338224  52.3619499  40.5719109  14.4176941  53.5544968
  39.3322868  13.2011547  53.9025078  39.8641090  17.0654678  49.7409286
  40.9644241  17.4168930  50.0816269  39.1427994  17.7780037  48.8607864
  38.1917152  17.4800606  48.6971664  39.4621811  19.0729103  48.2845612
  40.4316216  19.3846493  48.6732788  39.6386719  18.9064045  46.7607803
  38.6620140  18.5923500  46.3925323  39.8328705  19.8764572  46.3031921
  40.6705704  17.9014454  46.4137192  41.6546211  18.3478336  46.5568352
  40.5587006  16.9921093  47.0042229  40.5345764  17.6145401  44.8464165
  39.8001404  16.8145580  44.7529678  40.0350876  18.5118389  44.4810867
  41.7357521  17.1124840  44.1412010  42.4034538  17.7859383  43.7937355
  42.0387917  15.8259687  43.9725456  41.2255173  14.9262552  44.4462280
  40.3403358  15.1450357  44.8806114  41.4258194  13.9875822  44.1317902
  43.1392975  15.3846550  43.4087639  43.8885078  15.9919701  43.1088333
  43.2281952  14.3963251  43.2206116  38.4709167  20.1962852  48.5904007
  37.4048767  19.9265537  49.0729179  38.7450829  21.4597988  48.3076973
  39.6068611  21.5811653  47.7951355  38.1536598  22.7329407  48.7083626
  37.0929642  22.5389442  48.8677025  38.8553658  23.4508400  49.9378510
  39.9258614  23.3739319  49.7475281  38.6785126  25.0120411  50.0013962
  39.3352776  25.4407310  50.7583542  38.9805984  25.4455376  49.0480194
  37.6151733  25.2215424  50.1176643  38.5678024  22.7015820  51.2657013
  38.9543991  23.0893536  52.2081833  37.4840088  22.5977993  51.3178215
  39.0223541  21.7195778  51.1347466  38.1766548  23.6578560  47.4964981
  39.2022972  23.6890984  46.7589760  37.0760880  24.4224472  47.3604736
  36.2817879  24.2769241  47.9671097  37.1150551  25.6892872  46.6703835
  38.1483879  26.0216160  46.5709534  36.6000862  25.3850327  45.1782150
  37.2432098  24.6015148  44.7774658  35.5771790  25.0091610  45.2000237
  36.6168289  26.6146297  44.3694038  35.5932388  26.8349915  44.0664062
  36.9105263  27.4463139  45.0098267  37.6410599  26.8396473  42.8391647
  36.8466072  25.6448631  41.7419662  37.2133064  24.6410332  41.9563675
  35.7891159  25.6149349  42.0044785  37.1921082  25.8159084  40.7224236
  36.2377129  26.6082745  47.4721565  35.1587563  26.2147026  47.9433136
  36.5615692  27.8790436  47.6296997  37.4557686  28.1405296  47.2396584
  35.7904587  28.8482800  48.4305267  34.7543831  28.5196190  48.5119705
  36.4364700  28.8778877  49.7673759  36.4797134  27.8787422  50.2008972
  37.4420128  29.2384682  49.5506630  35.7082939  29.8342075  50.7662354
  35.8323364  30.8754253  50.4686089  34.6270332  29.7051868  50.7178764
  36.3268204  29.7376747  52.4573975  37.6947098  30.9199486  52.1208382
  37.3763771  31.8996601  51.7645760  38.3324432  30.9966393  53.0014725
  38.2669258  30.5002594  51.2934723  35.7451630  30.1557407  47.6699333
  36.7404900  30.6831417  47.2096710  34.5377998  30.7006569  47.4037018
  33.7615280  30.1305695  47.7078438  34.2315483  31.9461365  46.6852493
  35.0133171  32.1138306  45.9444313  32.9010506  31.8411694  45.9158401
  32.0027428  31.8597088  46.5329399  32.8505440  32.9247208  44.8701324
  33.8267250  32.9629784  44.3867035  32.1168747  32.8070984  44.0726357
  32.6035004  33.8689804  45.3553696  32.8051338  30.7111607  45.0106850
  33.5288200  30.7037716  44.3799515  34.1240730  33.2193718  47.6145668
  33.1919441  33.3110542  48.4617043  35.0121841  34.2181511  47.5100365
  35.8094711  34.1614418  46.8926048  35.1131935  35.3748055  48.4341393
  34.1396370  35.4242935  48.9218178  36.2723656  35.2209053  49.4659576
  36.2843666  34.1893883  49.8179893  37.6505508  35.5696754  49.0132828
  37.9407158  34.9117661  48.1941071  37.8157692  36.5951996  48.6829758
  38.3736916  35.2965279  49.7817650  35.8862343  36.0400162  50.5967369
  36.4245567  35.7088623  51.4847946  36.0092354  37.1141891  50.4584656
  34.8694916  35.8734016  50.9525146  35.2269211  36.7645111  47.7092743
  36.0611877  36.9741135  46.8428078  34.4969559  37.7925644  48.1154137
  33.8644066  37.6640968  48.8922501  34.6139488  39.0994072  47.5030746
  34.6465492  38.9862518  46.4194527  33.3681946  40.0212059  47.6209717
  33.6521950  40.8689079  46.9973984  32.5629349  39.5307579  47.0740471
  32.9671707  40.3268013  49.0846634  32.6823692  39.3624763  49.5054550
  33.7354355  40.5907364  49.8114433  32.0634308  41.4990273  49.0341911
  31.6788483  42.0782394  48.0347404  31.6348057  41.8265419  50.2538338
  31.9984970  41.2784958  51.0203018  30.9716110  42.5867310  50.3026924
  35.8351021  39.8752480  48.0453606  36.1825600  39.8881950  49.2061348
  36.5845299  40.4814911  47.1863022  36.3839798  40.2559357  46.2224541
  37.9459114  41.1060257  47.5134544  38.0337105  41.5868034  48.4877472
  38.9579239  40.0052338  47.6242409  38.5987549  39.2386208  48.3108253
  39.3430519  39.2846146  46.3687210  38.4653511  38.8804207  45.8643761
  39.7901649  39.9767456  45.6551704  40.0305824  38.4502640  46.5075150
  40.1517754  40.5602531  48.1950684  40.6907997  39.8368225  48.5232468
  38.3167763  42.1395798  46.5026093  37.7277908  42.2906952  45.4216423
  39.2758141  42.9460716  46.7995491  39.6854744  42.8407822  47.7167130
  39.9460831  43.9485741  45.9903069  39.3992081  43.9999008  45.0488167
  39.8954887  45.3353310  46.5995026  40.1964378  46.0668221  45.8495369
  38.8441162  45.5003014  46.8351059  40.6585541  45.4593658  47.9499016
  40.3867950  46.4774818  48.5972404  41.5397034  44.6147804  48.2507477
  41.3780479  43.4689674  45.5758705  42.0774765  44.2842522  44.9557800
  41.8403778  42.2418747  45.9208908  41.1369858  41.5980415  46.2537880
  43.2461739  41.8106575  45.8792114  43.8640442  42.7086143  45.8822441
  43.4924316  40.8670082  47.0670280  42.8424339  39.9925537  47.0365868
  44.8596611  40.2143974  47.1238060  44.7722702  39.5817719  48.0071220
  45.1195679  39.4733543  46.3678932  45.6368561  40.9749413  47.1989250
  43.3360519  41.7133446  48.2925186  44.0857773  42.4948769  48.4158707
  42.2995033  42.0022163  48.4663582  43.4073639  41.0310440  49.1395645
  43.5323334  41.0605202  44.5477142  42.6277428  40.4281006  44.0622177
  44.7139511  41.2121925  43.8982086  45.8169518  42.0640259  44.3401642
  46.5776672  41.5128593  44.8930054  45.5395432  42.8468742  45.0460663
  46.3672256  42.5833893  42.9995499  47.3544617  43.0421753  42.9449768
  45.6120682  43.2739410  42.6240807  46.2969131  41.2868500  42.1467667
  47.1408043  40.6115341  42.2878227  46.2715492  41.5625763  41.0925255
  45.0282516  40.6027946  42.6238060  44.2202301  40.9379234  41.9735069
  45.0211792  39.0921745  42.6087189  45.3035469  38.4832535  43.5942116
  44.7839661  38.4629021  41.4359093  44.6532173  39.1354141  40.6937943
  44.5236778  37.0394974  41.3736954  43.7929955  36.7612419  42.1331558
  43.9987373  36.6573181  39.9572258  42.9740677  37.0249825  39.9026260
  44.6424065  37.1375351  39.2202187  43.8724442  35.1367645  39.5606117
  44.8440514  34.6442947  39.5999947  43.2445526  34.5747299  40.2519646
  43.2315292  34.9921570  38.2179604  43.8634605  34.9709969  37.2387695
  41.9140892  34.7911148  38.1419258  41.3140831  34.7938042  38.9543839
  41.5123520  34.6460724  37.2266846  45.7118874  36.1130142  41.7194862
  45.4997063  34.9676399  42.1350327  46.9185562  36.5784149  41.5217285
  46.9836235  37.5255356  41.1770134  48.0901260  35.7359200  41.7885666
  47.7688904  34.7158928  41.5777245  49.3527565  36.1065331  40.8916931
  50.1497116  35.3631592  40.8727684  48.8824692  36.1381264  39.9088707
  50.1942177  37.3045044  41.1764374  51.3121262  37.2441406  41.7176933
  49.6645050  38.4343834  41.0610161  48.4872665  35.7855873  43.3293915
  49.0138550  34.8468094  43.8697701  48.2089767  36.9307747  43.9634819
  47.5106583  37.5240860  43.5387154  48.4742088  37.1160507  45.3981171
  49.4933548  36.7921982  45.6092033  48.2211914  38.6052094  45.7759743
  47.2766876  39.0193558  45.4231377  48.2973022  38.6602402  46.8619232
  49.2740288  39.4666710  45.1712151  50.2677307  39.1679192  45.5049896
  49.1877594  39.2659874  44.1033287  49.0510063  40.9741364  45.4057846
  48.5186539  41.4579582  46.3626175  49.4228401  41.8261032  44.5068245
  49.8541603  41.4655342  43.6677475  49.2591820  42.8141136  44.6378136
  47.4835396  36.3067017  46.2809792  47.6927605  36.1258430  47.4630890
  46.4869461  35.6952400  45.6828995  46.5068359  35.7485085  44.6745033
  45.4664459  34.8309021  46.3643532  45.0704575  35.3463249  47.2393608
  44.3287086  34.5145340  45.4418259  44.7477341  33.9597511  44.6023407
  43.2155876  33.6961212  46.0477715  43.5884552  32.7126999  46.3340416
  42.8856888  34.1650658  46.9747887  42.4018669  33.5931053  45.3298950
  43.7660942  35.7929382  44.8636856  44.5624466  36.2377052  44.2669411
  42.9887390  35.4083710  44.2034378  43.3330917  36.8930016  45.8918381
  42.7474060  37.6065483  45.3122444  42.7099533  36.4639664  46.6765251
  44.1508102  37.4054527  46.3986282  46.1091728  33.5283928  46.8113861
  46.7988129  32.8860970  46.0282288  45.9877548  33.2141685  48.0965042
  45.4038620  33.8515854  48.6188736  46.7347946  32.1218071  48.7688751
  47.5732765  31.8159351  48.1431770  47.2538757  32.7473106  50.1259575
  46.4103279  33.0024605  50.7673836  47.7375565  31.9488602  50.6886559
  48.4410629  33.7230949  50.1130333  49.3445168  33.2865219  49.6872711
  48.2815018  34.5658035  49.4403648  48.9189835  34.2894135  51.4891891
  48.1329651  34.9394417  51.8735657  49.0044212  33.4096222  52.1269722
  50.2486801  34.9079552  51.4285736  50.3063431  35.6963310  50.7998924
  51.3916588  34.5472145  51.9829063  51.4659653  33.6457787  52.8296471
  52.3089561  33.5968399  53.3837967  50.6356087  33.2160339  53.2116585
  52.5601768  35.1469116  51.7268372  53.4421120  34.8118362  52.0874100
  52.6455803  35.7850914  50.9486732  45.9315948  30.8052597  48.9400368
  45.0665932  30.6564236  49.8950920  46.1652412  29.8335190  48.0601845
  46.5137482  30.1489105  47.1662216  45.7079315  28.4126034  48.0707169
  44.7080193  28.3867073  48.5038528  45.5766678  27.8599758  46.6356201
  46.5529327  27.5394688  46.2719154  44.7940941  27.1019115  46.6037712
  45.1311798  28.9438286  45.6298790  43.8359337  29.4595909  45.4594803
  43.9072685  30.4051895  44.5125847  43.0415230  30.8800621  44.0751190
  45.1814728  30.5901260  44.1658134  45.4908409  31.3735752  43.6084976
  45.9320869  29.6309280  44.7639542  46.9749908  29.4346180  44.5634003
  46.6947136  27.5495396  48.8988190  47.8331985  27.9314556  49.0422058
  46.1250992  26.4807606  49.4505501  45.1426849  26.3477554  49.2574959
  46.7628136  25.7935085  50.6135254  47.8249550  26.0350895  50.5735779
  46.0790482  26.1986256  51.9654541  45.0020027  26.1189690  51.8180313
  46.4962082  25.2019253  53.1326599  46.0858383  24.2079697  52.9545021
  47.5730476  25.1203766  53.2805367  46.0534554  25.5780106  54.0549545
  46.4618950  27.5659657  52.5398865  47.5438004  27.5921192  52.6698570
  46.1065826  28.4382267  51.9912415  46.1804848  27.6494141  53.5896225
  46.4998627  24.2664490  50.4241257  45.4317932  23.7462521  50.1821060
  47.5954857  23.4357548  50.4867325  48.4625244  23.9424057  50.5946655
  47.5961227  22.0086918  50.3210297  46.6146584  21.5351315  50.3449326
  48.2865143  21.6271133  49.0128403  49.2524643  22.1232281  48.9184418
  48.4903374  20.5576763  48.9593620  47.5392380  22.0814915  47.7630386
  47.4587212  23.4610443  47.4366379  47.9343567  24.2098083  48.0527000
  46.6769524  23.8849602  46.3705902  46.5876007  24.9338341  46.1291771
  45.9830055  22.8727932  45.6432190  45.0801964  23.2012138  44.6689987
  45.0127602  22.4395466  44.0885544  46.1524849  21.5431080  45.8413239
  45.5791054  20.8664780  45.2250328  46.9421082  21.1215153  46.9215088
  47.0834198  20.0697041  47.1218452  48.2987823  21.3410816  51.5391045
  49.2903023  21.8746529  51.9894142  47.7819595  20.2556019  52.1321869
  46.8909340  19.9155235  51.7997398  48.3560524  19.5864067  53.3226433
  49.4044456  19.8678207  53.4215355  47.6424484  19.9686794  54.6612587
  46.6323051  19.5666466  54.5832939  48.0797615  19.3834171  55.4701653
  47.7127228  21.4796391  55.0099487  47.5165291  22.0577507  54.1069565
  46.8131294  21.8630772  56.1614876  45.7957954  21.4876690  56.0510788
  47.1691093  21.4680634  57.1129799  46.8572998  22.9519367  56.1845818
  49.1191063  21.8136311  55.4534950  49.8956718  21.4322033  54.7905006
  49.2373962  22.8939018  55.3690948  49.3255959  21.4862728  56.4724655
  48.3156357  18.0979862  53.2118950  47.6575851  17.5043163  52.3281250
  49.0888176  17.4586201  54.1133499  49.4979248  18.0502167  54.8223953
  49.1254692  15.9759569  54.1247101  49.8019905  15.6584320  54.9181824
  47.7262497  15.4306364  54.6038742  47.0786400  15.8672428  53.8435593
  47.7999115  14.3439140  54.5624504  47.1916199  15.8789721  55.9248886
  47.2740173  16.9656410  55.9464111  46.1659126  15.5202150  56.0104485
  47.9752045  15.3654757  57.1287994  48.0501900  15.9848347  58.1878433
  48.4581108  14.2042122  56.9776421  49.7298164  15.4631863  52.7938194
  50.4929543  16.1557541  52.1884193  49.3052063  14.2597895  52.3673820
  48.7699623  13.6505070  52.9693718  49.7081337  13.5405807  51.0394478
  50.7825356  13.4624538  50.8731308  49.1230011  12.1756887  51.0624580
  48.2385597  12.1049681  51.6955910  49.0044899  11.9350662  50.0059738
  50.1414909  11.1298084  51.5813904  51.0184364  11.1004200  50.9347038
  50.4888039  11.2780466  52.6038895  49.2476578   9.8705988  51.5179024
  48.3628540  10.0066147  52.1397743  48.9461441   9.7163916  50.4818459
  50.1021500   8.7341452  51.9886665  50.7628822   8.5882263  51.1341286
  50.6347694   9.0751314  52.8764420  49.3925285   7.4961367  52.2506256
  50.0563126   6.7566323  52.4312439  48.7146225   7.6313925  52.9870033
  48.6702957   7.3185091  51.5673027  49.1760712  14.4721632  49.8984146
  49.9262886  14.4851370  48.9071083  48.1862106  15.2913218  50.0292130
  47.7236023  15.3719082  50.9234161  47.8884277  16.3249016  49.0779457
  47.8264847  15.8188610  48.1145210  46.5235291  16.9981098  49.3406830
  46.7378082  17.8032188  50.0435257  46.0474091  17.3706398  48.4336929
  45.7701416  16.3501015  49.7885590  48.9506493  17.3765640  48.8379707
  48.8986549  18.0822716  47.8759308  49.9694862  17.5777817  49.6991539
  49.9896011  17.0417252  50.5549202  50.9887238  18.7051449  49.4403152
  50.4104576  19.5953751  49.1929283  51.8575821  18.9435539  50.6617279
  51.2510338  18.8844070  51.5654449  52.9767952  17.9712048  51.0025177
  52.5734406  16.9626770  51.0935135  53.8263741  18.0909786  50.3302307
  53.4430199  18.2598591  51.9445457  52.3420410  20.3409023  50.6038589
  52.8534164  20.6289883  49.6853790  51.4681931  20.9860096  50.6951141
  52.8706589  20.5355263  51.5370178  51.7430496  18.3710499  48.1000633
  52.1621933  19.3139286  47.4002266  51.7448387  17.0877781  47.6411819
  51.2550087  16.4147263  48.2131691  52.2389183  16.6047935  46.3170586
  53.2362175  17.0191116  46.1692352  52.4033165  15.0612392  46.3001480
  51.4068832  14.6194029  46.2977638  53.1451454  14.4350138  45.0696068
  54.0326500  15.0222349  44.8337860  53.3380890  13.3832378  45.2808876
  52.4123077  14.4805117  44.2640152  53.1320534  14.4289684  47.5105362
  53.3716431  13.3715000  47.3988914  54.1215668  14.8858585  47.5252838
  52.5559883  14.6322660  48.4132652  51.4043083  17.0434837  45.1191063
  51.7934570  16.8410435  43.9642677  50.1807365  17.5888996  45.2396889
  49.7015991  17.6263638  46.1280136  49.3988991  18.0876083  44.1306076
  49.6045189  17.5137291  43.2270126  47.9719925  18.1502476  44.5811768
  47.8769798  18.7859020  45.4615288  47.4769745  18.6770515  43.7653770
  47.2638550  16.8165855  44.9703255  47.8878365  16.4103870  45.7664108
  45.7827682  17.1090488  45.3835564  45.2504845  17.6574993  44.6064034
  45.2373199  16.1879463  45.5888786  45.7298088  17.7682781  46.2499962
  47.2907906  15.7782469  43.8823433  48.3303108  15.6287003  43.5905647
  46.9759636  14.8146029  44.2828102  46.6690979  16.0965214  43.0455093
  49.8609695  19.4672928  43.5887680  49.4999161  19.8639870  42.4406853
  50.6834908  20.1676369  44.4098434  50.9019737  19.7791710  45.3161888
  51.3974800  21.3775959  43.9977875  51.4673805  21.3964081  42.9101906
  50.5190125  22.5360851  44.3657303  50.2922554  22.4619274  45.4293022
  51.1333694  23.4234428  44.2131996  49.2032089  22.7263813  43.5449066
  48.4029922  21.9922810  43.6389999  48.7457314  23.6211357  43.9670792
  49.3018150  23.1487560  42.0756035  49.7888947  22.4269676  41.4199524
  48.3051682  23.4173737  41.7253990  50.2110786  24.3669605  41.8988075
  51.1369438  24.0669498  41.6288643  50.0972404  25.6300373  41.9013977
  48.9957199  26.2229729  42.2976913  48.8996696  27.2228432  42.1921730
  48.2210884  25.7245407  42.7119560  51.1324120  26.3691921  41.5412483
  50.9791260  27.3237629  41.2490082  51.9978600  25.9417706  41.2439003
  52.8356743  21.3925209  44.5715370  53.1644402  22.1635475  45.5448189
  53.7774544  20.6063576  44.1201973  53.7030258  19.6400356  42.9998016
  53.5760956  20.1637516  42.0523262  52.7976227  19.0521679  43.1506691
  54.9524841  18.8019695  42.8936005  55.0914040  18.4370747  41.8759270
  54.8395042  18.0094090  43.6333160  55.9605141  19.8504410  43.4352379
  56.3245239  20.5185890  42.6547394  56.7103004  19.2267399  43.9219818
  55.1783562  20.7134361  44.4589920  55.2951813  20.2620888  45.4442520
  55.6722603  22.1895351  44.3547516  56.6517448  22.5950317  45.0208740
  55.1131248  23.0362282  43.4484329  54.3941460  22.6715164  42.8400307
  55.5499992  24.2838078  43.0913620  56.6393661  24.2975731  43.1258125
  55.2753792  24.5429516  41.6161804  55.7077255  25.5265522  41.4325676
  55.7981567  23.7993279  41.0146561  53.7861252  24.4704037  41.2070732
  53.4331322  25.1415272  40.2227783  53.0087891  23.6539860  41.7424202
  55.2196083  25.4172096  44.0674973  55.6752739  26.5597019  44.0321007
  54.1304512  25.2580242  44.8526077  53.6706696  24.3760605  45.0282097
  53.5157318  26.3774586  45.5440369  53.3434715  27.2062130  44.8573112
  52.1422882  25.8846302  46.0401382  51.6116066  25.5009556  45.1687698
  52.2681046  25.2703819  46.9317474  51.2682381  27.1179047  46.5390892
  51.7033844  27.3186607  47.5180893  51.1200027  28.3743229  45.6912956
  50.6950455  28.1726894  44.7080116  50.6038933  29.2255440  46.1353188
  52.1477394  28.7051754  45.5416489  49.8545113  26.6251049  46.6369591
  49.8515930  25.6173630  47.0523491  49.2655296  27.1867867  47.3620186
  49.3233566  26.5778904  45.6863060  54.3767624  27.0138397  46.6642838
  54.4248047  28.2710400  46.8174019  55.0172615  26.2029190  47.5103722
  54.9259224  25.2133141  47.3302650  55.9242668  26.5234222  48.5705757
  55.4061089  27.2938938  49.1415291  56.2676506  25.3355846  49.5201950
  57.0548172  25.7026081  50.1788063  55.3702888  24.9730415  50.0215950
  56.7591972  24.2585926  48.7268105  55.9959183  23.7104416  48.5304985
  57.1875610  27.1237316  48.0737152  57.6404686  26.9000340  46.9519196
  57.8478699  27.8986053  48.8733406  57.3534660  28.2021084  49.7001114
  59.1227875  28.5673065  48.5965691  59.2154770  29.2337379  49.4541130
  60.2440605  27.5139256  48.7263107  60.2309227  26.9311886  47.8052521
  61.1740723  28.0820122  48.7477760  60.1845322  26.5699100  49.9104500
  59.2831917  25.9716930  49.7769661  61.4268456  25.6573677  49.8114624
  61.3810463  24.9205208  50.6133728  61.6326523  25.1229687  48.8840141
  62.3716888  26.1829376  49.9498444  60.1516876  27.2446804  51.2541161
  59.7150307  26.5111523  51.9318810  61.0941162  27.6622791  51.6084328
  59.3542175  27.9877262  51.2588539  59.1606903  29.4501591  47.3399849
  60.2281227  29.7354412  46.8461456  58.0386963  29.9779472  46.9055824
  57.1577759  29.7884865  47.3618546  57.9278107  30.7369690  45.6321793
  58.2946320  30.0679436  44.8537521  56.5314293  30.9290619  45.2066231
  56.0363274  29.9580879  45.1929512  55.7463112  31.8045731  46.1245995
  54.7430000  31.8275337  45.6992111  55.5520592  31.3891087  47.1134148
  56.2723503  32.7483215  46.2685394  56.4726906  31.6235485  44.0423584
  56.9218903  31.1073608  43.3690300  58.7527008  32.0707893  45.6235695
  58.9131889  32.7430649  46.6739311  59.2405243  32.4369888  44.3989258
  59.0800133  31.8675919  43.5803146  59.9762802  33.7284775  44.2246437
  60.8324585  33.7953453  44.8959045  60.6166954  33.6638947  42.7932587
  59.9610176  33.6631622  41.9225197  61.3380356  34.4678001  42.6466103
  61.4992256  32.4030876  42.6196365  60.8302002  31.5432510  42.5852699
  61.9402313  32.4862747  41.6263046  62.5743217  32.0864525  43.6309052
  63.2807503  32.9147415  43.5761642  62.0754013  32.0628929  44.5997276
  63.0776100  30.7061424  43.2718010  62.1503143  30.1362896  43.2127113
  63.5522881  30.7667446  42.2924614  64.0682602  30.0830593  44.2739220
  63.4486389  29.9978619  45.0669632  64.3138504  29.1208229  44.0898132
  64.8984528  30.6325054  44.4441910  59.1035385  34.9517517  44.3490448
  59.5754662  36.0837288  44.5502281  57.7487793  34.6673393  44.2464333
  57.5572624  33.7817116  43.8002472  56.7649536  35.7848663  44.2988548
  56.9043121  36.5268555  43.5126419  55.2899399  35.2619705  44.1825638
  55.2823372  34.5394325  43.3664894  55.0426407  34.6974373  45.0815887
  54.2913704  36.3218498  43.7985115  54.4709511  37.5008125  44.0294685
  53.1380882  35.9321823  43.2816467  52.8972893  34.9584999  43.1630707
  52.3230171  36.5106049  43.1361046  56.8843155  36.6368141  45.5567284
  56.4627457  36.1615639  46.6435738  57.3995819  37.9026680  45.5231628
  57.7765312  38.2332039  44.6463776  57.4864922  38.8763428  46.6327324
  57.9168015  38.3120499  47.4600830  58.4843254  39.9290161  46.3012238
  58.4979401  40.7298775  47.0405045  59.9252777  39.4414101  46.0533257
  60.3892899  38.7565155  46.7630463  60.0608025  39.0203629  45.0571098
  60.6128998  40.2785721  46.1734695  58.1349144  40.4682541  45.0644112
  57.6921806  41.3196373  45.0914955  56.1921768  39.4378395  47.1278992
  56.0527344  39.7722740  48.2950211  55.2019958  39.4621429  46.2510643
  55.4159775  39.0710182  45.3447876  53.9339561  40.1276627  46.4286537
  54.1676254  40.9690590  47.0809975  53.4714241  40.7863426  45.1700325
  53.2331161  39.9726753  44.4850121  52.5690193  41.3623199  45.3749962
  54.5137825  41.6047935  44.4446449  55.2988548  40.9561310  44.0560608
  54.0856133  42.1412621  43.5978966  55.1943207  42.6759491  45.3076782
  54.4823189  43.4256439  46.0463104  56.4142761  42.7146797  45.3611145
  52.9022789  39.2773972  47.1283646  52.0137291  39.9052010  47.7344398
  53.0292130  37.9542732  46.9812813  53.7681351  37.6612015  46.3582230
  52.2150230  36.9758415  47.6046028  51.1637726  37.1290436  47.3606758
  52.6103668  35.7271194  46.8914490  52.4876976  35.8102417  45.8115692
  53.6893730  35.6668777  47.0336304  51.9479866  34.4505615  47.3252182
  51.9498367  34.3529549  48.4108391  50.4745331  34.3053284  46.9395981
  50.4159851  34.2556992  45.8523064  50.0206184  33.4401283  47.4228058
  49.8829651  35.1210136  47.3552933  52.7532082  33.2632027  46.8777161
  53.8376389  33.2417488  46.9855995  52.4132919  32.3721924  47.4055901
  52.5039062  33.0774841  45.8329849  52.3357582  36.8603020  49.1380119
  51.3277016  37.0143089  49.8989677  53.4452934  36.7030029  49.7000313
  24.2672081  46.0645370  47.7120209  24.8938580  46.8241158  47.4874039
  23.3215885  46.3865051  47.5628510  24.4800320  45.7654800  48.6529617
  24.3457184  44.9313583  46.7936783  23.4878464  44.2864532  46.9840813
  24.2217426  45.4271278  45.3348045  23.3095894  46.0235023  45.3145332
  25.0876026  46.0378227  45.0789948  24.2135067  44.3906555  44.2154503
  24.0373821  44.9356537  43.2880592  25.1920071  43.9167252  44.2930908
  23.0223732  42.9775162  44.2340736  21.4918995  43.8823128  44.1778831
  21.3042088  44.3148155  43.1951218  20.7625160  43.1089935  44.4188690
  21.4395523  44.7108192  44.8842392  25.5245209  44.0358086  47.0716972
  26.6308308  44.4597855  47.2974777  25.3123531  42.7134895  46.9728050
  24.4185925  42.4754639  46.5670471  26.2485619  41.6386299  47.1647873
  27.2529144  41.9684753  46.8991241  26.3671494  41.2903061  48.7225075
  26.5870781  42.2056007  49.2720222  25.3323097  41.0748940  48.9886208
  27.3230076  40.2084923  49.2407341  27.3961029  40.2117500  50.3282776
  26.8990765  39.2179489  49.0758018  29.0133286  40.0771637  48.6513939
  29.6115379  38.6182938  49.6275291  28.9541492  37.7508125  49.5690765
  30.6404934  38.4241638  49.3247681  29.5284901  38.8761482  50.6833305
  25.9742203  40.3808479  46.2723122  25.0635204  40.3718300  45.4638481
  26.7096691  39.2717094  46.4788589  27.5088291  39.2610283  47.0963783
  26.3667278  38.0210724  45.8244019  25.4063969  38.1202126  45.3184052
  27.3515530  37.7251434  44.7143631  28.3225231  37.4230118  45.1068344
  27.0038738  36.5357819  43.7416267  27.9214382  36.0182114  43.4618111
  26.4041386  35.8187332  44.3022118  26.4457703  36.8560486  42.8618240
  27.5210800  38.9665947  43.8234673  26.6124477  39.4592285  43.4773407
  28.0479927  39.7061577  44.4263916  28.3473034  38.6979637  42.5517159
  28.7347660  39.6907501  42.3229218  29.1268482  37.9869041  42.8252182
  27.7000961  38.3901825  41.7304420  26.2173195  36.8193703  46.8018379
  27.1489391  36.6425438  47.5884285  25.1682243  35.9995308  46.7471542
  24.4550362  36.1924400  46.0584984  24.8384132  34.9789429  47.7111282
  25.7537804  34.7888222  48.2715378  23.6641521  35.3452072  48.5980377
  22.8249073  35.5714302  47.9403191  23.4324932  34.4859390  49.2273941
  23.9018936  36.5702934  49.4691658  24.1949520  37.5151405  49.0114784
  22.9385509  36.8185577  49.9146271  24.9593983  36.2136421  50.4837685
  24.4382076  35.5088196  51.1316032  25.7824192  35.6852150  50.0026207
  25.4704571  37.2501945  51.4523659  24.9631691  38.0983086  51.6608467
  26.7065964  37.4437523  51.8527107  27.6425476  36.5351791  51.8500595
  28.5610695  36.8430634  52.1357689  27.4931469  35.6136818  51.4645462
  27.0248260  38.5449333  52.5327568  26.3586369  39.1977730  52.9201736
  27.9964924  38.5512428  52.8083000  24.5574970  33.5754738  47.0727615
  23.5869255  33.5004120  46.3511162  25.1081047  32.4360695  47.5283546
  25.8132324  32.4836845  48.2499008  24.6301537  31.0304489  47.2313461
  24.3020515  30.9872208  46.1927986  25.4355812  30.3074017  47.3601875
  23.4749794  30.6092758  48.0526314  23.4886436  30.6843739  49.2926941
  22.4366608  30.0326042  47.4731979  22.4553928  29.9184990  46.4698410
  21.1305485  29.6089306  48.1050034  21.2157745  29.7565956  49.1815872
  19.9416275  30.5389881  47.5943718  19.7744904  30.2960987  46.5450020
  18.6396370  30.2468548  48.3255844  18.8363342  30.2922344  49.3967285
  17.8763161  30.9579086  48.0096016  18.3059826  29.2190437  48.1828232
  20.2612228  32.0275574  47.6861610  20.6265221  32.2274208  48.6934891
  21.1217937  32.1957970  47.0386925  19.1693420  32.9179955  47.2340050
  18.4854908  33.1695671  48.0446625  19.5342426  33.8826065  46.8811951
  18.6998711  32.4605408  46.3631248  20.8438015  28.1443233  47.7320442
  20.9724579  27.7975349  46.5338326  20.5042152  27.3909779  48.7688332
  20.4238758  27.8459015  49.6669922  20.3758774  25.8774281  48.8270454
  20.6552830  25.4844017  47.8495140  21.2991524  25.2691040  49.8695755
  21.2052689  25.8044167  50.8144188  21.1882362  24.2137775  50.1187363
  22.7345638  25.5727940  49.5573578  22.9871883  25.3099289  48.5301361
  22.8200760  26.6462860  49.7258797  23.6908798  24.9259224  50.5340195
  24.6854954  25.3218479  50.3288727  23.4563084  25.1756268  51.5687752
  23.6408482  23.4622097  50.2827568  23.6406612  23.0552654  49.3583679
  23.3999195  22.5348377  51.0749550  23.7005806  22.6586323  52.2853203
  24.3803253  23.3449936  52.5802002  23.2672272  21.9786873  52.8935814
  22.9194813  21.3550968  50.7398872  22.8021259  21.3348179  49.7369308
  22.7596550  20.5612659  51.3435326  18.9881935  25.3462543  49.0800858
  18.0330200  26.0811977  49.3703194  18.9386425  24.0323868  48.9199905
  19.7656403  23.5861320  48.5498123  17.8674126  23.1722679  49.3456039
  17.7691135  23.2690811  50.4268379  16.9424057  23.4628239  48.8475647
  18.1731014  21.6650257  49.0341263  19.1617889  21.3596668  48.3547974
  17.1444454  20.8111076  49.3543663  16.2642097  21.2391376  49.6035156
  17.1637917  19.3912716  49.0113602  17.8623314  19.4147797  48.1749458
  17.6590958  18.5763721  50.1366920  18.6393814  18.9376373  50.4475517
  16.9866886  18.6824780  50.9879913  17.8828659  17.5432968  49.8706245
  15.7262707  18.9141998  48.6523323  14.7425966  19.5500698  49.0418701
  15.5936279  17.6958637  48.0882111  16.4876289  17.2633190  47.9044495
  14.3440504  16.9809189  47.8757973  13.6674461  17.1604309  48.7113113
  13.5700436  17.4573345  46.6272469  13.6183691  18.5452595  46.6740608
  14.1719093  17.0311012  45.3146706  13.6861820  17.6226768  44.5386467
  15.2059689  17.3757801  45.3188553  14.0479860  15.9574108  45.1734924
  12.2808971  16.8992023  46.6534042  11.6345377  17.6090012  46.6509056
  14.6480312  15.4283943  47.8289986  15.8004351  15.0444126  47.8427391
  13.6129007  14.5416479  47.7246208  12.7307425  15.0044012  47.5580254
  13.7555819  13.0879717  47.5319748  14.7185993  12.8722286  47.0692024
  13.5686045  12.3566656  48.8902206  13.6029835  11.2818251  48.7123489
  14.7285099  12.7582083  49.8563042  14.5957851  13.7438498  50.3023911
  14.7116795  11.9315090  50.5665092  15.6278238  12.6635723  49.2477150
  12.3906021  12.6785812  49.5173149  11.7024975  12.0268908  49.3642998
  12.6695328  12.5177317  46.5873337  11.5716314  13.0896425  46.4938927
  13.1035719  11.4391394  45.9179993  14.0783768  11.2111187  46.0516434
  12.2466412  10.6920242  44.9517097  11.1898575  10.9464865  45.0326920
  12.8064489  10.8881702  43.5266571  12.3553991  10.0637913  42.9743385
  12.3615589  12.2317429  42.9150848  11.2801914  12.1989155  42.7821732
  12.4770098  13.0819244  43.5873680  13.0103226  12.4336519  42.0627708
  14.2980385  10.6564913  43.2954826  14.7391577  11.5007744  43.8253021
  14.6483126   9.7406330  43.7715225  14.5184755  10.5984497  42.2295837
  12.1877127   9.2268925  45.2486725  13.1389704   8.6844549  45.8149719
  11.0683231   8.5676022  44.9519043  10.3158321   9.1575565  44.6266174
  10.8976526   7.1229091  45.1803665  11.6610498   6.8478818  45.9081612
   9.4663525   6.8864212  45.6782875   8.8361626   7.4176245  44.9649963
   9.2177782   5.8254771  45.6516113   9.1458769   7.4244833  47.0838356
   9.0218897   8.4976997  46.9391479   8.1919603   7.0558071  47.4609566
  10.3025894   7.1090474  48.0952797  10.6339903   5.9288802  48.2617264
  10.7856712   8.0469818  48.7462044  11.3331118   6.3291297  43.8968163
  11.6157732   5.1078062  44.0000420  11.6543941   6.8958597  42.7058678
  11.5077429   7.8911338  42.6162643  12.1221800   6.2020817  41.5116959
  12.5489111   5.2856917  41.9194183  10.9358711   5.7288389  40.6423225
  10.6956425   6.6455617  40.1037979  11.2703114   4.9861364  39.9179993
   9.6945047   5.1359830  41.3154182  10.0413704   4.1615653  41.6593590
   9.5027752   5.6555390  42.2542496   8.5416059   5.0060534  40.3868866
   8.9280148   4.5400186  39.4804649   7.7280674   4.3897290  40.7695084
   7.9455762   6.3238239  39.9871788   7.9843755   7.0479603  40.6901855
   7.5574083   6.6915779  38.7716866   7.4374523   5.9528441  37.7421570
   7.8299513   5.0224829  37.7638931   7.0622711   6.3051791  36.8731346
   7.2151995   7.8962340  38.5007820   7.0644259   8.5236435  39.2777824
   6.9465389   8.0227413  37.5354271  13.1990395   6.9070907  40.6845551
  13.0861931   8.1097603  40.4561081  14.1297045   6.1034584  40.1046371
  14.0880709   5.1473532  40.4274979  15.0014801   6.4105797  39.0180130
  15.4526510   7.3698287  39.2717552  16.1045837   5.4121318  38.9418373
  16.5944424   5.2642117  39.9042587  15.7009573   4.4284744  38.7018318
  17.2096539   5.8005595  37.9751358  17.4192791   7.0399752  37.7281265
  17.8543434   4.9385638  37.3669853  14.3157234   6.5135336  37.7217522
  14.4262829   5.5805283  36.9165001  13.6297379   7.5629082  37.4701576
  13.4949522   8.2271338  38.2189827  13.0215721   7.8036280  36.1704674
  13.7362862   7.5056162  35.4033470  11.8050060   6.9534111  36.0005684
  12.0972738   5.9051294  36.0621109  10.7941132   7.0308366  37.1969643
  10.1359835   6.1675143  37.2951927  11.2893963   7.1777997  38.1567574
  10.1185989   7.8657846  37.0108452  11.2087240   7.2363877  34.7091179
  11.3929977   6.4244013  34.2312889  12.7029171   9.2736835  36.0136909
  12.1016359   9.8333454  36.9397049  12.9407482   9.9066057  34.9045029
  13.3037691   9.3239069  34.1637077  12.7986393  11.3277187  34.5837708
  13.4264259  11.8800488  35.2829971  13.2975187  11.5505953  33.1633301
  13.2863197  12.6307669  33.0177116  14.3556099  11.2888393  33.1580620
  12.6700668  10.9685011  31.8841114  11.6280651  11.2582464  31.7485409
  13.0440454  11.5338058  31.0304852  12.7783756   9.4451342  31.6977787
  13.7932911   8.8637457  32.2286797  11.9214077   8.8060055  31.0337353
  11.3880234  11.9176435  34.7771606  11.3432798  13.1449623  35.0420685
  10.3009729  11.1323214  34.6380920  10.4257488  10.1491003  34.4436531
   8.9754238  11.6729641  35.0346375   8.8112087  12.6651525  34.6142845
   7.8208628  10.7633896  34.5949097   6.8442726  11.2276392  34.7321815
   7.8763356  10.6836395  33.5092468   7.8960485   9.4555149  35.3292007
   8.8327360   8.9128256  35.2018929   7.7216263   9.8221579  36.3407555
   6.8269267   8.4769735  34.7982063   6.3383784   7.7033496  35.7082024
   6.4559388   8.4314375  33.6132965   8.9441404  11.9527969  36.5172424
   8.3559999  12.9373512  36.9092751   9.6369495  11.1593885  37.4043617
  10.1337261  10.3587933  37.0405502   9.8091431  11.4313755  38.8744965
   8.9097204  11.8464308  39.3293228  10.0578709  10.0392084  39.5387650
   9.6095629   9.1566114  39.0825386  11.1235361   9.8132114  39.5015488
   9.6570024  10.0092888  41.0814323  10.1416855   9.1436214  41.5328789
   9.9917984  10.8925838  41.6253204   8.1110668   9.8711252  41.3836250
   7.5531902  10.8152218  41.9785423   7.5449390   8.8195038  41.0284081
  10.8582869  12.4638538  39.2029686  10.4672575  13.4721565  39.8132439
  12.0913191  12.2541904  38.8256569  12.1945496  11.4467268  38.2277908
  13.2409544  13.1209812  39.1957855  13.4238596  13.1161585  40.2703171
  14.4832678  12.5573311  38.4243698  14.1496897  12.4261189  37.3949966
  15.6543608  13.5681610  38.1710320  15.4028788  14.5405130  37.7474899
  16.1800423  13.6469498  39.1226425  16.5329685  13.1036005  37.7234459
  15.0709391  11.2417221  39.0193825  15.7282505  11.5314140  39.8392143
  14.2070684  10.6885176  39.3878975  15.6979103  10.2747164  37.9471741
  16.5903835  10.7920475  37.5950890  15.9614277   9.3522978  38.4646721
  15.0258560  10.0627918  37.1155853  13.0212173  14.6147528  38.9941177
  13.0226603  15.4222918  39.8999481  12.5627117  15.0131168  37.7788429
  12.4497280  14.3081360  37.0644646  12.4054651  16.3807774  37.2454910
  13.2382326  17.0098991  37.5598259  12.3900747  16.3491745  35.6842461
  11.4428959  15.8872614  35.4056969  12.1929226  17.3753090  35.3739548
  13.5543385  15.6805458  34.9126320  13.7758179  14.7007980  35.3358803
  13.3148203  15.5535383  33.4324608  14.1835899  15.0476837  33.0112038
  12.4549303  14.8942251  33.3141479  13.1146269  16.4221554  32.8051453
  14.8024206  16.4790401  35.1474533  15.0479879  16.0895195  36.1354103
  15.6359072  16.2904320  34.4708214  14.5607634  17.5361176  35.2583466
  11.1212511  17.0934238  37.7212753  10.9743376  18.3473225  37.7164001
  10.1766901  16.3115005  38.2370377  10.4338465  15.3407202  38.1295433
   9.0348682  16.8337727  38.8435326   8.6865940  17.5918427  38.1420097
   7.8114276  15.8667088  39.0584526   7.7008290  15.2967339  38.1359558
   8.1978445  15.1721201  39.8043251   6.4596820  16.4891415  39.4005737
   6.4296546  17.5749092  39.3094330   5.7550373  16.1498928  38.6412964
   5.9004068  15.9721851  40.7901535   6.5649896  15.3078423  41.5549698
   4.6673145  16.3318348  41.0794792   4.1486554  16.8275242  40.3685722
   4.2069035  15.8523359  41.8398743   9.3289061  17.4054031  40.2103844
   9.1690989  18.5932884  40.4715614  10.0163488  16.5940571  41.0587921
  10.3398390  15.7323112  40.6430397  10.4072695  16.9357166  42.3963623
   9.5021324  17.3403568  42.8492393  10.7764206  15.6649342  43.2003632
  11.6716757  15.1709261  42.8227768  11.0656891  15.9395266  44.2147713
   9.6332388  14.6679773  43.3151093   9.1385012  14.4520025  42.3681717
  10.0267715  13.7000790  43.6255989   8.6501770  15.0579605  44.3408470
   9.1390285  15.5392962  45.1878662   7.9439564  15.6960726  43.8096504
   7.8809681  13.8171530  44.6697388   8.5480604  13.0396738  45.0420494
   7.2304158  14.1716223  45.4692574   7.0119009  13.3467836  43.4787521
   6.9815850  14.1297054  42.8414040   7.4158883  12.5580282  42.9942284
   6.0573816  13.1169806  43.7157860  11.4111729  18.0632343  42.4592018
  11.2002935  19.0718632  43.1650505  12.3544245  18.0004444  41.4772987
  12.4719362  17.1842880  40.8940506  13.4292059  18.9581585  41.2241669
  14.0856571  19.0885582  42.0844994  14.3333540  18.4268227  40.1090851
  13.7439556  18.4187355  39.1922188  15.5612402  19.4112434  39.9242668
  16.0753193  19.5620937  40.8735199  16.1920204  18.9243870  39.1805038
  15.2515926  20.3728409  39.5149384  14.9364939  17.2003689  40.3519974
  14.3228159  16.4805889  40.5160561  12.8542528  20.3181839  40.7666245
  13.2753992  21.3684769  41.2958984  11.9204626  20.3684540  39.8340340
  11.6328058  19.5777969  39.2752724  11.2147703  21.6560383  39.5055275
  12.0576096  22.3419075  39.4200516  10.3730440  21.5506859  38.1796684
  10.9129438  20.9405613  37.4555435   9.4585009  21.0512524  38.4994774
  10.0153055  22.8979130  37.5829201   9.5139399  23.5292053  38.3165512
  10.9773054  23.3776855  37.4027100   9.1521072  22.7602539  36.3198624
   9.7969561  22.4277248  35.5064125   8.4512930  21.9422646  36.4867516
   8.5495596  24.0621605  35.8410759   9.3491478  24.7987614  35.9196854
   8.1704693  24.0455952  34.8192558   7.3567190  24.4609184  36.6237488
   7.4814696  24.7357445  37.5876007   6.9656143  25.2712593  36.1649590
   6.6416225  23.7489071  36.6658974  10.3787689  22.2596264  40.6249084
  10.4965792  23.4105225  40.9444008   9.6270351  21.5209675  41.4491119
   9.6589775  20.5249462  41.2847290   9.1006489  21.9891491  42.7502594
   8.3986492  22.8053093  42.5794373   8.2252531  20.7951870  43.3079720
   8.7263966  19.8723431  43.0158844   8.1806526  20.7453728  44.3959198
   6.8141737  20.7240391  42.6629906   6.2386918  21.5667248  43.0461388
   6.7590227  20.8207741  41.5786934   6.0199637  19.4626427  43.1760597
   6.5559173  18.5814266  43.8351479   4.7237740  19.3573551  43.0636444
   4.1811762  20.0560741  42.5763168   4.3400712  18.4687653  43.3522301
  10.0506039  22.6282997  43.7608299   9.7778616  23.7162914  44.3623123
  11.2339506  22.0690212  43.8657684  11.3948822  21.2548351  43.2901802
  12.3898201  22.6551723  44.6399040  12.0624123  22.9048080  45.6491547
  13.5056000  21.5200653  44.7859879  13.1286354  20.6320019  45.2932777
  13.7076178  21.1084595  43.7971153  14.8697214  21.9937191  45.4477386
  15.2449217  22.8194332  44.8431511  14.7470808  22.4265881  46.9095039
  14.4861517  21.5729446  47.5350456  15.6984749  22.8973484  47.1571617
  13.9992065  23.2155819  46.9887123  15.8924837  20.8551178  45.4190559
  16.8979397  21.2540512  45.5532570  15.6947727  20.1078453  46.1875534
  15.8423300  20.3259106  44.4674644  12.9280739  23.9432030  44.1690331
  13.0849352  24.9319153  44.8703804  13.1104488  23.9523525  42.8319626
  12.6391144  23.2037830  42.3445358  13.5362787  25.1676369  42.0676765
  14.4676704  25.4856033  42.5361900  13.6931200  24.8272247  40.5757332
  14.3928366  24.0024891  40.4404411  12.7540092  24.3596096  40.2799187
  13.9404297  25.9019642  39.5257759  13.1436338  26.6405029  39.6140327
  15.2847195  26.6501713  39.7525558  16.0745850  25.9638290  40.0577507
  15.4952946  27.2255650  38.8510666  15.1798782  27.3266811  40.6007538
  13.8619642  25.3699379  38.0185318  13.9619207  26.2641449  37.4033127
  14.7020531  24.6824646  37.9198837  12.9243898  24.8398590  37.8510132
  12.5837126  26.2976952  42.3027077  12.9685240  27.3654823  42.7541962
  11.2859354  25.9999065  42.2277679  11.0180492  25.1111412  41.8297310
  10.2253761  26.9976349  42.2857704  10.4649429  27.8166714  41.6076202
   8.9271555  26.3414192  41.7972221   9.1131201  25.2719517  41.8960266
   8.1358337  26.7192249  42.4446564   8.5695581  26.6277161  40.3035851
   8.5470963  27.7028046  40.1253090   9.3045797  26.0430012  39.7504578
   7.1701918  25.9736710  39.9789124   7.0762591  24.8795300  39.3874931
   6.1428409  26.4836559  40.4853668   9.9880877  27.5408916  43.7102585
   9.6017561  28.7349606  43.7637672  10.1513758  26.6942787  44.7616425
  10.4100990  25.7260571  44.6363029  10.1471615  27.2554836  46.1015854
   9.2454977  27.8589821  46.2059479   9.9716063  26.1132011  47.1816216
  10.5863094  25.2622242  46.8882294  10.3082771  26.5308456  48.1304779
   8.5072021  25.7216873  47.3349190   7.9561625  26.5658054  47.7495499
   8.0456829  25.3708324  46.4118805   8.4026747  24.5494213  48.2715721
   8.9346809  23.7738686  47.7205811   8.9704332  24.7459049  49.1810493
   7.0286341  24.1014080  48.7352943   6.4110351  24.0976486  47.8371506
   7.1845555  23.0646496  49.0334892   6.3956137  24.9277344  49.7464333
   6.1469235  25.8343639  49.3772774   5.5031595  24.5280514  49.9991875
   7.0474877  25.1430206  50.4872513  11.2461596  28.2213154  46.5336113
  10.9626846  29.1273251  47.2975693  12.4546700  28.2182674  46.0074043
  12.6873007  27.3669872  45.5161743  13.5331650  29.2118378  46.2638054
  13.6061964  29.2992496  47.3478355  14.8344002  28.5674744  45.7043533
  14.6230240  28.3871593  44.6503563  16.0758686  29.4854107  45.7401466
  16.9353676  28.8890343  45.4340477  15.9653873  30.4401722  45.2260246
  16.2212696  29.9217377  46.7283669  15.1500025  27.2437363  46.4740334
  15.6113729  27.3040218  47.4597321  14.2273970  26.8136539  46.8638191
  15.9364729  26.1567364  45.7637291  15.3041086  25.7658844  44.9665756
  16.8311844  26.5740566  45.3017387  16.0763664  25.3143749  46.4412003
  13.2437878  30.4952946  45.5899582  13.6270075  31.5401211  46.1805992
  12.4850645  30.4675961  44.4670334  12.0177021  29.5917587  44.2810783
  12.0799627  31.6931057  43.7066002  12.9746923  32.3077660  43.6077919
  11.6554232  31.1485443  42.3287544  10.8452387  30.4415550  42.5072670
  11.0277557  32.2185898  41.4085350  11.8554344  32.8765602  41.1437302
  10.7796106  31.7074089  40.4783630  10.1564007  32.7155685  41.8349724
  12.8771610  30.5478687  41.5418625  13.5614004  31.3618584  41.3024139
  13.4534702  29.9209385  42.2222519  12.4318638  29.6654453  40.3185158
  12.2088299  30.3041077  39.4638405  13.2065897  28.9630375  40.0110664
  11.6089182  29.0706406  40.7148323  10.9280949  32.5167046  44.3293839
  10.8224411  33.7417145  44.2266083  10.0441828  31.8566856  45.1320915
  10.0319834  30.8520336  45.2351875   9.2223883  32.5588417  46.1223183
   8.9455786  33.4880066  45.6241951   7.9186788  31.7700558  46.4798927
   7.3626394  31.5667839  45.5646896   8.1670666  30.7854958  46.8761826
   6.9986310  32.5656738  47.3974075   6.1222773  31.9422760  47.5748367
   7.4859681  32.8079681  48.3418083   6.5506005  33.9329262  46.8826599
   6.3413301  34.0838966  45.6868324   6.4520144  34.9036293  47.6791801
   9.9300308  32.9305267  47.3742561   9.9022007  34.0855331  47.7735138
  10.5426273  31.9137421  48.0295105  10.5701237  30.9423561  47.7542801
  11.0087671  32.0953751  49.4268684  10.2453785  32.5003510  50.0911980
  11.4503345  30.6726627  49.7810669  10.6404409  29.9763756  49.5634499
  12.2927284  30.3588009  49.1646538  11.8482971  30.5003128  51.2295952
  12.1018610  29.4562931  51.4135208  12.7305727  31.1093597  51.4264450
  10.7059870  30.8683319  52.1426048   9.5540886  31.2141247  51.7917023
  10.9818916  30.8322353  53.3541374  12.1961107  33.0758553  49.5791626
  12.3171339  33.6133499  50.7181625  12.9815474  33.3852043  48.5602684
  12.7665014  32.8598862  47.7248688  14.0024414  34.4635887  48.5157242
  13.9417973  35.0549278  49.4293671  15.3300104  33.8197975  48.3460999
  15.4571190  33.2725945  47.4120178  16.1418667  34.5457191  48.3010826
  15.7583189  32.8220444  49.4235420  16.2043171  33.2913818  50.4341049
  15.8229685  31.5593338  49.1870499  16.0280132  31.0294628  50.0220909
  15.5482855  31.1783867  48.2928848  13.7381468  35.5061760  47.3669167
  14.5090542  36.4582100  47.1839752  12.5864019  35.3964043  46.7315598
  11.8876238  34.7847557  47.1286659  12.1814022  36.2723503  45.6341476
  11.2773428  35.8911438  45.1593208  11.8597059  37.6445923  46.1544189
  12.7999401  38.1262894  46.4228058  11.3707008  38.2539482  45.3943787
  11.0209436  37.5803070  47.3833580   9.7799664  37.0741119  47.4654999
   9.2343550  36.7597504  46.6758270   9.3333569  37.2089806  48.7175636
   8.3970366  36.8926239  49.1530228  10.3482304  37.7203026  49.4572525
  10.3631544  37.8149986  50.4626923  11.4442625  37.8724213  48.6582375
  12.3837290  38.2746887  49.0075035  13.0807600  36.3342133  44.3678322
  12.9968014  37.2297859  43.5419731  14.0113840  35.3719978  44.2341805
  14.0924997  34.5903664  44.8686676  14.9533701  35.3203926  43.1369438
  15.5926914  36.1946716  43.2594299  15.8720989  34.1308556  43.3584251
  15.2915010  33.2385254  43.1244164  17.1168785  33.9945335  42.4305725
  17.6384850  34.9482841  42.3506470  17.6920242  33.1608696  42.8334427
  16.7263165  33.7399445  41.4453011  16.1997490  33.9738045  44.7105522
  16.5487328  34.8326035  44.9600983  14.3234243  35.2580490  41.7342377
  13.3683910  34.5276375  41.5572052  14.8181229  36.0306091  40.7594109
  15.4825087  36.7618446  40.9691391  14.5683403  35.8789215  39.3155212
  13.8690548  35.0753059  39.0846481  13.9734249  37.1751862  38.7318230
  13.7381420  37.1550293  37.6677094  13.0222759  37.3027191  39.2486916
  14.8125591  38.4307823  39.0456963  14.9759502  38.4084549  40.1231499
  15.7666292  38.2891808  38.5379562  14.0300894  39.7733841  38.6475792
  13.6886873  39.6546974  37.6192474  13.1626225  39.8520699  39.3028717
  14.7926598  41.0867882  38.7780724  15.4907446  41.1799316  37.9461441
  14.0835581  41.8940887  38.5949364  15.4455013  41.2105560  40.0708809
  14.9532528  40.6615639  40.7611008  16.3581085  40.7778282  40.0715446
  15.5260410  42.1352615  40.4690437  15.7933950  35.4837265  38.5508499
  16.8541870  35.8938560  38.9930611  15.6733675  34.7536011  37.3541718
  14.4399128  34.2506676  36.8108215  13.6074257  34.9514313  36.7475891
  14.0322227  33.4151917  37.3799095  14.7043648  33.7168083  35.3948250
  14.4899979  34.5140991  34.6831589  14.1306210  32.8662186  35.0268211
  16.1956043  33.4195862  35.4423141  16.6594944  33.7212944  34.5032310
  16.2500286  32.3332481  35.5131416  16.8000603  34.0853348  36.6641884
  17.3441849  33.4115715  37.3260612  17.8655071  35.0526581  36.1295319
  19.0193424  34.6457405  36.0227585  17.4887943  36.3519402  35.9287071
  16.5359211  36.6535645  36.0741501  18.3672047  37.4255524  35.4471054
  18.8818207  37.0628204  34.5573349  17.4120102  38.6551437  35.2369690
  16.7665157  38.2876320  34.4392357  16.9138699  38.9938698  36.1453819
  18.1639080  39.8708000  34.7098923  17.4520321  40.6835976  34.5660362
  18.8040466  40.2035751  35.5269508  18.9666538  39.5530357  33.5309334
  20.2090626  39.8796501  33.4535751  18.4196110  39.0306358  32.5521431
  19.5464478  37.7930069  36.3588295  20.6915054  37.9679222  35.8783264
  19.3147507  37.5986595  37.6612396  18.4169846  37.2845039  38.0009727
  20.2466621  37.8919868  38.6924324  20.7844715  38.7465363  38.2818146
  19.4166756  38.2961693  39.9009094  18.7110214  37.4760628  40.0334702
  20.0514450  38.4361115  40.7758904  18.6140862  39.6092339  39.7960663
  19.0454788  40.6500282  39.2781296  17.5641937  39.6610641  40.4350853
  21.3512611  36.8033867  38.9638176  22.0991573  37.0318413  39.8945427
  21.3414097  35.7101402  38.2776108  20.7768269  35.5644875  37.4529114
  22.1389198  34.5717926  38.6433601  22.3494892  34.7449684  39.6987114
  21.3064613  33.3215523  38.5156136  20.9295788  33.2325554  37.4967232
  21.9245930  31.9712639  38.8438950  21.3500214  31.0787106  38.5962601
  22.8500061  31.8287468  38.2858620  22.1693249  32.0053329  39.9055176
  20.0259151  33.4009247  39.3720970  19.4958553  32.4486809  39.3911896
  20.3203773  33.3915443  40.4215279  19.4290237  34.2478142  39.0335693
  23.4930801  34.5040779  37.9251251  23.5764523  34.7443085  36.7031212
  24.5095901  34.1293640  38.6911507  24.2395000  33.9347458  39.6447105
  25.8639851  33.9424667  38.2428207  26.0183353  34.6097527  37.3948784
  26.8164711  34.3195915  39.4087067  26.5028820  33.6165657  40.1804008
  28.2723789  34.0968857  39.0916405  28.9067841  34.3270378  39.9475975
  28.3144188  33.0413780  38.8228569  28.4094925  34.6697655  38.1745186
  26.7061615  35.7603569  39.8693428  27.6041203  36.3433075  40.0741386
  26.2324848  36.2809715  39.0370636  26.1044312  35.7621880  40.7782021
  26.0758514  32.4918823  37.8259811  26.8358288  32.1520805  36.8949051
  25.3946342  31.5621471  38.5123787  24.5876293  31.8801136  39.0298157
  25.5097179  30.0907288  38.2810516  25.2938385  29.8469696  37.2408180
  26.9033985  29.5489693  38.6388283  26.8960705  28.4654312  38.5205460
  27.6350746  29.9369678  37.9301529  27.3944397  29.9247799  40.1260223
  27.8514786  30.9095955  40.2227249  26.5430489  29.8582878  40.8033791
  28.4032269  28.9463959  40.7329521  29.1489964  28.3251076  40.0426102
  28.4189053  28.8089237  42.0094910  28.9916058  28.0870686  42.4230614
  27.7373695  29.3370972  42.5354538  24.5831127  29.2608738  39.1716194
  24.0379353  29.7616463  40.1266975  24.2038345  28.0536594  38.7033920
  24.2334538  27.9304676  37.7013702  23.2839413  27.1189384  39.3955460
  23.1186180  27.4607849  40.4172630  21.9326057  27.1008053  38.7146912
  21.4670334  27.9699783  39.1793175  21.9773102  27.1398888  37.6263084
  21.0086632  25.9306602  38.9894753  20.0807533  26.1558266  38.4637451
  21.4355831  24.9949875  38.6284294  20.5723839  25.8468609  40.7429886
  18.8447704  25.1964092  40.7063446  18.9064903  24.1346130  40.4678535
  18.3114700  25.4226418  41.6296577  18.2164612  25.7183418  39.9845924
  23.8734589  25.7234154  39.3314285  24.2609348  25.2903214  38.2423592
  24.0185452  25.1126404  40.4920731  23.6689892  25.5346832  41.3404770
  24.6102085  23.8038273  40.6498375  24.8616505  23.4411774  39.6531601
  25.8206673  23.9312611  41.5603790  25.4158478  24.1535473  42.5477028
  26.4929543  23.0732841  41.5589638  26.8467312  25.0137100  41.0724144
  26.4512825  26.0219135  41.1958885  28.0579166  24.9862862  42.0035172
  28.5920811  24.0499802  41.8419342  28.6899128  25.8341637  41.7393532
  27.7141838  25.0626144  43.0350800  27.3696136  24.7016449  39.6067390
  26.5845623  24.9535980  38.8937759  28.1920490  25.3406219  39.2851639
  27.5266876  23.6324844  39.4641571  23.6273155  22.7517128  41.1079178
  22.7301388  22.9939022  41.8778839  23.7553253  21.5261288  40.5894318
  24.4623432  21.3200035  39.8982468  22.8146877  20.3355274  40.8832283
  22.2234135  20.6244106  41.7521629  21.7752972  20.0929146  39.7806740
  22.3009605  19.9426918  38.8376923  21.2754269  19.1557770  40.0256310
  20.7964306  21.2326813  39.6722107  20.6616917  21.6957474  40.6497154
  21.0803890  22.2839756  38.6659203  22.1606388  22.4286079  38.6505814
  20.8647194  21.8832684  37.6754570  20.5769863  23.2057896  38.9573898
  19.4170151  20.7612190  39.2883873  19.4235668  20.3330841  38.2860146
  19.1030083  20.0296650  40.0329208  18.6798725  21.5556183  39.1715393
  23.5828152  19.1076660  41.3278847  24.6869049  18.8099728  40.8300438
  22.9866638  18.3339062  42.1655235  22.1237411  18.6357098  42.5949173
  23.4793854  17.0918636  42.6994438  24.4074612  16.8037491  42.2057190
  23.8265476  17.3764191  44.1517258  24.6278324  18.1150265  44.1741562
  22.9336090  17.7365990  44.6626396  24.3852463  16.2005959  44.7438545
  23.6420517  15.6358471  44.9681816  22.4348602  15.9482994  42.5880966
  21.2418041  16.2660694  42.8530426  22.7650356  14.6889563  42.3453979
  23.7185135  14.5833149  42.0294533  21.9074402  13.5195045  42.6628227
  21.2276363  13.8949070  43.4277000  21.0830784  13.0103531  41.4048271
  20.4073181  13.7622967  40.9973564  21.8115845  12.8626337  40.6076088
  20.5454559  12.0922966  41.6419640  22.8243637  12.3846178  43.1772995
  23.9924183  12.2351980  42.7333870  22.3401089  11.5120487  44.1015739
  21.4128914  11.7623777  44.4141502  22.8840199  10.3102169  44.6915855
  23.7248440  10.6087055  45.3176994  21.8328857   9.6423779  45.5300407
  22.0691853   8.5845451  45.6451645  21.8048439  10.2626429  46.9144516
  22.7599182  10.3862076  47.4249992  21.3620777  11.2577515  46.8718147
  21.2363548   9.5535898  47.5162506  20.4514961   9.6197777  45.0415726
  20.2986946   8.7177591  44.7506828  23.3506565   9.2895527  43.5946388
  22.7506981   9.3477526  42.5397491  24.3475227   8.4323425  43.8844604
  25.1475086   8.3691893  45.1153030  24.4668732   8.1748962  45.9442101
  25.6737461   9.3186188  45.2140808  26.1671314   7.2241449  44.9879646
  25.8477974   6.4263673  45.6585464  27.1636543   7.6018691  45.2167969
  26.0096741   6.7806559  43.4871521  26.0007954   5.6940374  43.4018173
  26.8357029   7.2845974  42.9853363  24.7290916   7.4175901  42.8776283
  25.1362953   7.9198394  42.0001068  23.6641235   6.4282169  42.3171959
  23.9033661   5.7341480  41.3276787  22.5251198   6.2418189  43.0354767
  22.2337017   6.9720187  43.6694984  21.4724293   5.3640289  42.6472130
  21.7894020   4.4646325  42.1192741  20.6915817   4.8949513  43.8926468
  19.8901253   4.1865320  43.6831017  21.3409195   4.4050140  44.6181946
  20.0552616   6.0129862  44.8020897  19.9541302   7.0782619  44.3130531
  19.7110043   5.7522111  45.9823990  20.4741936   6.0210900  41.6917419
  19.5337410   5.3531098  41.1870041  20.7040005   7.2800946  41.1977768
  21.3864803   7.8928304  41.6207161  19.9978218   7.8321872  40.0457726
  19.2662544   7.1080456  39.6872673  19.2854424   9.1970787  40.4594154
  20.1089268   9.8954954  40.6083641  18.6276054   9.4282484  39.6216164
  18.3702221   9.2192411  41.7113686  19.0238571   8.7718601  42.4601746
  17.9411240  10.6693354  42.1686516  17.5455227  11.2199230  41.3151588
  17.1910706  10.5994091  42.9564514  18.8234787  11.1796103  42.5548820
  17.0131779   8.4647484  41.6531258  16.4832268   8.7273932  40.7375488
  17.3047333   7.4206872  41.5389595  16.4333820   8.5654011  42.5706253
  20.7928619   7.9098883  38.7174416  21.7940254   8.5719662  38.6882591
  20.2358208   7.3618126  37.6743889  19.3204746   6.9619937  37.8240204
  20.8218937   7.4198923  36.3502731  21.7446098   8.0001459  36.3506699
  21.3778915   6.0756373  35.9402504  20.6296539   5.3099089  35.7355537
  21.8684540   6.0908613  34.9669991  22.3278904   5.5331240  36.9435654
  23.5700474   6.1053691  37.2770157  23.9327812   6.9773235  36.9189415
  24.0653248   5.4378362  38.3773193  24.8598957   5.7864103  39.0204010
  23.2155552   4.3895445  38.6110229  23.2027073   3.7288499  39.3748398
  22.1527138   4.4214664  37.6738548  21.2196922   3.8780007  37.6511497
  19.9498024   7.9831939  35.2487221  20.4651508   8.4894018  34.2859497
  18.6109314   7.8466873  35.2841988  18.2006931   7.3833766  36.0824127
  17.6708584   8.0865974  34.2009125  17.8246193   7.2382617  33.5339890
  16.2472115   7.9240246  34.7086029  16.0677395   8.7732210  35.3679619
  15.4739084   8.0226049  33.9467697  16.2072792   7.0158477  35.3100357
  17.8224144   9.4204750  33.4224968  17.7332211   9.5637617  32.2082939
  18.1440735  10.5297871  34.1517067  18.1736584  10.4349041  35.1568069
  18.3663349  11.8533182  33.5074501  18.7712860  11.7723141  32.4987144
  16.9899044  12.4799957  33.2259521  16.4296494  11.6467800  32.8017311
  16.3070068  12.9835281  34.4640884  16.9853916  13.6997623  34.9276695
  15.4308348  13.4741478  34.0401573  16.0216446  12.1891565  35.1537552
  16.9755535  13.5895529  32.1625633  17.2689476  13.1733170  31.1988411
  15.9707832  13.9967108  32.0496063  17.6439857  14.4095325  32.4251175
  19.2081623  12.7800436  34.3313828  19.2958565  12.6343718  35.5695229
  19.7820854  13.8105354  33.6996193  19.6894016  13.8996544  32.6978340
  20.5611744  14.9074326  34.3366051  21.2036171  14.3839073  35.0446243
  21.5538483  15.5706224  33.3321342  21.0698624  15.5895996  32.3556595
  21.8816643  16.6032085  33.4521523  22.7831707  14.7893105  32.9740486
  23.9105949  14.7534733  33.8726692  23.7796364  15.2210035  34.8373795
  25.1209030  14.2218122  33.4921036  25.9040775  14.2731323  34.2339973
  25.2597809  13.7519970  32.1813927  26.1986904  13.3738375  31.8047676
  24.1944656  13.8008013  31.2628269  24.4070511  13.4598770  30.2603397
  22.9614582  14.3825960  31.6154137  22.2005672  14.5741262  30.8732738
  19.6213913  15.9221191  35.0294151  18.6680317  16.3543243  34.3993568
  19.8174210  16.3979549  36.2510185  20.6916237  15.7521639  37.2982063
  21.7205505  16.1099548  37.2607918  20.6915379  14.6786251  37.1094856
  20.0604725  16.2445202  38.6191826  20.8014946  16.3434181  39.4124107
  19.3060551  15.5202208  38.9263382  19.4399071  17.5583630  38.3186340
  20.1591167  18.3688183  38.4369583  18.6851692  17.7710056  39.0757713
  18.9356918  17.3921356  36.8886299  17.9743538  16.8923302  37.0074806
  18.7773476  18.7742538  36.2746773  17.7605820  19.4614735  36.5263977
  19.7462482  19.1438618  35.4061775  20.4332523  18.4784145  35.0816650
  19.7473602  20.4940910  34.8267250  19.7115841  21.2782078  35.5830193
  21.0972481  20.6420002  34.0486450  21.2648163  19.8575630  33.3106155
  21.0671692  21.5739326  33.4841118  22.0200367  20.7455406  34.6194725
  18.5761166  20.6911278  33.9006348  18.1505451  21.8595066  33.7078018
  18.0493526  19.6186619  33.3747673  18.4336185  18.6916084  33.4888306
  16.8100929  19.7579441  32.5515556  17.0520229  20.4375801  31.7344475
  16.5567608  18.4081440  31.8962288  16.0011826  17.7044430  32.5161018
  15.8420753  18.5816021  31.0917187  17.6986217  17.6702366  31.1533947
  18.3311768  18.3734436  30.6116619  18.3535213  17.3278751  31.9546413
  17.4285316  16.4378414  30.2078419  18.3947430  15.9356375  30.1595955
  16.7147236  15.7629881  30.6802311  16.9856968  16.5567417  28.7839756
  16.0481663  17.1066475  28.7019539  17.7343655  17.1186504  28.2255383
  16.7772236  15.2642822  28.1809521  16.4176483  15.4040976  27.2475395
  17.6083927  14.7022800  28.2967854  16.0586033  14.6669617  28.5642166
  15.6378899  20.4265079  33.2209511  14.7981434  20.9163284  32.4372368
  15.6537695  20.4246349  34.5039482  16.4019890  20.0024586  35.0350189
  14.6066971  21.0409336  35.3392754  13.6883850  20.5851307  34.9690704
  14.7041531  20.5137157  36.7730713  15.7038527  20.5643368  37.2045059
  14.0448294  21.0982780  37.4146957  14.3583097  19.4800549  36.7666397
  14.7182961  22.5762215  35.3293495  13.7305965  23.3386097  35.4248734
  15.9372330  23.0786743  35.1337852  16.7464752  22.4840927  35.0256157
  16.2415218  24.4950008  35.0999107  15.5516300  25.0633411  35.7237244
  17.5952072  24.7777100  35.8406906  18.4312172  24.5630093  35.1750412
  17.8878784  26.2093792  36.2559891  16.9560623  26.6481876  36.6127281
  18.6703091  26.2807674  37.0115051  18.2139988  26.8290501  35.4206734
  17.8826008  23.8310413  36.9668617  18.0736713  22.8428612  36.5484200
  18.8187466  24.0925865  37.4601402  17.0561504  23.7949009  37.6766319
  16.2429638  25.0382652  33.6842995  16.0214062  26.2502995  33.5043297
  16.1063213  24.1802692  32.6398582  16.3318710  23.2085571  32.7979813
  15.5029078  24.5953598  31.3440819  15.6580296  25.6479721  31.1073475
  16.2064667  23.7155876  30.2844505  16.1566391  22.6528988  30.5217457
  15.7200193  23.9446812  29.3363018  17.6770630  24.0688725  30.0207081
  17.9834957  23.6255569  29.0732555  17.7292690  25.1462231  29.8635368
  18.6135941  23.5595512  31.0836277  18.4610271  24.1685123  31.9746895
  18.4341202  22.5178394  31.3495712  20.0852451  23.6204433  30.7727757
  20.5182552  24.5119934  30.9670544  20.9453354  22.7076511  30.7344780
  20.6048641  21.4717464  30.7642250  19.6172009  21.2955036  30.6477833
  21.3906269  20.8913383  30.5077019  22.2305794  22.9791698  30.6473446
  22.8305779  22.1805191  30.7965412  22.5940628  23.9207344  30.6094208
  13.9898996  24.3319435  31.2576656  13.2875614  25.1776066  30.6454582
  13.3990736  23.4421730  32.0909653  14.0233688  22.8705215  32.6419373
  12.0308523  23.0048313  32.0329399  11.7624798  22.8354492  30.9901619
  11.8666306  21.7070980  32.7716789  12.6026525  20.9667377  32.4582481
  12.0790043  21.7818012  33.8381767  10.4525356  21.1335258  32.6427917
  10.5494461  20.1394348  33.0792465   9.7525873  21.7698269  33.1843605
  10.0800886  21.0289230  31.1898689  10.9754839  20.7364807  30.3476162
   8.9344559  21.3437958  30.8123989  11.1114607  24.0718994  32.6660461
  10.0612221  24.4137363  32.1241837  11.4661922  24.6608715  33.8335495
  12.3481274  24.4577541  34.2819176  10.9827528  25.9643841  34.2348328
   9.8972397  25.9757576  34.3329735  11.4847155  26.2377968  35.6568527
  11.3191757  25.4162140  36.3537750  12.5625715  26.3990707  35.6746597
  10.9302568  27.6461945  36.1692772  11.1833429  28.4920940  35.5301285
   9.4336853  27.7210293  36.3385353   9.1164484  28.7270966  36.6129227
   8.9947748  27.4798489  35.3703957   9.1269617  26.9722519  37.0688400
  11.5702324  27.9332008  37.5614853  11.2798109  28.9448719  37.8448296
  11.3119278  27.1564484  38.2812309  12.6536818  28.0353985  37.4998894
  11.3559208  27.1047935  33.2500801  12.5362434  27.3076649  32.9536705
  10.3536644  27.9024143  32.8880615   9.5153093  27.7351284  33.4259109
  10.2970657  28.9654999  31.8369102  10.5371361  28.5230141  30.8701248
   8.8846483  29.5910053  31.7520161   8.4761724  30.1101894  32.6190186
   8.9383821  30.3050327  30.9301987   8.0299740  28.5365372  31.4500751
   8.4285812  28.0329399  30.7365608  11.2014332  30.1499538  32.1420822
  11.2534285  30.6896267  33.2354660  11.9209051  30.6273003  31.1183567
  12.0011301  29.9786663  30.3483315  12.8593721  31.7217407  31.3988400
  13.0810490  32.2105865  30.4501610  12.4237413  32.4331017  32.1004753
  14.2502909  31.2927399  31.9425468  15.3077040  31.8641872  31.6162701
  14.3376884  30.1868286  32.6846695  13.4795923  29.7742405  33.0216331
  15.6058731  29.7656765  33.3589325  16.0997448  30.6950798  33.6424828
  15.3196974  28.9414196  34.6640320  14.6942186  28.1114349  34.3353920
  16.2555046  28.5587158  35.0713463  14.6794491  29.7997150  35.7869987
  13.4176779  30.2824821  35.8556252  12.6676550  30.2339020  35.0800514
  13.3249340  31.0170212  37.0081215  12.5261469  31.6063023  37.1946297
  14.4770565  30.9878139  37.7231102  14.7762461  31.6033192  38.9895706
  14.0592880  32.2502403  39.4731674  16.0113564  31.2503967  39.5451584
  16.2751408  31.6628304  40.5078201  16.8791542  30.3551807  38.9339638
  17.7733536  30.0265255  39.4426918  16.4899197  29.7218723  37.7159386
  17.0641079  28.8534164  37.4287262  15.2982092  30.0970879  37.0643539
  16.6033897  29.0749893  32.4075546  17.7883682  28.9344940  32.8177528
  16.1310024  28.7056618  31.1882057  15.1497030  28.7706928  30.9581604
  17.0173740  28.3243141  30.0900021  17.5180683  27.3818913  30.3119183
  16.2053967  28.1392937  28.7096367  16.9291992  27.7558632  27.9904747
  15.4177580  27.3898754  28.7877293  15.7390156  29.4958858  28.0954018
  14.9561348  29.8928375  28.7416420  16.5960693  30.1660805  28.0290699
  15.2062063  29.4700127  26.6663761  15.4442310  28.5018425  25.9869747
  14.5196819  30.4922237  26.1188259  14.2611904  31.3413353  26.6007919
  14.0086164  30.3112659  25.2666721  18.1706429  29.2825375  29.9190331
  19.2433643  28.7776585  29.5689907  18.0184917  30.5402775  30.2377911
  17.0935516  30.8298454  30.5219326  19.0875912  31.5155621  30.1614513
  19.7592030  31.2197399  29.3555164  18.4530201  32.9088402  29.8691311
  17.7417717  33.0960808  30.6735973  19.1790466  33.7213135  29.8395004
  17.7603512  32.9779663  28.4704781  18.5434246  32.9738770  27.3111687
  19.5679493  32.6537971  27.4307327  17.9317932  33.2381020  26.1008148
  18.5262928  33.0574799  25.2174435  16.5871181  33.6378288  25.9638309
  16.0184040  33.8051872  24.7229385  16.2966690  33.0384789  24.2166500
  15.8816643  33.7999268  27.1561565  14.9056749  34.2403831  27.0152893
  16.3966503  33.3311577  28.4422321  15.7460299  33.2272186  29.2979717
  20.0628700  31.4919453  31.3406887  20.9789543  32.3611946  31.2532196
  19.9579964  30.5693417  32.2712402  19.0710945  30.0862465  32.2823906
  20.9074516  30.4908810  33.4105225  21.4260635  31.4336815  33.5845070
  20.1397934  30.3124542  34.7428322  19.5242481  29.4214993  34.6186790
  20.9883785  30.0129242  35.9730186  20.3872490  29.5846329  36.7750854
  21.9088707  29.4297810  35.9458694  21.2865124  31.0186749  36.2691269
  19.0982742  31.3661423  35.0682335  19.4472504  32.3910675  35.1941109
  18.3726921  31.5390320  34.2734146  18.4706783  31.0936317  35.9167404
  21.8877659  29.3334656  33.2368660  21.4834175  28.1943970  32.9753799
  23.1925278  29.6534004  33.2580376  23.8342762  30.9033375  33.7015648
  23.5288105  31.0760632  34.7335320  23.6196022  31.6867580  32.9747391
  25.3385658  30.7100086  33.6077461  25.7152061  30.5283871  34.6143532
  25.8523731  31.5627537  33.1639748  25.4444447  29.5587006  32.6529427
  26.3713913  28.9852333  32.6506882  25.2496281  29.8728352  31.6275311
  24.2504196  28.6913261  33.0216255  23.9651680  28.0660419  32.1756058
  24.3358555  27.6908588  34.2305374  24.5365620  28.1732044  35.3403244
  24.1614723  26.4324131  33.9130440  23.8401871  26.1058769  33.0129051
  23.8755264  25.3633060  34.8989563  24.0682392  25.7670727  35.8929062
  22.3187542  25.0569859  34.9226151  21.7888889  25.9813061  35.1527824
  21.7945824  24.4523811  33.7157555  22.4167919  23.6132221  33.4046783
  20.7464867  24.1635303  33.7942696  21.8174267  25.2269535  32.9491920
  22.0117683  24.0328846  36.0293732  22.4819050  24.3513451  36.9597816
  20.9255085  24.0787868  36.1070251  22.3586655  23.0138206  35.8582687
  24.9422894  24.2161865  34.7694855  25.2572289  23.9168491  33.6029167
  25.2862339  23.4383411  35.9032249  24.8106480  23.5237141  36.7901459
  25.9443588  22.1660118  35.7595367  25.5930271  21.7227058  34.8277931
  27.4374409  22.4074249  35.5311623  27.6089516  23.2184429  34.8233948
  28.1307850  22.8908482  36.8381920  27.8389530  22.1978512  37.6273079
  29.2071590  22.8007183  36.6919250  27.9286804  23.9089622  37.1709061
  28.0801392  21.2461319  35.1789513  28.6636410  20.9592400  35.8852196
  25.6950703  21.1292629  36.8471451  25.4853840  21.5408134  37.9558601
  25.5197506  19.8194561  36.4514351  25.5905533  19.6452293  35.4590988
  25.3983822  18.7167625  37.4254417  24.8924618  19.0828266  38.3188286
  24.4913788  17.5945415  36.8816605  24.8736191  17.0692635  36.0064011
  24.3544464  16.8738918  37.6878929  22.9272938  18.3023872  36.3680305
  23.4428997  19.0980396  35.4267616  26.7044411  18.0907440  37.8954048
  27.5845985  17.9795647  37.0618706  26.6815128  17.5740013  39.1297722
  25.8774185  17.7222042  39.7227058  27.7399693  16.7803478  39.6416321
  28.2980251  16.3623867  38.8037872  28.6819782  17.7260418  40.4076195
  29.3820591  17.0725365  40.9281197  29.1881447  18.2293835  39.5838852
  28.1305485  18.7855244  41.4203758  27.2803192  18.4373856  42.0069008
  28.8723221  19.0178394  42.1845093  27.4456711  20.3681087  40.7168312
  29.1171303  21.1632137  40.4398041  29.5712833  21.0427876  41.4233360
  29.5982780  20.8156204  39.5255966  29.0999107  22.2523079  40.3988686
  27.1808929  15.5999069  40.4796448  26.2015686  15.7625494  41.2528534
  27.7794743  14.4519224  40.3174667  28.4834194  14.3157320  39.6061211
  27.4563465  13.2545509  41.1433792  26.3843422  13.0840302  41.0442314
  28.2347927  11.9791937  40.6909904  28.4292793  12.0032177  39.6187477
  29.2390251  12.1110544  41.0937653  27.6344852  10.6525230  41.1412582
  27.8011208  10.4760275  42.2038841  26.5625992  10.7294426  40.9589043
  28.0789795   9.4108486  40.3474808  29.2286930   9.0881147  40.1952400
  27.1446114   8.6526871  39.8595390  27.4553967   7.8917828  39.2725601
  26.2198505   8.7205210  40.2599335  27.6947556  13.5120792  42.6607895
  28.6541615  14.1401014  42.9884338  26.9034252  12.8333588  43.5252495
  26.1154556  12.2665348  43.2461205  26.9612560  12.9440804  45.0149345
  27.1401596  13.9953375  45.2406616  25.6890373  12.3733978  45.6330261
  24.7677727  12.6725349  45.1331367  25.6646423  11.2867785  45.5507774
  25.5171909  12.5165520  47.1529694  24.9803677  11.6595259  47.5596962
  26.4925461  12.6504002  47.6208000  24.7757149  13.8913116  47.5207405
  23.5370312  13.7985325  47.7660980  25.4214649  14.9694815  47.4273605
  28.2198200  12.1463442  45.4687805  28.5797100  11.0864735  44.8488121
  28.8856182  12.5654335  46.5106087  28.4639816  13.3626862  46.9652634
  29.9535217  11.7446718  47.1856308  30.7106018  11.4998455  46.4406548
  30.5805073  12.7073402  48.1973839  30.9044132  13.6606064  47.7796898
  29.8177757  12.9562988  48.9351921  31.7110958  12.1369743  49.0819359
  31.4893780  11.1355371  49.4508057  32.6290627  12.1805687  48.4958115
  32.0501213  13.0112286  50.6601143  33.2976418  11.9880095  51.4104614
  33.8253250  12.5429277  52.1861687  32.7618599  11.1376829  51.8323402
  34.0083885  11.6288509  50.6661835  29.3360653  10.4583712  47.7798615
  28.2280960  10.4559612  48.4193344  29.9093838   9.2881041  47.5231705
  30.8527985   9.2511311  47.1644211  29.4483128   7.9289112  47.9278526
  28.3996944   7.9293475  47.6303635  30.2406807   6.8314438  47.0553131
  30.1796474   7.2936850  46.0700684  31.2756939   6.7519240  47.3877678
  29.4427929   5.5718508  46.9080887  28.2001209   5.6503654  47.0829239
  30.0083752   4.5081363  46.5211830  29.5173931   7.6415944  49.4658127
  30.1641216   6.7115092  49.8909035  28.7519932   8.4176416  50.2728996
  28.1224823   9.1047869  49.8834801  28.7286377   8.3032532  51.7305107
  29.7195454   7.9885802  52.0578995  28.5016956   9.6791010  52.3107529
  27.6592178  10.1421852  51.7970581  28.2697926   9.6749792  53.8363876
  29.0927887   9.1960115  54.3668251  28.2553616  10.7076168  54.1850319
  27.3162861   9.2199011  54.1044083  29.7989845  10.4860907  52.1143913
  30.0370789  10.3030005  51.0665894  29.7888641  11.5457096  52.3697395
  30.5329590  10.0466452  52.7898712  27.6825333   7.2777600  52.2119255
  26.6561794   7.1337066  51.5341949  28.0210209   6.4678879  53.2193832
  28.8787231   6.6898842  53.7043228  27.2037601   5.3959551  53.6883659
  26.9615059   4.7423091  52.8504181  28.0314522   4.5531297  54.6603279
  28.5944996   5.2072716  55.3260422  27.2850151   3.4599068  55.4494514
  28.0916290   3.0113575  56.0293465  26.5363712   3.7802808  56.1740189
  26.9361954   2.7028675  54.7470894  29.1118488   3.9503665  53.9592781
  29.6802578   3.5884387  54.6430359  25.9059105   5.8514280  54.2617798
  25.8879719   6.9340034  54.7905426  24.8946400   5.0375528  54.2198639
  24.9555969   4.0791769  53.9069633  23.7670326   5.2868290  55.1190529
  23.2702579   4.3233466  55.2331238  24.1381989   5.4910026  56.1233711
  22.7537079   6.3129992  54.5058060  22.6288719   6.4236197  53.2815208
  22.1533756   7.1813879  55.3374023  22.1579647   7.0044708  56.3317757
  21.4972191   8.4046040  54.9758644  21.0924530   8.7719822  55.9188919
  22.1362953   9.1380558  54.4841957  20.2416039   8.3484545  54.0433350
  19.6969910   7.2564588  53.8439407  19.9087200   9.4392300  53.3442268
  20.4495659  10.2755651  53.5119400  18.8272133   9.6424103  52.3545723
  17.9625206   9.0169725  52.5764656  18.3838310  11.1923962  52.3489685
  19.3015499  11.7805185  52.3512268  17.8836460  11.5157547  51.4360886
  17.6074505  11.6255150  53.5539322  18.1228180  11.2165203  54.4229660
  17.8284283  13.1490002  53.7168503  18.8996449  13.3424244  53.6604652
  17.3185940  13.6777897  52.9115257  17.3117828  13.5596590  54.5843468
  16.1532497  11.1677446  53.5746193  16.2577610  10.1058083  53.7970390
  15.7035913  11.7153053  54.4029198  15.7071724  11.3458700  52.5961609
  19.3383617   9.2917871  50.9888649  19.9147606  10.0537395  50.2305908
  18.9761219   7.9768858  50.6243973  18.6215401   7.3813806  51.3590698
  18.9778004   7.4035668  49.1815910  20.0085220   7.5146513  48.8448830
  18.7041397   5.8383622  49.2373352  17.6426201   5.6684513  49.0573120
  19.0151558   5.4057455  48.2864342  19.2562084   5.0594950  50.4219170
  18.8014507   5.3631444  51.3648338  19.0266247   4.0039320  50.2763863
  20.7754974   5.1221471  50.5733719  21.3106098   4.9155354  49.6465149
  21.0409374   6.1355419  50.8744926  21.2831154   4.1331754  51.6639595
  21.0007687   4.5176997  52.6440239  20.7867432   3.1778672  51.4933701
  22.7014790   3.8852983  51.6499176  23.2440586   4.7284198  51.7718163
  22.8517971   3.2794828  52.4439545  23.1032696   3.4260137  50.8451080
  18.0118713   8.1832294  48.1888161  17.0923786   8.8498993  48.5936432
  18.2408218   8.0807981  46.9185448  19.0686073   7.5999007  46.5966606
  17.4405899   8.7426872  45.9071083  18.0778809   8.5785084  45.0381927
  16.1134300   7.9221468  45.7731247  15.5698633   7.9533019  46.7174072
  15.5392256   8.3600893  44.9566689  16.3315830   6.4548182  45.3487091
  16.8286972   6.3505325  44.3842888  16.9454880   6.0067477  46.1300278
  14.9700403   5.7874880  45.2723923  14.2846241   5.9550614  46.1031914
  14.4002066   6.1210971  44.4051590  15.1132383   4.2484145  45.2383041
  15.5513668   4.0186572  44.2670403  15.7451038   3.9541230  46.0763016
  13.8168669   3.5060730  45.3034554  13.3309870   3.7788718  46.1458321
  13.2074556   3.7762468  44.5446854  13.8768253   2.5035551  45.1963882
  17.2300968  10.2709208  46.1104355  16.0302181  10.6711597  46.1939049
  18.2367668  11.0522604  46.4947090  19.1441593  10.6572247  46.2929955
  18.2354298  12.4781961  46.9468002  17.2039185  12.8304110  46.9521904
  18.6604271  12.6830091  48.4435158  17.9592247  12.0515261  48.9890823
  19.6821842  12.3059912  48.4880066  18.7205868  14.3762236  49.0250206
  17.4324532  14.7304583  49.0136986  18.9334793  13.4475222  45.9475555
  19.9205818  13.1635342  45.2543488  18.3034801  14.5653343  45.8207893
  17.4450207  14.6825943  46.3398247  18.5240421  15.6199741  44.8028221
  19.5177860  15.4834137  44.3762970  17.3569012  15.6467972  43.7677460
  16.4744778  15.9024286  44.3543358  17.5074215  16.6539497  42.6620598
  16.5814133  16.7967167  42.1050797  17.7571373  17.6425152  43.0473938
  18.2556305  16.3171196  41.9445381  17.1292820  14.1635036  43.2298660
  18.0461082  13.7838039  42.7789116  16.9575195  13.4271536  44.0149689
  15.9643555  14.0609636  42.2721939  16.2833328  14.3987408  41.2861595
  15.6478004  13.0235329  42.1643448  15.1291552  14.6266060  42.6852188
  18.6225452  17.0295849  45.5218277  17.6936455  17.4512081  46.2415771
  19.8178177  17.6469574  45.3186378  20.4622440  17.1501064  44.7203484
  20.2681580  18.8848305  45.9885826  19.4568100  19.3847084  46.5176697
  21.4446163  18.7885380  46.9120216  22.3095455  18.5679054  46.2864647
  21.4760609  19.7720795  47.3808060  21.1722546  17.6588116  47.9461403
  20.2997456  17.8624649  48.5669060  20.9889545  16.7291660  47.4073830
  22.3990631  17.5504398  48.8679962  23.3075237  17.8237991  48.3312645
  22.2098579  18.0829811  49.8000374  22.4920540  16.1086788  49.1914902
  22.8623104  15.4463797  48.5248795  22.4181862  15.5287285  50.3693352
  22.1324787  16.1636238  51.5055046  22.1150608  15.7342634  52.4195366
  22.3777790  17.1422367  51.4580879  22.5226021  14.3056936  50.3681717
  22.4559021  13.7982187  51.2388763  22.7193146  13.9576626  49.4406624
  20.5892372  19.9414330  44.9471397  21.1192856  19.6437054  43.8922501
  20.4117813  21.2379799  45.2752266  20.1384201  21.3639736  46.2393303
  20.8464336  22.3869686  44.2835541  21.4699478  22.0194817  43.4685173
  19.5380306  22.9372425  43.7170181  19.7173672  23.6187210  42.8854408
  18.7786942  21.8030682  42.9931107  18.0149040  22.0848179  42.2683067
  19.4444103  21.2059097  42.3699493  18.2986946  21.1914635  43.7570724
  18.7298241  23.6731567  44.8073997  17.7702084  24.0132751  44.4180870
  18.6759739  23.0276947  45.6840858  19.2397003  24.5410213  45.2256546
  21.6864662  23.4803143  44.9792862  21.7805138  23.3297501  46.1950226
  22.2924538  24.4700584  44.2554703  22.3048153  24.2905827  43.2616196
  22.5036106  25.7708740  44.7878189  21.6310654  25.9745064  45.4085426
  23.8301258  25.7588120  45.6004028  23.8494244  25.1209412  46.4840584
  24.6163712  25.5313320  44.8805618  24.1609135  27.1573772  46.2013969
  24.2651653  27.8826580  45.3944283  23.3540840  27.4564762  46.8704758
  25.6439686  27.0970230  47.2074356  26.8359604  27.1606255  45.8316193
  26.8309021  28.1541386  45.3832779  27.8260841  26.8884335  46.1972237
  26.6895142  26.3879414  45.0768890  22.5988483  26.8594475  43.7501755
  23.5304470  26.8505440  42.9372330  21.8188324  27.9320049  43.7944260
  21.2502804  28.1268120  44.6061516  21.9480534  29.0176315  42.7578087
  22.4693928  28.6950474  41.8565598  20.5809250  29.4117622  42.1558151
  20.7096672  30.1376629  41.3529472  20.3130856  28.4872246  41.6443520
  19.4791451  29.8167152  43.1267700  19.3477402  29.0673332  43.9073219
  19.9008713  30.7042599  43.5984802  17.8897533  30.2023258  42.4479141
  17.2984371  28.4977264  42.1503677  17.6420517  28.1749878  41.1675835
  17.6033001  27.8006706  42.9309273  16.2085896  28.4806404  42.1565475
  22.7113514  30.1017818  43.3973122  22.3461075  30.5768185  44.4381981
  23.7995625  30.6016750  42.7769012  24.1634254  30.1010036  41.9787560
  24.5074711  31.8056297  43.2275581  24.3353596  31.8972836  44.2999763
  25.9845543  31.6628323  42.9074326  26.1005611  31.7621231  41.8281784
  26.8078098  32.7026939  43.5783615  27.8530941  32.5284271  43.3231850
  26.4518509  33.7081032  43.3535614  26.5611267  32.6994591  44.6400719
  26.5563068  30.5035439  43.3665390  26.9709644  30.6410580  44.2213783
  23.9575481  33.1057014  42.5878143  24.1332207  33.2773895  41.3875809
  23.3344936  33.9795876  43.4112549  23.4211884  33.8100815  44.4031487
  22.4515495  35.1702728  43.0296097  22.3072548  35.1574898  41.9492760
  21.0758419  35.0460587  43.7891197  21.3602962  35.2258835  44.8258705
  20.0567875  36.0579185  43.2418137  20.4964504  37.0545959  43.2797356
  19.7668610  35.8407707  42.2137642  19.1892796  36.0470695  43.9016800
  20.5248699  33.6204796  43.6848831  19.5768700  33.7143021  44.2146072
  20.5460320  33.1997757  42.6795692  21.2052460  32.9460678  44.2048416
  23.1168060  36.5046577  43.4310760  23.6989555  36.5662270  44.5426598
  23.0083637  37.5265121  42.5604057  22.5412865  37.4031143  41.6734390
  23.3052063  38.9362640  42.9136200  24.1825523  38.9658012  43.5597572
  23.5815525  39.7977562  41.6853180  22.6380978  39.8744850  41.1448517
  23.8237476  40.7756805  42.1013794  24.7015381  39.2707863  40.7805176
  25.5961647  38.9637871  41.3222694  24.2589607  38.4521866  40.2129593
  25.1545582  40.3361702  39.7885284  26.3378506  40.4087753  39.4218216
  24.3121281  41.0056267  39.0275459  24.7014256  41.3532028  38.1628265
  23.3145599  40.8517990  39.0635223  22.1129856  39.4845161  43.7718887
  21.0330772  39.5221710  43.3161392  22.3867416  39.9607468  44.9852982
  23.3326225  39.9685020  45.3393440  21.3783016  40.2663918  45.9869995
  20.5111923  40.7296295  45.5162163  20.9056854  38.9710236  46.5957870
  20.7760544  38.3257446  45.7269325  21.8956127  38.2350159  47.5185547
  22.2958851  38.9191551  48.2667770  21.4172287  37.4057045  48.0396004
  22.7760754  38.0056801  46.9183044  19.7196980  39.0228844  47.4006996
  18.9961185  39.0711212  46.7716446  21.8767796  41.2718887  47.0959816
  23.0131264  41.2334290  47.5217514  21.0339718  42.1927834  47.5816193
  20.1448765  42.2616539  47.1074219  21.2903175  43.0751228  48.7366409
  22.3411007  43.3576317  48.6722679  20.1844425  44.2753181  48.7800674
  19.1927223  43.8432388  48.6462746  20.1601143  44.7356071  49.7678108
  20.4652767  45.3315239  47.6704216  19.4408798  45.8726997  47.1989479
  21.6168289  45.6793404  47.2803383  21.2412777  42.3393173  50.0947304
  21.9708767  42.6665955  51.0112724  20.3447723  41.3350906  50.2155075
  19.8321896  41.0761719  49.3846512  19.9582310  40.6424408  51.4530754
  19.5708065  41.4349899  52.0932808  18.7547264  39.8268776  51.1199799
  18.9653397  39.1800766  50.2682800  18.2233505  38.8973579  52.2022171
  17.4391670  38.2978401  51.7399025  18.9419212  38.1252289  52.4771233
  17.8520641  39.5078087  53.0253792  17.6204777  40.8127708  50.7406273
  17.4957905  41.5928001  51.4916954  17.7564754  41.4158249  49.8428917
  16.6661949  40.3080750  50.5898819  21.0780087  40.0211601  52.2366676
  21.9241219  39.4269028  51.5956306  21.1015034  40.1224709  53.5611000
  20.3440418  41.0647163  54.3232918  19.3810501  40.6013260  54.5378113
  20.1701202  42.0588264  53.9114685  21.1157646  41.1640358  55.6611366
  20.3539467  41.3379822  56.4210548  21.8124123  41.9929771  55.5360374
  21.8537846  39.7883186  55.7599030  21.1613922  39.0210419  56.1062851
  22.7487602  40.0230026  56.3361359  22.2331982  39.5100021  54.3170738
  23.1259575  39.9981689  53.9262085  22.4281940  38.0398903  54.0956879
  21.4901581  37.2467308  53.7992325  23.6070538  37.5244370  54.3986473
  24.3116169  38.2348633  54.2608337  24.0129795  36.1103783  54.5715446
  23.9673557  35.6446381  53.5871086  25.4462681  35.9675560  55.0923882
  26.0271072  36.8109818  54.7190666  25.5225754  36.1159859  56.1695328
  25.9084606  34.5080414  54.7648811  25.3480511  33.7348213  55.2904091
  25.9018059  34.2520447  53.7053871  27.3935986  34.4325867  55.1370850
  27.7668571  34.4872246  56.2763672  28.2714748  34.2517281  54.1885109
  29.2605095  34.1197891  54.3450508  27.8955917  34.1709557  53.2545471
  23.0265770  35.3459358  55.4488258  22.5251007  34.2584610  55.1056824
  22.7247353  35.9101219  56.6466484  23.2369938  36.7426758  56.9007034
  21.8160934  35.1877708  57.6248398  22.1941776  34.1672516  57.6856384
  22.1259003  35.8353920  59.0444374  21.6722889  35.2098541  59.8132286
  23.1965656  35.9099617  59.2347412  21.5938416  37.2943153  59.1595535
  20.4841938  37.4434166  59.6902199  22.4220734  38.1393318  58.7593040
  20.3262196  35.2373428  57.2093887  19.5424557  34.4044762  57.5954247
  19.9222851  36.2583084  56.4581642  20.6333561  36.9261780  56.1965675
  18.5219898  36.4872169  56.1076660  17.9785786  36.2324753  57.0175629
  18.2826195  38.0107155  55.9782257  18.8834229  38.4214439  56.7896690
  18.8032436  38.4551430  55.1299667  16.8422375  38.4718437  55.9625244
  16.7260170  38.7323875  54.9105225  16.1811638  37.6621170  56.2714386
  16.5967674  39.7428474  56.8076363  17.3334522  40.1307983  57.6817665
  15.5154123  40.4258003  56.5315628  14.8317804  39.9328079  55.9750443
  15.1856565  41.1534348  57.1495476  18.0699120  35.6791573  54.9434395
  16.8821011  35.5273514  54.7678490  19.0526733  35.1438065  54.1071548
  19.8980503  35.6754494  53.9561729  18.7460060  34.1062965  53.1314278
  17.9088974  34.3820763  52.4901047  19.9724503  33.7887306  52.2968102
  20.7005863  33.4605331  53.0385742  19.8484707  32.5729179  51.4041901
  19.1071434  32.6746178  50.6116066  20.8112583  32.4270096  50.9144440
  19.5249138  31.7208481  52.0020103  20.5299892  34.9542618  51.4196892
  20.6431732  35.8227768  52.0685081  21.4726830  34.5747643  51.0254593
  19.6726646  35.1884880  50.1636848  19.8654861  36.2075500  49.8283768
  19.9191227  34.4863701  49.3671989  18.6210155  35.0972214  50.4353561
  18.1093235  32.8178787  53.7974548  18.2105808  32.5367928  54.9759598
  17.2103386  32.2645607  53.0136566  17.1979275  32.5875473  52.0567703
  16.4467297  31.0451069  53.2908630  16.3478832  30.8761959  54.3631516
  14.9475918  31.1824284  52.8613777  14.9414454  31.6973648  51.9006996
  14.4268780  30.2280693  52.7829208  14.1321077  32.0297470  53.7923050
  14.5684786  33.0120430  53.9733582  13.1663904  32.1956978  53.3148613
  13.8581076  31.4516296  55.2147293  14.7869368  31.4742584  55.7846985
  13.3489885  32.2099724  55.8095589  13.2485600  30.1301117  55.1123047
  12.6085711  29.9452019  54.3531456  13.4680328  29.1326275  55.9229317
  14.1160917  29.3597279  57.0054512  14.4076567  28.6445351  57.6562920
  14.5270472  30.2672806  57.1714783  13.1002436  27.8881607  55.6874542
  13.4125481  27.1160450  56.2587738  12.7274151  27.6620140  54.7764359
  16.9446545  29.8600540  52.5333443  16.9065285  29.9004288  51.3320007
  17.3059959  28.7235088  53.1671257  17.4377670  28.7810841  54.1668396
  17.5680447  27.3851871  52.4599800  17.7682304  27.4979668  51.3944702
  18.8687267  26.7966881  53.0250969  18.7874603  26.6847343  54.1062851
  19.0822525  25.7875900  52.6726379  19.9750957  27.8045330  52.9249573
  20.7713223  28.1212425  51.8085747  21.3167934  29.3021736  52.0691795
  22.0287380  29.7954178  51.4240112  21.0856075  29.6779041  53.3483086
  21.5369244  30.4333954  53.8439369  20.2867565  28.6786995  53.8892212
  19.8501606  28.7015934  54.8767738  16.4158878  26.4314766  52.5078354
  15.7046404  26.5205917  53.4834671  16.1174202  25.6723042  51.4111595
  16.7456226  25.5819588  50.6254730  14.7145414  25.0875359  51.1398392
  13.9777966  25.2545929  51.9255867  14.0998039  25.8533096  49.8963547
  14.7139311  25.7275696  49.0046425  12.6593409  25.3940945  49.7257652
  12.6830683  24.3474388  49.4223747  12.1435919  25.5955620  50.6646576
  12.1902380  25.9943161  48.9461670  13.9339466  27.3398094  50.2003326
  14.8856859  27.8466663  50.3596687  13.4160824  27.8430195  49.3838158
  13.3979530  27.5137691  51.1333656  14.7185278  23.5760784  50.8766975
  14.9085417  23.0064487  49.8516235  14.6835709  22.8828354  51.9919853
  14.6549168  23.4389515  52.8346062  14.8185587  21.3823414  52.1656723
  15.4557037  21.1086159  51.3247032  15.5623274  21.0212402  53.4435272
  15.0958662  21.5691185  54.2622757  15.4808292  19.9447117  53.5936813
  17.0784664  21.4089489  53.2936630  17.5328159  22.7065372  53.5676270
  16.8736095  23.5612907  53.5323982  18.8645401  22.9776344  53.8410492
  19.2236271  23.9564457  54.1228027  19.7775536  21.9058895  53.9545670
  21.0983200  22.1686115  54.2055511  21.6100140  21.3603458  54.2860069
  19.3072357  20.5952969  53.7112656  20.0174427  19.7984352  53.8756294
  17.9799423  20.3126850  53.4881020  17.6200523  19.3078213  53.6528091
  13.3749657  20.6903133  52.0923271  12.5018711  21.0889702  52.8683395
  13.2304173  19.6367416  51.3071709  13.9136600  19.3022404  50.6428032
  11.8493032  19.2028713  50.9109154  11.1057777  19.5937805  51.6055107
  11.4184303  19.8225155  49.5557632  12.0230503  19.2518368  48.8508835
  10.3848600  19.5361996  49.3611870  11.6519060  21.3493328  49.4071007
  12.6609678  21.6052856  49.7301865  11.4819822  21.8237400  47.9900894
  10.4415283  21.7807350  47.6680641  11.7309856  22.8799114  47.8871384
  12.0659733  21.3147430  47.2232933  10.5687256  22.0504723  50.2951279
   9.5696115  21.6668262  50.0885162  10.8118019  21.7835751  51.3236084
  10.6700745  23.1225910  50.1266594  11.6947851  17.6960659  50.8867722
  12.6405258  16.8794537  50.8864822  10.4612322  17.2210617  50.8254814
   9.7038679  17.8884964  50.8575935   9.9710617  15.8225002  50.8787804
   8.8812246  15.8045416  50.8845215  10.3867598  15.1157370  49.5353622
  11.4754734  15.0710573  49.5637741  10.1043205  14.0647163  49.5960655
   9.8154478  15.6699467  48.1743546   9.8318653  16.7576542  48.2431030
  10.3733711  15.2041311  47.3620491   8.3591852  15.2329540  47.9903069
   7.6172276  15.9015999  47.2973099   7.9264960  14.1564808  48.4217987
  10.4578867  15.0873423  52.1206589  10.0041819  15.4354649  53.1606598
  11.4160309  14.1539059  52.0828934  11.6748714  13.7453852  51.1962051
  12.0639124  13.4558172  53.2476234  11.3479147  13.4052067  54.0679207
  12.3319921  11.9482870  52.8746185  12.8450823  11.8174143  51.9218788
  13.0054750  11.4898520  53.5987434  11.0326204  11.1249323  52.8196983
  10.5286655  11.0269260  53.7812233  10.3465261  11.6935301  52.1919441
  11.1835194   9.7631531  52.2401199  11.9409952   9.7336435  51.4568825
  11.4782238   9.1368532  53.0821457   9.8577919   9.3212557  51.6607704
   9.0655632   9.5776348  52.3641510   9.6488991   9.9114342  50.7684937
   9.8075523   7.9005570  51.2933922  10.4600134   7.8724737  50.5229340
  10.0493174   7.3317075  52.0921822   8.9038820   7.5731893  50.9830475
  13.3125172  14.1789961  53.7384377  13.6452808  13.9902887  54.9114456
  13.9887676  14.9700127  52.8828697  13.6475067  15.1168919  51.9436874
  15.1540298  15.7380610  53.3579941  15.8060942  15.0232611  53.8599625
  15.8275738  16.3133583  52.1457748  15.3254080  17.1421318  51.6467171
  16.8496399  16.6141014  52.3760643  15.8687220  15.4918671  51.4305382
  14.9320936  16.8246479  54.3372765  15.8747683  17.3486195  54.8320312
  13.6620522  17.1588478  54.5870552  12.9739428  16.8962555  53.8959274
  13.1187782  17.8646049  55.7698021  13.1793413  18.9440212  55.6308823
  11.5591431  17.6539516  55.8311653  11.4495668  16.5702305  55.7906380
  10.9205360  18.2760506  57.0435638  11.0151033  19.3612404  57.0046310
   9.8564978  18.0518913  57.1188965  11.3786154  17.9942474  57.9916458
  10.9228916  18.2581825  54.5332794  11.3321667  19.2423744  54.3053360
  11.1975021  17.6189575  53.6941833   9.8402672  18.3004208  54.6525879
  13.8129091  17.5354919  57.1032600  13.9146595  18.4290199  57.9326859
  14.3472652  16.2894249  57.3221626  14.0904140  15.5538101  56.6795120
  15.1751099  16.0185223  58.5155945  14.5358601  16.2409172  59.3699989
  15.6044521  14.5842314  58.7298508  16.2800236  14.4771252  59.5785179
  14.3539419  13.7084179  59.0443916  13.6551828  13.4951506  58.2354698
  14.5622702  12.6763182  59.3262939  13.6819830  14.1629038  59.7724152
  16.3415031  14.0025587  57.4644318  17.2928963  14.4777594  57.2253990
  16.6519623  13.0161352  57.8089371  15.6541395  13.7597418  56.6540794
  16.4084702  16.8556328  58.6798248  16.7066708  17.4202461  59.7149506
  17.0729218  17.2026215  57.5502243  16.7072392  16.9509487  56.6430130
  18.3471909  17.8832378  57.4787598  19.0467339  17.5753593  58.2559052
  19.0018826  17.6623650  56.0942535  18.3820400  18.1310463  55.3299026
  19.9323978  18.2297134  56.1131783  19.3045826  16.1921215  55.7765160
  18.4111576  15.5846100  55.9208107  19.6396294  16.0011654  54.3169632
  18.7169361  16.1410427  53.7537880  20.4353409  16.6451664  53.9425201
  20.0730896  15.0053034  54.2249222  20.5417690  15.7958698  56.6263199
  20.4178143  16.0721302  57.6734161  20.6542377  14.7118626  56.6068268
  21.3953037  16.3388233  56.2203865  18.2339115  19.3698215  57.6873665
  19.2005482  20.0689945  57.7958183  17.0217896  19.9109383  57.7185783
  16.2164516  19.3044071  57.6581650  16.7628136  21.3519211  57.6149712
  17.1536884  21.5978146  56.6276245  15.2302332  21.6240025  57.5555000
  15.0764847  22.6472759  57.2129059  14.7426252  20.8825607  56.9225616
  14.5134392  21.4824772  58.9753914  14.7264614  20.6399574  59.6333275
  14.8478346  22.3107719  59.6000595  12.9507380  21.6530991  58.8619576
  12.6794758  22.6655674  58.5629158  12.6747427  20.9696312  58.0589638
  12.1530981  21.2207813  60.0450935  11.6819925  21.9667625  60.5366936
  11.8429146  20.0273590  60.5622139  12.5675659  18.9747314  60.3132629
  13.2739248  19.1362228  59.6096420  12.4347801  18.0469818  60.6897621
  10.9053240  19.8676453  61.4871521  10.6271763  18.9107723  61.6518593
  10.3311415  20.6829872  61.6472549  17.4906788  22.1404858  58.6614304
  17.2382393  21.8845177  59.8725777  18.4459190  23.0513191  58.3923759
  19.0092678  23.2707462  57.0465050  18.4291458  23.9730225  56.4478645
  19.1462669  22.3842182  56.4273109  20.2749901  23.9916458  57.2789154
  20.5039291  24.7354984  56.5157814  21.0677528  23.2437859  57.2972221
  20.2117176  24.5988007  58.6587029  19.8636990  25.6317482  58.6580276
  21.2214012  24.6054764  59.0693092  19.2604733  23.7263279  59.4156914
  19.7876701  23.0136242  60.0498962  18.3870068  24.5404301  60.4546928
  18.8165340  24.8760986  61.5727425  17.1205883  24.9548664  60.1069679
  16.7891788  24.7339897  59.1788063  16.2065582  25.7528439  60.9901161
  16.7019234  26.6822166  61.2711525  14.9110556  26.1070938  60.3188210
  14.3378544  25.1818180  60.2604218  14.4539557  26.8473511  60.9754639
  15.0626163  26.6385593  58.8582840  15.9175186  27.5091362  58.5035553
  14.2441521  26.1703720  58.0216408  15.9396038  24.9969807  62.2992897
  15.6476822  25.6100693  63.3530045  15.9482155  23.6305828  62.3596153
  16.2203121  23.0622749  61.5702553  15.9166927  22.8998718  63.5660133
  14.9123898  23.0035305  63.9767799  16.2005157  21.3657627  63.3359718
  16.9722786  21.2768021  62.5713997  16.4482937  20.8444729  64.2606125
  15.0535097  20.5993080  62.7242050  14.5436249  21.1640949  61.9437370
  15.5503979  19.2349720  62.1040039  15.7351437  18.5597057  62.9394608
  14.7915192  18.7666264  61.4772224  16.3721066  19.4095516  61.4094429
  14.0242395  20.3253021  63.7980919  14.3348980  19.8083534  64.7060318
  13.5105724  21.2661724  63.9956017  13.3474789  19.5814133  63.3776970
  16.9527569  23.3842697  64.6056061  16.7232552  23.6796532  65.7557144
  18.2579918  23.4717541  64.1641693  18.4413776  23.4683895  63.1709633
  19.4000378  24.0412750  64.8402939  19.4428902  23.5605469  65.8176193
  20.7230110  23.5331650  64.2157211  20.7235374  22.4583664  64.3971252
  20.7277107  23.7781830  63.1536255  21.9222469  24.0726376  64.7420731
  22.6543407  23.6538639  64.2835159  19.4225922  25.5532532  65.1449127
  19.7384129  25.9832134  66.2459183  19.0136070  26.2967949  64.1204071
  18.8801041  25.9173393  63.1939697  18.9672699  27.7663555  64.2538300
  19.9141712  28.0440044  64.7168503  18.8515911  28.4555607  62.9130783
  17.9038467  28.0799446  62.5273399  18.7700748  29.5236607  63.1146088
  20.0150833  28.2890205  61.9610863  20.2916336  27.2346897  61.9645920
  19.5090714  28.6900330  60.5901489  18.7423954  27.9676876  60.3099251
  19.2573586  29.7494831  60.5421295  20.2296619  28.4506912  59.8081169
  21.2150764  29.1973972  62.2949028  21.9677811  28.9511662  61.5459671
  21.0468750  30.2736282  62.2556915  21.6622238  28.9104538  63.2466469
  17.8966579  28.2378006  65.2347717  18.1571903  29.2180462  65.9347305
  16.7457352  27.5847569  65.4507141  16.4542618  26.8839626  64.7843552
  15.6976423  27.9574356  66.4681931  15.4115820  29.0026207  66.3504791
  14.4299135  27.1315632  66.3168793  14.6269855  26.0653896  66.4289017
  13.2905550  27.3716888  67.2472458  12.4589577  26.8931980  66.7299500
  13.4724970  26.7342510  68.1125031  13.1436882  28.4149628  67.5267334
  13.9483480  27.1995220  65.0319824  14.3339777  26.5017891  64.4971390
  16.2634277  27.8936481  67.9008408  15.9108334  28.7762852  68.6938629
  17.1308041  26.9597092  68.1367264  17.4134045  26.2789631  67.4462051
  17.8311615  26.7787247  69.4316406  17.1724472  26.9202690  70.2884674
  18.3245926  25.3278008  69.5861893  18.8659992  24.9898834  68.7025604
  18.9626961  25.1910343  70.4592438  17.2035408  24.4612255  69.8056259
  16.4931221  24.7820683  70.5675049  16.5841503  24.5582237  68.9139633
  17.5186348  22.9841766  70.1019211  18.1394157  22.6119022  69.2869720
  18.0909557  22.9354820  71.0282974  16.2329044  22.2640972  70.3011322
  15.7641573  22.7118568  71.1774216  15.7135420  22.3412304  69.3459244
  16.4442139  20.8381367  70.6493835  16.9449520  20.3819122  69.9002380
  16.9784088  20.5915947  71.4703293  15.5632401  20.3627720  70.7835999
  18.9800072  27.7909679  69.5273056  18.9995880  28.4953995  70.5021820
  19.7443027  27.9899845  68.5186386  19.6758041  27.3459835  67.7435989
  20.7810936  29.1014156  68.4638062  21.3986111  29.0368900  69.3596954
  21.6052570  28.7866478  67.1889267  22.1200371  27.8427906  67.3684616
  21.0088577  28.5947704  66.2969666  22.5899563  29.8846951  66.7797699
  22.2256699  30.8210449  66.0652466  23.7638226  29.9146156  67.4096756
  24.0593224  29.0965080  67.9229813  24.4078274  30.6722660  67.2326965
  20.1111412  30.5474758  68.4473114  20.6584721  31.4987488  69.0522537
  18.9174576  30.7643242  67.9404907  18.5813942  29.9981174  67.3747330
  18.3002396  32.0913200  67.9650192  18.9198895  32.9266815  67.6389771
  16.9911747  32.1793709  67.0673904  16.1414738  31.7306538  67.5819397
  16.7632923  33.6779175  66.9966736  15.8909483  33.8712692  66.3723907
  16.5097790  34.0888176  67.9739151  17.6484413  34.1884537  66.6172333
  17.0515690  31.6317177  65.7874527  17.5007420  30.8014145  65.9619370
  18.0157089  32.4841766  69.4121475  18.1241493  33.6669197  69.7821121
  17.9352798  31.5082130  70.3855057  18.1950645  30.5919399  70.0492630
  17.3638859  31.7047367  71.7146988  16.7059250  32.5731087  71.6811981
  16.7142029  30.3334217  71.9880524  16.2468052  30.0787830  71.0368500
  17.5190773  29.6478500  72.2531433  15.6929274  30.2301426  73.1311722
  15.3151388  29.2228394  72.9558945  16.2634811  30.3752728  74.0485077
  14.5290880  31.2248516  73.1362000  13.8622313  31.5023708  74.1547089
  14.1465530  31.8303585  72.1262360  18.3928604  32.1233215  72.7489090
  18.0203400  32.1715660  73.8905029  19.6730461  32.3184395  72.3938828
  20.0005245  32.0883827  71.4665604  20.6840553  32.7426720  73.3630219
  20.5564976  32.1954842  74.2970581  22.1305561  32.5261002  72.7682190
  22.2011051  33.1919975  71.9081573  22.8224430  32.9289474  73.5078888
  22.5023193  31.1819630  72.2313461  21.7503662  30.9056549  71.4922104
  23.8725681  31.3129807  71.5415955  24.6464882  31.4011421  72.3040848
  23.9525776  30.3313637  71.0745544  23.9110985  32.0352631  70.7261734
  22.4878807  30.0422497  73.2345276  23.2917461  30.1209946  73.9664459
  21.4994431  29.8570595  73.6549988  22.8124237  29.1773567  72.6559677
  20.4810524  34.1894112  73.7328186  20.4971886  35.0219612  72.8350143
  20.4300137  34.4046135  74.9622269  24.1304512  17.5019741  29.5149231
  23.5153828  16.6404762  29.2638416  25.1950188  17.2868290  29.5776443
  23.5668182  18.7082043  29.9781914  24.3800755  19.8175640  30.5694504
  23.9458904  20.8458557  31.1057339  25.6037025  19.7565861  30.6482639
  22.2219753  18.9283276  30.1405678  21.2208557  18.6684036  29.0132427
  20.2508240  19.1229496  29.2490807  20.8833885  17.2118645  28.8209724
  20.7218933  16.6497955  29.7383194  20.5518188  16.7026062  27.5943851
  20.5613480  17.5319843  26.3796329  20.0060196  17.2508583  25.4868984
  21.0684719  18.8153763  26.4706631  20.9741573  19.5086937  25.6376305
  21.7399349  19.3474712  27.6974201  22.7628441  18.9548740  27.6452827
  21.6308708  20.7999973  27.7431412  21.8993149  21.0797634  26.8507309
  20.0897846  15.2781382  27.4709988  20.1170940  14.6442366  28.5420074
  19.6049824  14.7957172  26.4729958  46.0168037  18.9453259  41.4456024
  46.4654427  18.1359081  40.8736877  46.4886055  19.9193096  41.5564156
  44.7858238  18.8139420  42.0188522  44.1704750  19.7739258  42.9891129
  44.5211372  20.9353294  42.8277054  43.2745934  19.4464149  43.7235527
  44.0755539  17.6039162  41.9192810  43.2369499  17.4504070  40.7532578
  42.8490257  16.4286022  40.6604195  44.0576096  17.7542191  39.4787788
  44.7794342  17.0114841  39.1458511  44.1864853  19.0259171  38.9512367
  43.3039742  20.0369358  39.5541611  43.5902443  21.0586014  39.3119812
  42.2844353  19.7792034  40.4178543  41.8426743  20.6415501  40.9125595
  41.9929276  18.3930874  40.8524551  41.6245918  18.4887524  41.8812218
  40.9800682  18.0979023  39.8997993  40.2824745  17.5866032  40.3455162
  45.2127380  19.4508305  37.9381180  45.7369804  18.6090622  37.2176933
  45.4045029  20.6516380  37.7653656  22.9552307  18.5152283  55.9102058
  22.8103733  19.5727921  56.1202087  23.0377941  17.8663826  56.7795219
  22.9107571  18.0872326  54.6017799  22.7565937  19.1892834  53.4907188
  23.0514584  20.3540630  53.7684631  22.6152477  18.9208183  52.3205795
  23.0215073  16.8489647  54.1696968  24.2578793  16.0685234  54.2655602
  24.2703686  15.2601328  53.5242500  24.1833172  15.4485264  55.6586533
  23.3259888  14.8048201  55.8434906  25.2425098  15.3978987  56.5241928
  26.4037647  16.1675720  56.1763458  27.3055420  16.1129570  56.7831535
  26.4874039  16.8978386  55.0449257  27.4270306  17.3673553  54.7617607
  25.4322929  17.0432549  53.9761162  25.1710033  18.1078796  53.9375191
  26.1180363  16.7768192  52.6956635  26.4765377  15.8821964  52.8292923
  25.3501415  14.6069422  57.7648697  26.4450607  14.3083954  58.2380562
  24.3671684  14.2086315  58.3344765  72.9652786  40.5720558  79.8406296
  42.4727707  36.6349487  80.3793030   8.0143394  50.3918419   2.7815945
  61.4464607  64.4765701  50.2449989  23.9988937  37.6643524  71.0173264
  10.1242666  31.9024029  73.7289963  82.3841934  31.5713177  61.7750015
  78.9251556  32.9055176  24.4687786  40.5685577  65.1112518  40.9959831
  70.1601562  20.2705364  46.5813332  69.4068298  19.6910934  46.6952324
  70.8391342  19.7097244  46.2062187  77.6209183  14.5004225  46.1732521
  76.8178558  14.8657370  45.8019447  77.3392944  13.6952944  46.6076393
  19.1002617  33.9232788  11.0723743  19.5785217  34.5867348  10.5750570
  19.1327152  33.1412773  10.5213289  44.6373291  64.1102905  10.0792484
  44.5551796  64.9605026  10.5112419  45.5761566  64.0119400   9.9206343
  78.2458115  37.6256294  75.1203613  78.3041763  37.2015991  75.9765244
  77.3315811  37.9006386  75.0511169  53.9770966  65.9048767  21.2683716
  53.3801231  65.4633179  20.6643181  54.7476082  65.3378830  21.3008976
  52.0339394   6.1246309  16.7959805  52.7197189   6.1564746  17.4630051
  52.4379234   5.6668434  16.0587845  55.0583344  27.0549793  82.7692261
  54.9919891  27.4782047  81.9132462  54.4674034  26.3041687  82.7116394
  37.0553741  59.6029434  14.4643440  37.2974892  59.5440483  13.5401449
  36.2868881  59.0383034  14.5470686  74.4754715   4.9815674   8.0050840
  75.1939392   4.3663731   7.8582115  73.7003250   4.4273353   8.0956392
  68.7337875  14.6608639  48.2671432  68.8357849  13.7307749  48.4690437
  68.0578461  14.6862116  47.5898705  27.4474697  15.7895460  84.2022247
  26.6936169  16.2762661  84.5354538  27.5144768  15.0279703  84.7781982
  53.1860542  64.3161697   3.4229167  54.1154594  64.3610840   3.1983678
  53.0151100  65.1288528   3.8989058  74.8862000  43.9492989  29.5493298
  75.5998764  43.4849396  29.1119938  74.5324554  44.5321236  28.8774567
   2.1464701  22.1501312  62.9805069   2.2565968  21.3841248  63.5438347
   3.0393958  22.4363422  62.7881546  30.6876602   8.8642578  12.2041063
  29.9757099   8.2399006  12.0643339  30.2498093   9.6680079  12.4842920
  61.0508232  29.8053455  20.1948814  60.6632080  29.0641079  20.6602345
  60.8940392  30.5561485  20.7675438  36.9520493  48.6358604  75.8373642
  37.3359337  47.8366203  75.4766922  36.0072746  48.4881401  75.7947845
  13.8380766  65.2070694  70.4717789  14.4400930  64.6562958  69.9713211
  14.3294172  65.4463120  71.2576447  59.5135117  12.3591728  68.1013412
  59.5609665  12.5768547  67.1704254  58.7301903  11.8147535  68.1803818
  37.8431587  51.8485031  22.7315960  38.3082504  52.6768417  22.6142235
  38.5334358  51.2090416  22.9071999   3.8710606   5.5431151   1.2916123
   4.3123198   4.7260962   1.0592279   2.9443264   5.3088899   1.3419496
  68.1959152  21.4227524   7.1700821  68.1666031  20.4708748   7.2665257
  67.9591675  21.7584896   8.0346403  58.1873550  13.4002714  23.4103985
  58.9739380  13.8710155  23.1348629  57.9747849  13.7700233  24.2673302
  32.4118195  47.3262215  73.1559753  31.4646263  47.1894264  73.1373520
  32.6060028  47.5331802  74.0701294  37.8670387   4.1536593  82.3171463
  37.0707474   3.9098053  81.8452454  37.5757828   4.7996979  82.9606018
  52.0680542  48.3845711  23.0957832  51.4750023  48.9501190  23.5904331
  52.8114166  48.2454910  23.6825562  24.7870636  11.8892660  70.1830750
  24.9736996  11.1844978  70.8033142  24.0632210  12.3730059  70.5809174
  86.4580765  53.8245010   4.8054786  86.8264771  52.9449120   4.8881240
  87.0357361  54.2687759   4.1848607  59.5436707  23.8091850  52.5888672
  60.2908707  23.3325596  52.2272720  59.0101585  24.0324574  51.8261414
  12.4322586  20.3261986  18.4783974  12.5387096  20.9080601  17.7258453
  12.2646112  20.9147720  19.2144051  86.0967865  14.0982590  76.7665329
  85.9466019  14.7157173  77.4823685  86.9784317  13.7599716  76.9230347
  78.4266739  51.7307777  31.1361923  77.4765396  51.7934570  31.0384693
  78.7360153  51.4300957  30.2817173  84.1299515  11.2209606  45.9003792
  83.8906326  12.0068035  45.4090424  84.9158478  11.4720221  46.3857384
  64.2512894  34.6404076  25.4413548  63.4977493  34.2423820  25.0054741
  64.4492874  34.0476036  26.1663475  35.8071594  67.2433395  52.3425751
  36.0942764  67.8821182  52.9950714  35.9662781  67.6719360  51.5016098
  71.5956421  69.6520844  26.2757301  72.3441620  69.7314224  25.6844139
  71.9850540  69.5879517  27.1477814  52.6481781  36.9733315  72.0557556
  52.3306274  37.5191422  71.3363876  52.0311546  36.2424583  72.0922852
  85.7240067  23.7777557   0.3380573  84.9681473  24.3630772   0.2899798
  85.3445511  22.9012833   0.4016319  21.2786694  60.3198395  45.3386803
  22.2036724  60.5641670  45.3085861  20.8912945  60.9258690  45.9702682
  54.6192627  57.5177498  55.2218246  54.8677406  56.5959244  55.2905960
  53.9724274  57.6438904  55.9160347   5.2916698  16.2087040  56.7638550
   5.0156465  15.5383749  56.1387939   5.1809640  15.7971125  57.6209259
  55.6532021  39.7212868  79.3608856  55.5391998  39.5614357  80.2977371
  56.2368736  39.0215302  79.0678024  82.9738617  49.8048553  74.2603683
  82.2991943  49.5619850  73.6262741  83.3074646  50.6448746  73.9452362
  60.0653381  34.2890167   2.3865111  59.9347153  34.1067314   1.4559511
  59.2876129  34.7834396   2.6451967  77.1876755  63.3038330  38.6618080
  77.3415298  62.8081284  39.4660683  77.6233139  62.7937126  37.9790001
  50.9630775  46.4890137  18.7076645  51.7443390  45.9796066  18.4923267
  50.6644363  46.1281738  19.5424347   9.5463867  26.7401600  82.7457886
   8.8916016  26.3681431  83.3366318   9.6999702  26.0542202  82.0960770
  84.0563049  11.1710463  29.7678833  83.7777710  12.0773239  29.6363163
  84.9186630  11.1232090  29.3552341  56.3876343  65.4978027   4.3951850
  55.9049110  66.3099823   4.2416258  56.4459686  65.0870972   3.5325453
  61.6151657  21.8976440  40.6223068  61.2687416  21.7965126  39.7357445
  60.9477882  21.5067673  41.1862679  75.6695786  24.6136723   2.2807486
  76.5843277  24.6506329   2.0012763  75.2550659  24.0098400   1.6644716
  31.1569386  62.3870659  12.8256226  31.0717888  62.8806610  13.6413107
  30.4477234  61.7450905  12.8590002  20.5418091  45.0112228  80.3245621
  20.0271931  44.8177795  79.5409927  19.8947754  45.0704689  81.0274658
  82.1494064  35.5719872  27.0783176  82.9680405  36.0663490  27.1193295
  82.2017899  34.9605637  27.8129234  81.2936249  34.8344917  55.9935837
  82.1801682  34.5768929  56.2464066  81.1887283  35.7156639  56.3524170
   3.4193041  12.5423756  35.8765678   4.2181606  12.9097300  36.2548676
   2.8687394  13.3037624  35.6938095  59.9432220  32.7754211   4.7306261
  60.8578072  32.8474159   5.0037279  59.9111214  33.2173538   3.8821592
   4.1522217  28.7955627  10.4722223   3.7301447  28.3208542  11.1882772
   3.7434144  29.6609802  10.4848089  76.4588928  27.4580727  43.3035049
  77.3712769  27.7363892  43.2239571  76.3796387  27.1524429  44.2071304
  76.6636658  30.8296871  18.3391476  76.5219727  29.8992939  18.5138569
  77.3998489  30.8491631  17.7276802  62.6196327  23.6943073  78.3824158
  63.0319138  24.3924313  77.8736115  63.2392159  22.9661617  78.3359680
   0.3807361  32.7217064  80.0772400  -0.5207988  32.9636459  80.2892075
   0.7044032  33.4475708  79.5437622  12.8897257  27.6509686   2.4972482
  12.8917274  26.6954231   2.4410224  12.2199545  27.9263229   1.8712952
  23.7906837  55.2467804  73.4354706  23.8690548  54.5532074  74.0904846
  24.6889954  55.5458336  73.2946396  70.4598465  16.5834751  82.6315079
  70.6073151  17.4780293  82.9385223  71.3284302  16.2708855  82.3783569
   2.3244340  35.5696182  61.8693352   3.0534103  35.1328545  62.3098602
   2.7407358  36.1219215  61.2076035  19.5767498  64.1870728  52.4933739
  18.6444206  64.3517380  52.3523674  19.7182560  64.3881607  53.4184532
  68.8192139  46.8867264  24.0084362  69.2643280  47.2347145  24.7811031
  68.2362137  46.2099419  24.3523827  21.3089809  65.4786301  67.1585846
  20.5297050  65.7899170  67.6190796  21.0508842  65.4592972  66.2370377
   5.5078030  20.8586216  56.3146973   6.0828052  20.0947247  56.2692375
   4.7018642  20.5778885  55.8812447  81.7282944  65.7950439   4.4116259
  82.2122269  66.3711014   5.0034037  81.6922531  66.2764511   3.5850770
  27.3053436  65.4896622   2.3599706  26.5045490  65.1862717   1.9322832
  27.0656567  65.5774841   3.2825050  76.2341309  58.5346985  51.2323990
  76.4737930  57.6348000  51.0110970  75.5727158  58.4446030  51.9184341
  61.3910751  27.8820953   7.2510543  62.2282410  28.3291302   7.3757334
  61.6041527  26.9513645   7.3186531  48.0633087  34.2869339  73.4421387
  47.3061485  34.1294937  72.8780899  48.1537819  33.4818153  73.9518738
  81.2122955   1.4526014   7.4986000  82.0611954   1.8078499   7.7620311
  81.4280777   0.7026108   6.9443579  49.2861900  27.4530010  66.9049377
  48.6171379  26.9711895  66.4186707  48.8301353  28.2257710  67.2382050
  20.2621689  58.2077904  31.3507996  20.5639343  58.9723091  30.8602142
  20.0494003  57.5604935  30.6785107   0.9105465  29.9463692  80.2769089
   0.6863598  30.8579407  80.4640121   0.7108129  29.4792347  81.0881577
  69.4448776   3.0925806  12.1464977  69.4906387   3.8858490  12.6802235
  68.8737564   3.3283911  11.4154406  18.4354210  38.2136993   5.8899546
  19.2405853  38.6590195   6.1538382  18.0406303  38.7968559   5.2416468
  70.4805984  54.8039360  13.7974586  71.3673935  55.1101990  13.6076384
  70.3796768  54.0163078  13.2629614  82.2087708  19.5087605  21.5388680
  82.0586548  19.1011410  22.3918285  81.4673767  19.2250385  21.0040150
  72.7086411  39.9788933  42.5700340  72.3175507  39.9208946  43.4417648
  73.5853882  39.6096268  42.6758118  36.8985863   5.9474525  84.3642120
  36.6819420   5.8359041  85.2898712  36.6261864   6.8422022  84.1606064
  32.3270912  40.0830803  74.0796127  31.8253746  40.3006554  73.2940063
  33.1253586  39.6720924  73.7478104  81.3337250  65.2325211  19.1026268
  81.2478104  66.0032883  18.5415821  81.2554855  64.4901886  18.5034199
  65.6487656  63.1197777  83.7004623  65.0701599  63.4973030  84.3629761
  65.8270645  62.2335396  84.0151443  15.8612242  43.6030312  36.6429634
  15.4787817  42.7666626  36.3775253  16.6237164  43.3615875  37.1688347
   5.5954051  13.4990940  25.1271954   5.3502927  13.3545113  24.2132759
   6.5161338  13.2412357  25.1719055  19.9484310  18.9276352   4.0286779
  19.3153515  18.3769722   3.5680139  20.7975006  18.5311661   3.8334255
  71.2104263  17.1176472  34.7243767  71.3194351  17.6884766  35.4849701
  70.9272995  16.2803898  35.0918961  20.8694630  44.4743958  24.1267281
  20.9779434  45.0119133  24.9112930  19.9288902  44.3023796  24.0824165
  74.2925339  48.6242714  35.1153488  73.6091003  49.2877617  35.2098427
  74.7353058  48.6139526  35.9639244   4.3018293  40.9757652  53.2564087
   4.3263731  40.6376610  52.3612480   5.0341797  40.5435715  53.6958427
  33.6588593  53.7021790  50.3022957  33.3680115  53.7233620  49.3905983
  34.0786705  54.5513840  50.4395638  28.4841652  70.7260437  74.7522736
  29.4037189  70.5529022  74.9539566  28.0334034  70.6339111  75.5916519
  28.7938900  52.5275955  75.9994736  29.4005642  51.8437042  75.7158051
  28.9720726  53.2636909  75.4141159   6.2859635  69.2834396  58.9195366
   7.0610118  68.7853851  59.1793022   6.2962804  69.2607346  57.9626617
  55.1051483   8.6128826  44.3401566  54.5494347   9.3612633  44.1225777
  55.1709518   8.1179647  43.5234833  56.5515900  31.3368301  18.9202518
  55.6054344  31.2977161  18.7806282  56.7595024  32.2707405  18.8917046
  69.3958054  33.4217491  58.8026695  69.6843948  32.7780304  58.1556969
  69.5849762  34.2686806  58.3987389  16.3649750  42.3614883  32.8132896
  16.1720638  42.2754784  33.7468948  15.9563255  41.5942268  32.4126015
  23.4700241  46.3470955  61.9384193  24.3440075  45.9850769  61.7923851
  23.4217606  46.4820900  62.8848228  50.1829033  13.4108591  11.8188219
  49.5935249  13.4386339  12.5725422  50.2165871  12.4858265  11.5750771
  65.6182556  34.9531174  71.6507263  65.9809189  34.4427757  70.9266586
  64.8855743  34.4270668  71.9711533  75.2531128  68.2124176  45.4727211
  74.6525803  67.8355865  44.8296127  74.8515778  68.0161362  46.3191719
  24.7949829  30.9299126   2.0668883  24.4310112  30.3357544   2.7231927
  24.6480579  30.4842339   1.2326123  51.6025238  71.0461655  43.0453987
  52.4554405  71.2388306  42.6559830  50.9774590  71.1853409  42.3339539
  24.6963539  25.5237122  20.2446728  24.7049675  25.8159218  21.1561394
  23.8521938  25.8215160  19.9056473  43.5147552  19.1937160  75.7097702
  43.1786385  19.1719666  74.8137894  42.7443619  19.3681221  76.2504272
  65.3668671   2.2321968  49.3511047  66.0680618   2.8066175  49.0435295
  64.5885315   2.5316021  48.8812332  85.7088547  62.4553185   8.2852116
  86.6113815  62.1565323   8.1738272  85.6764069  63.2952957   7.8273654
  10.8399210  49.2375946  21.7650528  11.0928001  48.3342056  21.5748520
  11.6528358  49.6607552  22.0413399  75.2558517  16.2463455  27.5498695
  75.6353226  16.0395031  26.6957932  75.7966843  15.7641830  28.1753693
  67.2099762  62.3090286  27.9340820  67.7400894  61.8220215  28.5649834
  66.3105850  62.2017899  28.2436275   8.0522947  56.5361176   5.4575739
   8.9439878  56.3147812   5.1890106   7.7818274  55.8062744   6.0147161
  82.7753372  40.1086884  69.4116974  82.0802155  40.4805069  68.8687439
  82.3244095  39.4934120  69.9899063  46.1041145  33.0512924   9.1278753
  45.8745079  32.4101715   8.4552107  46.3671494  33.8297691   8.6369429
  37.6088219  59.3139954  11.8433571  38.3052254  59.1412964  11.2097740
  36.9709396  59.8397713  11.3607616  45.9343185  52.5564575  51.0730286
  45.8630447  52.5283775  52.0271606  45.4301987  53.3290939  50.8178291
  73.7187271  66.2689896  71.3708878  74.5808182  65.9771423  71.6672974
  73.2257309  66.4177551  72.1777649  23.5495243  26.8684425  77.3929367
  23.3577957  27.7941151  77.5432739  24.2852898  26.6786289  77.9750443
  74.8420258  13.5655088  19.6696911  74.6478729  12.6300573  19.7285480
  74.0357437  13.9958382  19.9542274  78.8586807  36.3780136  80.6435394
  78.8794785  35.5427399  80.1765060  78.2331619  36.9112053  80.1529694
  76.5124741  57.1172409  55.6834259  75.6315536  57.3651657  55.9640579
  76.8200531  56.5167847  56.3624535  21.3627834  17.3550949  17.0289268
  21.1792812  16.4308014  16.8608818  20.7139320  17.6129036  17.6837234
  41.0880814  29.8851032  12.0676498  41.3709641  30.3584328  12.8500605
  41.0351562  28.9710274  12.3467484  24.3011246  61.0804176  73.2568817
  24.2037334  60.3899155  73.9125977  24.4777584  61.8713036  73.7663269
  23.8023529  24.8040009   4.6057053  23.8458557  25.7261925   4.3529186
  23.0666676  24.4526234   4.1041756  48.6248283   3.2877083  26.2389698
  47.8771667   3.1946144  25.6485767  48.9236221   4.1874561  26.1070290
  32.0385895  57.9634132  77.6805725  32.4059410  57.5345459  76.9076843
  31.9791203  58.8870430  77.4364243  86.0229950  21.5590229  35.8941765
  86.7994995  21.7117920  36.4326401  86.3697891  21.3649464  35.0233727
  71.2584000  62.6935616  24.0087681  71.8443298  63.2500725  24.5218182
  70.5216217  62.5178032  24.5939960  63.2990303  60.2462654  83.7121048
  63.4908180  59.5294342  83.1074524  63.1597366  61.0058632  83.1465607
  10.7458038  20.2757549   7.6392503  10.9625664  19.7372475   8.4003391
  11.5739546  20.3695087   7.1684971   5.2545900  28.2722721  71.3180466
   6.1154065  27.8539562  71.3334885   4.9229755  28.1708622  72.2102203
   6.8137422  11.0887909  73.4970398   7.6333294  10.6380501  73.2937164
   7.0597863  11.7555914  74.1381912  66.0403137  31.9480343  57.7246552
  66.4432831  32.7024956  57.2949600  65.5122986  31.5365181  57.0404816
  83.1916351  63.9992332  37.1298409  83.9508438  63.4318619  36.9959526
  83.3169708  64.7173996  36.5095558  64.6234741  44.2174187  63.0154533
  64.2167358  44.1869431  62.1495056  64.7149048  43.2991104  63.2695770
  70.5265274  50.8621902  74.6880798  71.1523285  50.8488045  75.4122467
  70.1172867  49.9971390  74.7091522   5.2383757  60.5340538   0.0762549
   4.5712729  61.2141762  -0.0166992   5.3438711  60.4296837   1.0218813
  59.0311241  68.3288116  40.6097031  58.3099136  68.3919830  39.9835281
  59.3216286  67.4187546  40.5494270  83.9611435  33.9675560  39.3262024
  84.3874588  34.5906982  38.7378311  83.9346924  34.4158745  40.1715088
  27.2335167  44.6131210   5.5851946  27.8562012  45.2757034   5.8843284
  26.7929249  45.0183754   4.8382816  44.3721581  44.6832161  72.8456116
  43.7017288  45.0969086  73.3893204  45.0368118  44.3881416  73.4680176
  46.7714958  23.0363235  67.5229950  46.9113350  22.3084621  66.9172745
  45.8894653  23.3491249  67.3219833  21.4667053  30.8680058  76.9281998
  22.2749901  30.4313450  77.1969681  20.9566593  30.1829224  76.4960632
  81.9064255  36.5696449  88.4785004  82.6723251  36.5247154  87.9061279
  82.2247467  37.0017815  89.2710724  21.1160183  44.6548576  88.9439087
  21.0468655  44.1405373  89.7482224  21.5763912  44.0810356  88.3315201
  76.9256210   7.5614362  20.8220825  76.9924545   7.8636894  19.9163189
  77.8043976   7.2475595  21.0352993  65.7418976  26.5203934  67.4501114
  65.8415833  25.5907154  67.2451859  66.3738251  26.9601345  66.8813171
  45.9299660  14.7749310  78.7055588  46.1821861  15.2025070  79.5239716
  46.6855965  14.2345104  78.4749069  36.3117561  46.8641205  32.0673370
  36.1178856  46.2995262  32.8155861  36.9806595  46.3881683  31.5751228
  59.4642525  30.6216793  34.3767891  60.1102600  29.9173870  34.3231392
  59.0384178  30.6219025  33.5195274  61.3548698  29.4437237  87.1361923
  60.5210075  29.1231461  86.7924805  61.8148460  29.7847919  86.3691711
  26.6441231   5.4522543   1.5225062  26.6820107   5.7022257   2.4457130
  25.7709007   5.0761318   1.4118514  33.8385658  58.4561462  84.6969299
  33.5519295  58.9650078  85.4553070  33.9666634  57.5706787  85.0371780
  27.7065144   2.6853263  51.6818008  27.7043076   3.4008861  51.0460320
  28.4497623   2.8757322  52.2541275  69.1231155  49.0044670  62.2684555
  69.5125885  48.8043327  61.4172859  68.4592743  49.6672974  62.0781860
  71.1452713  25.2243862  30.2887764  71.3084030  26.1283321  30.5580349
  71.9091339  24.7397327  30.6015949  56.0211105  55.0352325  43.0858078
  56.4021645  54.3673782  42.5157166  56.7725525  55.4284019  43.5296326
  58.1902733  25.0360298  79.8900223  57.2673492  24.8463116  80.0587006
  58.6114883  24.9562912  80.7458572  61.1413422  21.6642094   0.2933894
  60.7358513  22.2958260  -0.3006395  61.6047859  22.2023392   0.9351614
  17.9406395  44.2934074  24.5892639  17.6759396  44.6378555  23.7363148
  17.4866924  43.4536552  24.6598091  37.0345497  54.3232307  79.0196991
  36.9654732  55.1351318  79.5219727  37.0266190  53.6311378  79.6808929
  38.3509521  67.0886993  81.8022079  38.8544121  67.2287064  82.6041794
  38.2377205  66.1394882  81.7531433  76.7908936  12.6508722   4.0690913
  77.5546646  12.4133921   4.5949078  76.5170975  11.8299408   3.6600230
  45.0909004  17.1599636  75.5149994  45.6792183  17.1015892  76.2677994
  44.5629692  17.9404182  75.6835556  44.6187859  62.5055008  61.9696007
  44.9190521  63.1211891  61.3010178  44.6479454  63.0050201  62.7856026
  83.7620926  62.6999168  86.2744141  84.0139236  62.1977768  87.0494461
  84.4580536  63.3492355  86.1731567  57.2900887  36.7145042   6.8815155
  58.1561012  36.4214935   7.1650543  57.3243370  37.6683388   6.9540324
  85.5863571  44.0693321  54.1360130  85.8834152  43.2694664  53.7021866
  86.3711090  44.4180794  54.5588264  64.0245285  30.0540619  60.0340843
  64.9799576  30.0979691  59.9959831  63.8406563  29.4768238  60.7751770
  79.8596268  47.3800812  74.0986481  80.0285187  48.2954254  74.3219223
  80.7008438  47.0518837  73.7810287  12.8253088  42.6268234  11.4024725
  13.4493456  42.2633781  10.7742081  13.0524445  42.2104111  12.2338820
  82.3849945  27.8020058  14.6728973  82.1538696  28.2382450  15.4929638
  81.5585632  27.4403820  14.3527842  77.1539688  52.1880760  40.4161949
  77.4746170  51.8293304  39.5887184  76.9743576  51.4190369  40.9570694
   7.3330626  60.4273262  49.0628357   6.4812922  60.0090027  49.1882324
   7.6143255  60.6673393  49.9457397  59.4465179  68.0139236  48.2456627
  59.4668045  68.9194336  48.5552979  58.5569191  67.8943634  47.9131660
  78.0746460  46.8261108  14.6820288  78.6087189  46.1571541  14.2536612
  77.3382874  46.3418083  15.0554686  80.7967300  69.0753937  19.8643818
  81.4783325  68.6074982  19.3819656  80.2166519  69.4202499  19.1855507
   6.7323813  41.8766327  57.4383011   7.2030592  42.6942101  57.2762375
   7.4192247  41.2126045  57.4978485  40.3813019  70.7064209  28.5242710
  40.8369255  71.1175766  27.7897053  40.1679459  69.8271484  28.2118797
  79.0158234  14.7443647  60.6512032  78.2118759  15.1691647  60.3521271
  79.2938690  14.2081127  59.9086723  27.5914288  21.2574463  12.7235498
  28.2520523  21.0429974  13.3822002  27.8657665  22.1063728  12.3767147
   6.8576903  55.9131241  51.3631554   6.8418474  56.5241508  50.6265221
   7.1748796  55.0922318  50.9866486  59.8426628  55.3234329  24.3905697
  59.0369987  54.8177338  24.2837677  60.1751862  55.0654564  25.2502842
  30.1020870   4.0497994  71.5649261  29.5249176   4.4255667  70.9001617
  29.9778595   3.1042237  71.4831619  65.0030670  15.4434929  21.4942417
  64.4156265  14.8969240  20.9723167  64.8555832  16.3317070  21.1693478
  70.1360397  27.6528416   3.6672323  70.0790176  26.7287617   3.4242153
  69.4686203  27.7640686   4.3442903  42.8453827  47.7203217  31.5266209
  43.2435646  48.5381737  31.2286263  43.5283508  47.2970352  32.0468330
  50.1653061  66.4548187  62.8314285  51.0864983  66.3434830  62.5963936
  50.1057129  66.1267624  63.7286797  37.7088470  46.5638351  74.5284042
  37.2350616  45.8330269  74.1313171  38.3571663  46.8147583  73.8704147
   6.0140233  11.5037651  80.8515396   6.1666365  10.5628395  80.7643661
   5.4089818  11.7151566  80.1405792  36.7213554  10.9304485  78.6516266
  37.0242691  11.8378887  78.6836853  37.5095177  10.4092979  78.8047028
  75.1157227  27.8188496   1.2109268  76.0364990  27.7019367   0.9769825
  74.8158340  26.9415741   1.4490217  65.1092453  65.9454193   0.7586794
  64.8323059  66.1080627  -0.1430306  64.3116760  66.0519562   1.2771046
  82.3137589  56.5626030  57.0586166  81.4740906  57.0214767  57.0836411
  82.0868454  55.6599617  56.8350487  23.9651775   6.0393219  58.6464577
  24.7327843   6.0907969  58.0769310  24.3237286   5.8634257  59.5163612
  58.2821846   9.8588686  88.6835175  57.4718399  10.3458948  88.5339127
  58.0878563   9.2947168  89.4319839  58.6679726  68.2331924  45.2509308
  57.9232101  68.5226974  45.7779465  58.8698959  68.9820023  44.6899185
  36.5634003  62.5163803  63.5430946  36.5706100  63.4732208  63.5683060
  37.0437546  62.2524796  64.3278503   0.4437545  36.8540993  53.5606613
   1.1279385  36.6466751  54.1971359   0.0398438  36.0099220  53.3595314
  71.6095123  63.5581360  56.6138802  70.9320755  63.3143654  57.2446632
  72.1841965  62.7937813  56.5722275   8.0055017   0.0813990  72.3815994
   7.3277102  -0.2134311  72.9897995   7.5448718   0.6553749  71.7695541
  38.2579803  65.4876556  57.2810020  38.0388336  64.6105499  57.5954704
  37.4108734  65.9004059  57.1128387  59.6020775  31.4256897  58.8893356
  59.8061752  30.7012844  58.2978859  60.4287071  31.6113682  59.3347969
  11.0177565  39.6582489  36.9684830  10.8778648  40.2006073  36.1922684
  11.2419338  38.7952156  36.6204185  42.5652771   9.6821547  83.1057434
  42.2748566   9.1811199  83.8678818  42.9626427  10.4708767  83.4748688
  82.6885071  33.5546722  29.1762810  83.0598602  34.3099747  29.6321831
  83.4441910  33.0053139  28.9680023  27.4722462   7.9619284  22.1852207
  27.1523151   8.3239861  21.3589096  27.6544781   7.0428619  21.9894161
  25.3956089  71.4513092  15.2080984  24.8129635  72.0254745  15.7051783
  24.8119221  70.9606247  14.6295013  17.6601543  35.6491585  71.5266418
  17.7108307  34.9772186  70.8468170  18.5546284  35.7206841  71.8598557
  85.0464020  57.2590141   2.6772799  85.7664719  56.9276924   2.1406612
  84.2814560  56.7642250   2.3835530  66.3895416  26.4737473  88.8924561
  66.5889740  25.6915379  89.4068604  65.5086060  26.3182583  88.5518646
  76.0182495  18.9100800  80.4832840  76.4040375  18.5741978  81.2923508
  76.5167313  19.7045498  80.2920532  53.2903023  56.7176933  88.3635941
  53.7708855  57.1691628  89.0574570  53.9150047  56.6554070  87.6410294
  85.1860275  61.9620476  16.0579453  84.8715744  61.2565842  16.6233425
  85.1681824  61.5887260  15.1767282  28.6336517  67.2834091   0.8191510
  28.3022728  66.5208893   1.2934759  28.2039909  68.0302124   1.2361796
  67.5573349  27.6729126  74.6367035  68.1796188  27.3058968  75.2646408
  67.9940033  28.4531097  74.2948761   9.5135546  56.3041611   7.8456645
   8.9077702  56.5697136   8.5375729   9.0847912  55.5589104   7.4249525
  66.2045670  50.1159859  32.1249428  65.7417145  50.5337257  32.8512344
  65.8109131  49.2459869  32.0588150  48.7875595   6.0917716  26.1548023
  48.6762199   6.2724152  25.2214203  49.7355537   6.0911331  26.2872181
  79.5169754  34.8187828   9.6494894  79.5197601  35.7660713   9.5121431
  79.6394424  34.4495964   8.7748842  69.1921234  31.1664257  33.1782799
  69.4153214  31.9565029  32.6861534  68.6167831  31.4748459  33.8783493
  11.4156227  56.6813431  69.7652969  10.7155333  57.1952095  70.1678467
  11.0561361  56.4060936  68.9219437   4.9964857  30.5188007  44.6226654
   5.6063418  30.0903435  44.0220528   4.9928598  31.4353886  44.3468285
   4.3827939  32.3142815  50.6516724   5.2007995  32.6352844  50.2721252
   3.9338415  33.1032295  50.9553795  52.4793625  55.8666306  36.7517891
  52.7975044  56.6508331  37.1990509  53.0234184  55.8011856  35.9669609
  79.8234482  38.5933533  60.2423897  80.1967392  39.4553566  60.4263420
  80.2454681  38.3183327  59.4284515   5.4911518  58.7812157  66.5988464
   5.1134343  58.7499237  67.4778137   6.0549273  58.0090332  66.5527954
  72.0529175  53.2178574  34.8921204  71.4124756  53.7578239  34.4289742
  72.8995895  53.6013908  34.6634827  41.8401566  64.4071655  11.2388411
  42.1874352  64.7209625  12.0738039  42.6096306  64.3234406  10.6756945
  51.4932938  20.3018379  28.1141834  52.3526649  20.6538525  27.8822479
  50.9362564  21.0742226  28.2109699  37.4658890  36.3212128   9.1341295
  37.8885078  36.8147011   9.8370485  37.9832115  35.5192719   9.0599499
  17.9958191   9.3736334  77.5595932  18.1046333   9.0697136  78.4607162
  17.0694141   9.6057482  77.4953308   2.7230349   5.4088345  49.8910065
   1.9125841   5.9019723  50.0183525   2.6458309   5.0447860  49.0091133
  80.2139130  11.0676727  31.9870987  81.1693039  11.0588112  31.9288940
  79.9331131  10.3440552  31.4269581  77.7786560  36.9921722  53.2164497
  78.2805405  37.7726326  53.4514465  78.3596497  36.4992676  52.6370316
  62.7955132  58.7930565  55.1357460  62.8792229  59.6478195  55.5583649
  62.9509621  58.9684792  54.2076836  50.7740173  11.8928823  72.3974304
  50.8042793  11.5591707  73.2940598  51.4348831  11.3824854  71.9294739
  33.5745659  60.2701416  30.9446220  32.9601402  60.7922325  30.4287376
  33.8377495  59.5610619  30.3579597  10.8169775  51.2045937  11.8284245
  10.2323523  50.4836388  11.5946064  10.9395418  51.1166420  12.7736626
   2.1785502  11.9075174   8.0381556   1.8929372  12.4672203   8.7602291
   2.2189412  12.4935341   7.2823877  43.5821953  63.4815254  31.5209122
  43.1860847  62.6611443  31.2271385  44.3715897  63.5710297  30.9869862
  73.8577423  12.2377024  38.6044159  73.5281677  12.8419657  39.2696075
  73.0723877  11.9219437  38.1574860  53.7931976  38.1356354  88.7789383
  53.7457008  37.4155045  89.4077377  52.8806572  38.3196144  88.5561066
  77.8294983   5.4702258  79.2819824  77.8480453   6.4271035  79.2654800
  78.5733109   5.2068696  78.7401199  19.0703220  62.3901405  75.6383667
  18.3164539  62.9353447  75.8634567  19.5302792  62.8854446  74.9606171
  73.2667694  34.9521675  30.2623253  72.5853424  35.4135933  30.7511692
  73.7835236  35.6482849  29.8565979  81.9155579  31.6485329  70.0574799
  81.6856079  30.8893108  70.5931473  81.2582245  32.3074036  70.2811584
  41.0154572  70.0234680  65.3632965  41.8030357  69.9726944  65.9049377
  41.2776260  70.5500412  64.6081696  78.5253677  69.4334488   0.6785057
  78.3561096  69.2367859   1.5998676  79.4718857  69.3291092   0.5812824
  18.8504143   1.4527539  51.5989265  18.0966873   1.5106921  51.0117531
  19.5817719   1.2186927  51.0274696  73.5830460  45.9489479  33.3463669
  73.6757584  46.7089806  32.7719193  74.0252991  45.2402000  32.8791161
  50.9020119  17.6402225  76.6330948  51.2411385  17.5046082  75.7483139
  51.3491287  18.4278526  76.9428635   1.4655714  16.1372013  41.6706314
   1.9217807  15.9412251  42.4889793   2.1621821  16.3773251  41.0596428
  85.6840973  29.9774647  48.4289360  85.8779221  29.5752602  47.5822411
  85.1456070  29.3300228  48.8839912  68.9380112  27.7233677  18.4917068
  69.8266830  27.5895252  18.1621895  68.5210266  26.8655300  18.4113102
  76.5142288   6.4227877   9.8233223  76.9452209   7.2027655   9.4738760
  76.5026550   5.8069782   9.0906038   5.7269416  68.8593445  44.3710785
   6.2766862  68.0763245  44.4009361   4.8370352  68.5232849  44.2644882
  18.8910675   3.6143823   0.9264907  17.9545975   3.5940223   1.1235694
  18.9861507   3.0530460   0.1570150  36.8656998  46.9992981  55.2816772
  36.9703522  47.9406052  55.4203148  36.0498772  46.7801437  55.7318268
  22.7065639  47.1354866  55.0730438  22.9984951  46.9120750  54.1892471
  21.8327503  46.7507095  55.1410789  72.4961624  70.4408875  23.0806198
  71.9596100  71.2328644  23.0473232  73.2382507  70.6775513  23.6369667
  70.2131729  44.7148323  29.1350517  70.0903168  44.0566101  29.8190689
  69.7947159  45.5024338  29.4826221  19.4629116  58.1943817  16.8150826
  19.2779675  59.1185150  16.9824314  19.5548573  58.1369209  15.8640423
  70.8172989  47.4554367  49.5803452  71.7505417  47.6274796  49.7056313
  70.6780624  47.5632973  48.6394882  33.6875648   9.9737358  19.7578697
  34.3418999  10.4784050  20.2409763  33.0482407   9.7135468  20.4210396
  81.7691498  56.3499565  49.2798042  81.5214310  57.0026970  48.6249771
  81.7265701  56.8187103  50.1132851   8.6079330  24.6577740  85.9654465
   9.5629845  24.7205257  85.9785233   8.4267654  23.7301025  86.1165619
  54.8579140  11.1969519  76.9133072  55.5842819  11.5607471  77.4195480
  54.6602554  10.3644199  77.3423233  45.0393028  53.9909821   7.7104306
  45.8612518  53.8521461   8.1809149  44.4581490  54.3919373   8.3567514
  84.2710648  37.1860542  61.9403038  84.4010849  38.1052856  61.7071915
  83.3718948  36.9959793  61.6727486  72.0607834  48.9592400  70.6350250
  71.8056183  48.0784378  70.9094620  71.8392563  49.5162239  71.3813019
  61.7821846  37.0643578   1.3146173  61.0235405  37.6062393   1.0976897
  61.5643959  36.6754799   2.1617148  26.5537281  56.4590912   6.5429459
  27.0602932  57.2513847   6.3643422  26.6873150  56.2947464   7.4764214
  17.4393234  44.8987350  33.1864166  18.2887726  44.6616859  33.5585403
  17.0927773  44.0772667  32.8381004  71.9979630  36.5769920  24.3509312
  71.6786194  35.6862259  24.2067318  71.2902451  37.1391182  24.0356960
  56.7544022  11.1218491  64.0865250  55.9566307  11.1658945  64.6136475
  57.3552475  10.5872822  64.6056213  73.9237900  22.9584999  74.0545044
  73.6933517  22.1165218  74.4471893  73.1985626  23.1522923  73.4606018
  50.2809410  40.4229126  66.9399490  50.0211067  41.0383186  66.2543945
  51.2317238  40.3547211  66.8527908  56.0758057  31.6028919  13.5205040
  56.8422356  31.1253414  13.8379345  56.4227867  32.1982193  12.8561106
  10.8084822  26.1227493  29.7438087  11.7051811  25.8318291  29.5778961
  10.5405664  25.6393147  30.5253105   2.5623646  64.9075699  18.0706463
   2.1083076  64.7307739  18.8945427   2.3420391  64.1628265  17.5111446
  13.4190311  32.6132393  84.5480194  12.9207745  31.9890728  84.0204010
  12.8140249  32.8776855  85.2410355  70.9999619   5.2919478  49.1087341
  71.1265106   6.0183220  48.4983253  71.5567551   4.5922780  48.7671547
  57.9956741   0.2710965  53.4026756  57.9022369   1.0024235  52.7922134
  58.8661423  -0.0830478  53.2207336  37.3083992   1.1998792  64.7218094
  36.4314079   1.5441246  64.8909683  37.5754433   0.8060731  65.5523682
  38.2257118  66.2014313  68.6353760  39.1586990  66.2390671  68.4247894
  38.0227509  65.2662659  68.6576996  24.1484642  18.7078228   0.1032244
  23.2925625  18.3989162  -0.1938314  24.2910824  18.2553596   0.9345903
  14.1801004  53.8932076  15.7933512  14.2118578  54.6890907  15.2625074
  14.4695988  53.1988449  15.2015057   7.4916081  25.6931419  17.6233444
   8.2519941  25.9064732  18.1642094   7.2368870  24.8142490  17.9042282
  55.6863441  40.8970108   5.0757332  55.4871178  41.8328209   5.1041088
  55.5056267  40.6409760   4.1712890  37.5809174  58.7350464  72.1017838
  37.6258812  59.4823112  72.6982803  38.3447495  58.8357086  71.5337524
   2.0304544  65.7021713  85.4222641   1.8630850  65.6782990  86.3644180
   1.7522463  66.5771713  85.1516800  67.9593658  64.7285461  82.7033844
  67.5130692  63.9471664  83.0297241  68.2722778  65.1724167  83.4916153
  86.9823532  63.4959717  36.4639854  86.7120209  64.4136124  36.4969177
  86.5815582  63.1002808  37.2379532  86.4951553  22.9862041   4.8266821
  85.5549927  22.8607883   4.6978784  86.8275986  22.1121731   5.0310974
  73.9449539  30.0028648  75.8759460  73.8389740  30.6562252  75.1844788
  73.4260406  29.2548523  75.5802460  69.4041977  45.9439163  26.7512646
  69.4561005  45.2955208  26.0490379  69.4203339  45.4266739  27.5565205
  80.0391769  56.7585907  37.6583786  80.4040222  56.9135208  36.7871017
  79.3782806  56.0793381  37.5239792  13.1001387   8.7849636  68.3777390
  13.7977829   8.3032265  67.9333801  13.5296316   9.1857634  69.1334686
   9.2379951  45.3549995   8.6178598   9.4733047  44.9179268   9.4362917
   8.5009394  45.9194374   8.8510799  68.5259171  13.5952730  74.9045029
  68.6837540  13.4233408  75.8328094  69.2156219  14.2099638  74.6541061
  29.9732590  56.6189995  52.1226006  29.5455837  56.5175514  52.9729156
  29.7667503  57.5148277  51.8559914  57.7813683  22.0771999   6.9316301
  57.6676025  23.0093536   6.7462225  57.0479622  21.6531219   6.4860954
  47.2905159  51.0160751  46.9186287  46.6787682  51.4796295  47.4905663
  46.7318382  50.4889603  46.3474350   0.1524441  12.7682638  83.6698608
   1.0742019  12.8554487  83.9127502  -0.3019197  12.6280766  84.5006027
   6.5341496  10.5916119  69.3592148   6.8187504  11.4024267  68.9375305
   7.3472691  10.1299381  69.5639725  86.2888412  12.4160395  58.3299370
  86.5716934  12.8390656  59.1406631  85.7778778  11.6602945  58.6197624
  31.6776943  10.4247761   5.4556890  31.4503765  10.1055555   6.3289914
  31.3656864   9.7416229   4.8622379  83.4110031   9.6397581  19.9270954
  84.3475494   9.6583405  19.7302036  83.2953415   8.8582726  20.4675922
   2.0236549  28.3498001  47.4318047   2.5413105  27.5845261  47.6820488
   2.6634560  28.9649601  47.0733871   6.3503556  64.5292130  27.3109970
   6.3519506  65.4281387  26.9821167   6.5662727  63.9943199  26.5471249
  16.9389839   1.4551027   7.1553135  16.5543938   0.5790848   7.1250744
  16.4909496   1.9374925   6.4604783   3.7481375  44.4776344  39.7404709
   3.1477249  44.7314873  39.0395470   4.3613276  45.2095871  39.8073807
  85.0727997  61.3116379  32.6567154  84.4775162  61.8429565  33.1854668
  85.9456253  61.6329880  32.8828621  35.4391632  55.8565826   4.2716522
  35.2489777  54.9246178   4.3789296  34.7177391  56.1882668   3.7370827
  18.2450180  59.6217537  75.6393356  18.7129707  59.3956642  74.8355103
  18.4864883  60.5323181  75.8090134  43.7384415  61.0621796  43.7777901
  43.4209557  60.8979721  44.6657486  43.0926704  60.6406479  43.2107582
  56.5389786  18.7536812  10.8651648  57.2189636  19.2492466  10.4088039
  55.7284164  18.9861088  10.4121723  45.9585800  46.4145012  56.7025375
  46.3542290  45.6007614  56.3902512  46.6304703  47.0798950  56.5540619
  54.1636009  34.1256561  34.8369980  54.6273422  34.9469032  34.6735001
  54.3249283  33.9395447  35.7619667   9.9928083  45.8748131  11.3354187
  10.1830034  45.1116219  11.8809395  10.7120113  46.4810982  11.5126133
  47.7126846  57.3111763   4.6055579  47.1557770  56.7093201   5.0993719
  47.5196724  57.1179733   3.6881428  28.9869690  66.3432770  41.0034256
  29.7379513  66.4962692  40.4299698  28.5001583  65.6377258  40.5774612
  36.7806664  19.6540031   5.5100365  36.6345787  20.4685936   5.9910088
  36.7601395  19.9128609   4.5887313  76.6127014  24.7501831   9.9601765
  77.0569458  24.7820015  10.8074484  77.3210831  24.6728573   9.3210773
  65.5289917  22.1455727  83.8505325  65.6244354  22.3644218  82.9235916
  66.4239273  21.9931965  84.1540375  35.3431091  15.2726650  14.6584053
  35.2953873  15.8911886  15.3873653  35.7171059  14.4792442  15.0416031
   4.3507123   5.0704103  76.8757172   3.5789688   5.6366038  76.8840027
   4.5360274   4.9045658  77.8000488  23.0925217  57.2112694  55.1390495
  23.6705265  56.8357315  54.4748840  22.9304276  58.1052208  54.8377075
  63.4948120  51.4307861  74.4370117  63.5006180  52.3524818  74.1787949
  63.1993980  50.9647827  73.6548386  26.6868839  62.9558258  35.9912338
  27.6272163  62.7892380  36.0564690  26.5050716  62.9378281  35.0516319
  76.6331253  40.3883514  47.4212685  76.3571625  40.8310242  46.6186981
  77.1348114  41.0490150  47.8988266  83.6438446  51.1721077  64.0273590
  84.5408936  51.2472115  64.3527756  83.3803177  52.0733070  63.8413010
  61.9216080  42.5180779  58.1426849  61.2142830  41.8791695  58.0548210
  61.7936974  43.1194153  57.4090195   0.1542861  59.1371269  80.7223740
  -0.3838066  59.9106674  80.8906631   0.4207188  58.8370247  81.5913849
  71.5656586  49.2279549  57.6565208  71.2606659  49.8824310  57.0281334
  71.4587708  48.3920288  57.2026062   9.1328020  39.6353798  86.4576569
  10.0003386  39.3897514  86.1362839   9.1722088  39.4744568  87.4004059
  56.5279465   6.2343950  50.4957504  55.9215240   6.9016709  50.8170395
  57.3035927   6.3295803  51.0485077  64.8516922   8.5560770  26.8151188
  64.5130005   9.4421301  26.9432926  65.7507324   8.6847277  26.5127697
  75.2175140  31.2333183  26.0955925  74.6750259  31.9506302  26.4233246
  74.6918564  30.4475822  26.2457142   4.3749580  67.7862549  25.3499012
   4.7386661  67.5182037  26.1937599   3.4366877  67.8823471  25.5131416
  50.4999580  29.6832218  20.9429779  50.4000435  30.5435543  21.3505039
  50.3654747  29.0620766  21.6587448  78.5102844  50.1400528  87.6485062
  78.6073914  49.5247231  88.3752518  78.1547775  50.9322624  88.0513000
   2.8911512  26.9123898  78.2742310   2.1281924  27.3156414  78.6883774
   2.9307902  26.0329285  78.6500092  79.8831253  43.1182938  73.0337448
  80.7675858  42.7618790  73.1170273  79.6613083  42.9954185  72.1107407
  47.6460991  39.7018433  83.2922211  46.7162933  39.9288864  83.3043900
  47.8469696  39.4661751  84.1979523  69.8049088  16.2832394  46.3286858
  69.1424179  16.9678898  46.2360077  69.5054626  15.7591972  47.0716133
  68.8982010  45.5416260  10.0003233  69.2003632  45.3311653   9.1167860
  69.7019577  45.6597748  10.5065346   1.2445279  50.2405472  34.7077866
   1.6676023  50.6750298  35.4483719   1.9229386  50.2013588  34.0336533
  28.5295200   0.7667105  78.8913651  28.5059891  -0.1728297  78.7098618
  27.7849846   0.9168362  79.4739075  62.4296150  18.9553471  72.4743805
  63.3672791  18.8499203  72.6353149  62.3796272  19.3723240  71.6142273
  57.7970352  14.9675083   8.9527893  58.5299835  15.4101496   9.3806820
  57.9372406  15.1206808   8.0183849  16.9287319  70.8984756  28.4558716
  17.5176735  70.3903580  29.0137234  16.7560196  70.3275604  27.7072296
  61.0246239   3.5408130  78.0536346  61.1043701   4.4868808  77.9318619
  60.2950516   3.2872076  77.4882660  28.0739899  25.5892677  18.6329594
  28.3304920  26.2675743  19.2577305  28.7482147  24.9155064  18.7206993
  84.0462189  62.7151604  55.5127716  84.4983368  63.1884270  54.8143158
  84.4850006  62.9964371  56.3156319  25.1522789  54.3339348  86.2932816
  24.5607948  55.0854950  86.2541122  24.8014488  53.7192001  85.6488800
  26.8868179  27.4015484  16.9334297  26.5613766  26.7293777  16.3346767
  27.4240856  26.9212875  17.5634518  75.7664566  62.5734596  87.7467880
  74.9183731  62.1973114  87.9823761  75.6656876  62.8373451  86.8322144
  48.8779984  14.5477047  66.5347977  49.2876434  14.9211121  65.7544250
  49.4133263  13.7820587  66.7432327  86.1524658   9.0855150  19.6898594
  86.5990753   8.2400646  19.7344227  86.8582764   9.7312593  19.7226772
  85.3482132  28.8841610  59.0423355  85.8855972  29.0677757  58.2717934
  84.5174179  28.5699348  58.6855812  11.3425274   7.8196483  70.1393280
  11.3116894   8.7762899  70.1284866  12.0160217   7.5944381  69.4975128
  55.4086990  68.1913528   3.6746886  55.3610382  68.3645706   2.7344995
  55.9637299  68.8909454   4.0192871  18.9082985  45.0123444  57.7603531
  18.8395729  44.0740433  57.9367065  18.0072861  45.3317986  57.8088989
  34.5691261  45.2908096   1.7767609  33.9742241  44.5738106   1.5571327
  35.0271683  45.4812775   0.9581325  50.3577003  65.7727432  73.6469116
  49.6995125  65.9519501  74.3184128  50.5940628  64.8550873  73.7820740
  12.2363853  62.9989166  40.9158554  11.3898029  63.1854515  41.3217278
  12.8360891  63.6316872  41.3110580  23.2448463  34.7695236  11.9860783
  23.0742607  34.5584030  11.0681677  22.8777409  34.0321426  12.4736633
  56.7650871   8.3094664  68.7175217  56.6101456   7.4285822  69.0585022
  57.7137413   8.4243670  68.7730713   8.9726925   6.5343218  28.0148640
   9.6018515   6.1472826  28.6236248   9.2906828   7.4265518  27.8768787
  78.2145691  20.9018192  47.5105324  78.5290070  21.1764355  48.3718987
  77.7465210  21.6650314  47.1719093   8.1915817  25.6577873   4.5404005
   7.4672747  26.1889782   4.2095728   8.8764658  25.7473450   3.8777194
   8.8499298  47.5150490  87.5539474   8.9017048  46.5937386  87.2995071
   8.3778362  47.9358063  86.8353882  60.4678802  34.1406784  78.4132767
  60.3694572  33.5924873  79.1917572  60.1723709  35.0074730  78.6918030
  22.3632355  68.8640518  70.4195786  22.3011112  69.1071396  71.3433151
  21.4598179  68.8885117  70.1041946  32.7597504  66.3091888   9.4573317
  32.6511307  66.5073853   8.5271969  32.7949905  67.1661453   9.8823061
  70.3004150  49.8113213  18.5506954  69.8165054  50.5245705  18.1343479
  71.2176514  50.0790367  18.4938869  29.5581608   0.3609430  86.6867371
  30.2086525  -0.2508910  86.3421402  29.2829590   0.8718206  85.9254913
  12.8933582   5.6740761  56.7335091  13.7147722   5.2195954  56.9204788
  13.0531235   6.1265473  55.9052734  44.4275932  54.3831177  88.0312805
  44.3136673  53.7817154  87.2953720  44.8980560  55.1294899  87.6600342
  51.2830353  22.4582844  79.8102570  52.1135864  22.3361416  80.2701492
  51.5175476  22.9373875  79.0154648  75.3513489  31.5128212  87.6173477
  74.9222107  30.6607056  87.6946030  76.2607803  31.3463364  87.8652344
  81.9311981   3.6505976  17.4642162  81.9122314   2.8473604  17.9844875
  81.2061691   3.5532725  16.8468819   2.4651804  23.6985092  86.3942108
   3.2601633  23.3702297  86.8142929   2.7812393  24.3031693  85.7228546
  38.1717148  61.8756371  40.7920990  37.6897125  61.2708282  40.2280846
  39.0294800  61.4660301  40.9047661  42.7870712  64.7049942  70.4358597
  42.5299416  65.6200409  70.3227463  43.5495262  64.7401047  71.0134964
  66.0156631  32.0448074  74.7502365  66.1530991  32.2185898  75.6814346
  65.5073090  31.2339954  74.7303772  35.3097725  60.8008804  11.6847315
  35.0626106  61.2290878  12.5043535  34.5518532  60.2620049  11.4579964
  17.4727001   0.0743659  19.4806080  17.3811054  -0.4968758  20.2431850
  18.1481819   0.7039621  19.7327271  38.9834824  20.4368954  10.5183125
  39.1366806  21.2200451   9.9896927  38.4959908  19.8496094   9.9406643
  14.1955137  43.2323418  69.4566727  14.5179672  42.4047203  69.0998764
  14.2389202  43.1170349  70.4059067  12.4830093  20.3255653   9.9514923
  12.8738480  20.1078129  10.7976961  12.8308964  21.1925926   9.7429943
  51.5142097  40.7988548  14.6341486  52.0863571  40.5634079  15.3645229
  50.6663475  40.4171181  14.8613777  75.1839676   1.6704983  53.6031761
  74.2408676   1.7185893  53.4466934  75.4649124   2.5840256  53.6558075
  49.3564568  57.6830521  19.7906284  50.2496071  57.5430984  20.1051540
  48.8936119  56.8763847  20.0171032  50.9362831  52.6596870  83.0694199
  50.8906822  51.7577133  83.3865814  50.1568298  52.7611923  82.5231705
  84.5565872  31.5050888  23.4654694  84.8292618  30.7642384  24.0067844
  83.9766083  32.0145836  24.0313950  53.6165390  28.2761459   6.1828899
  53.7374916  27.3658466   6.4529967  54.1814995  28.7775211   6.7708321
  47.3594589   3.2046378   5.0070114  46.8980865   2.4400015   5.3515377
  47.5370674   2.9851959   4.0923896  51.0813522  67.4185562  22.4467602
  50.7932167  67.1044159  21.5897160  51.3770599  68.3146973  22.2863712
  63.5519066  45.2399063  60.7640228  64.0411682  44.9150200  60.0081749
  63.9505310  46.0875626  60.9610214  60.2109108  56.3850784   0.5593021
  60.8142433  56.5671043  -0.1611767  60.2423210  55.4340897   0.6635478
  63.0903587  35.3098221  33.4060860  62.9711418  36.1637001  33.8219109
  62.3123169  34.8111916  33.6555939  83.3425522  62.9398994  34.0668297
  82.4549637  63.2463760  33.8810921  83.8512726  63.7410049  34.1919708
  11.0287476  44.7823334   2.3723366  10.9829874  45.2301941   3.2170610
  11.8446360  44.2831802   2.4097762   4.6527233  35.0303802   1.1134384
   5.4444757  35.5637054   1.1835873   4.8768430  34.3515167   0.4769267
  52.7339592  65.6538467  52.0295906  53.2153282  64.9840012  51.5439835
  52.5950089  66.3565445  51.3946571  20.5219517  55.4525757  21.7895985
  19.9067421  56.1702995  21.6391964  21.1527538  55.8053627  22.4171810
  63.3101578  48.6011963  14.8873014  62.4268799  48.3799782  15.1824427
  63.3036461  48.4117775  13.9490538  70.5794754  50.0367508  33.5829544
  70.7185440  50.9760628  33.4622002  71.0818634  49.8192368  34.3681450
   8.0051489  70.3394775   6.6129384   7.7376118  70.7126389   5.7730527
   7.4402432  70.7677536   7.2561307  51.9168396  13.4625587  67.8690338
  52.8536072  13.3908882  68.0522385  51.5850487  14.0532246  68.5452423
  19.5644073  38.0765839  30.2119255  19.6704388  38.4251595  29.3267803
  19.2286587  38.8142357  30.7212105  60.1485443  29.4456501  67.3781052
  60.0947990  29.6080971  68.3198853  59.8338623  28.5479565  67.2715530
  60.9994392  26.2891140  87.1418152  60.4937363  26.4689960  87.9343719
  60.5264931  26.7469254  86.4468689  74.0346375  36.6472359  45.9523506
  74.1822357  35.7098083  45.8271332  74.1997604  37.0327339  45.0919113
  21.1435547  43.3087769  70.2365112  22.0336895  43.0937004  70.5151367
  20.5867157  42.9907799  70.9471741  31.8488331  48.3094101  66.8353424
  31.1131897  48.9123001  66.7277145  31.4627151  47.4396172  66.7323532
  52.6194229  13.7328844  12.9380045  51.7520065  13.5326891  12.5862379
  52.5885277  14.6695309  13.1328688  21.4164104   1.5116922  25.8959484
  21.0121632   0.7009381  25.5869293  22.1990414   1.2248744  26.3665409
  74.2649078  23.7314568  37.6392593  74.5373383  24.4963112  38.1462250
  75.0723190  23.4101658  37.2378960  14.8183622   9.3919983  21.3204498
  15.0705442   9.5959682  22.2210217  15.6467419   9.3550968  20.8422680
  58.6664505  48.7361679  33.3916283  58.2929153  49.6088943  33.2689171
  58.7393799  48.3801727  32.5060883  45.8632126  61.8371391  23.2768631
  45.8065948  61.5217285  24.1788292  44.9758720  61.7372780  22.9320641
  40.1477127  22.4480801  75.9212570  40.6777725  22.3832340  75.1268616
  40.0916328  23.3875675  76.0957489  71.0867767  39.9470062  16.7413921
  71.4671173  39.4027519  16.0519276  71.6563644  40.7152367  16.7816925
  61.0436974  15.7393951   1.1482469  61.3041687  16.6331615   0.9256045
  60.2072296  15.6149549   0.6998425  52.0648117  17.3336010  38.0381432
  53.0023155  17.3094177  37.8464775  51.9763145  18.0026016  38.7169952
  79.8142090  41.5214195   6.9318118  80.6464310  41.7533607   7.3439407
  79.2884979  41.1554337   7.6430845  44.9014206  55.3684921  71.1504822
  45.4506416  54.5952873  71.0210724  44.0760384  55.1512413  70.7171555
  14.5093231  54.6739960  22.4205723  15.4214096  54.6212540  22.7061386
  14.0658388  55.1506538  23.1222496  34.6666832  52.0019760  71.8260193
  34.3377686  51.6733131  72.6626968  35.4580956  52.4894638  72.0546265
  75.5986862  69.7654572   6.4619021  76.2841034  69.2848892   5.9976954
  75.3927155  69.2173233   7.2191086  83.9908676  64.4215775  73.2581558
  83.3562546  63.7755737  72.9480286  84.7032547  64.3829956  72.6200027
  11.9209576  60.3354721  19.1498795  11.4152575  60.5892448  18.3778038
  11.3759804  60.6004028  19.8908539   5.2867289  12.8868141  71.7027359
   5.9058180  12.2196255  71.9990845   4.7334414  12.4342632  71.0661011
  84.9620361  31.7677822  31.3042240  85.6368256  31.1449299  31.5742989
  85.4138336  32.6110001  31.2711506  58.9860420  28.3079662  85.8781891
  58.4634056  27.8538895  85.2172012  58.3877373  28.9532776  86.2547989
  67.3052063  51.6752319  44.0907936  66.5277939  52.0530663  43.6795692
  67.4008942  50.8166656  43.6785545  86.0169067  24.1411285  56.3381310
  85.9356842  23.1919327  56.2450638  85.8255005  24.3085613  57.2609329
  64.0025330   8.0284910  78.5333176  63.3107910   8.6657333  78.7112122
  64.7578506   8.5592642  78.2803268  21.7466297  69.7135391   2.7131715
  21.0524921  69.6027145   2.0634618  21.5866947  70.5791092   3.0892639
  29.5308819  46.8765678  17.1821976  30.4421253  47.1189842  17.0175743
  29.5859509  46.0530968  17.6670647  15.5944958  39.7460899  31.7263756
  14.9754419  39.0571251  31.9678898  16.4529228  39.3852043  31.9479465
  27.5688705  57.4635582  50.0462074  27.8429585  56.6862030  50.5328598
  28.2644062  57.6011391  49.4031410  11.2298031  15.2612581  21.3140945
  12.0412273  14.7543411  21.2848091  11.5130482  16.1560535  21.5021019
  71.9869843  40.7761459  48.4320831  71.3337631  40.1238136  48.6850433
  72.7898254  40.2721367  48.2992325  52.1471329  23.4483433   2.6252031
  52.4214020  22.5941315   2.9588621  51.3600006  23.6600246   3.1270478
  81.7703018  34.7127342  53.3234673  81.4547806  34.8389473  54.2183113
  81.1664047  35.2216187  52.7825584  25.7364464  59.0947418  17.6291103
  25.3071823  58.2933960  17.9287968  26.3480797  59.3158493  18.3314285
  22.6809425  63.1633720  75.7530899  21.8412361  63.2222900  75.2974014
  23.2555695  63.7609215  75.2745819  50.0158806   4.3393626  28.5961266
  50.9451447   4.1899185  28.4218788  49.5611076   3.7879758  27.9594269
  57.9838448   8.2898149   1.7529792  58.4900322   8.2170076   2.5621173
  58.0473404   7.4230094   1.3519206  49.2261353  66.0834198   4.6274714
  50.1292000  66.3438187   4.4460955  48.8913689  65.7769699   3.7847080
  49.9554596   0.1807138  41.0290794  50.3354301   0.8744020  40.4899597
  49.2119064  -0.1394380  40.5183296  53.2295876  59.1905785  63.4191399
  53.9803772  58.8887062  62.9078522  52.4677811  58.8518791  62.9488525
  61.9904327   0.8834840  50.0270424  62.3753700   0.2337021  49.4389610
  61.1453438   0.5096995  50.2767258  71.5960541  -0.0651071  74.8038025
  71.4184647   0.8443055  74.5636749  71.8980103  -0.0187107  75.7109451
  57.9250793  70.6897583  27.2147732  58.5531616  70.9107285  26.5270844
  57.8954201  69.7330170  27.2136383  29.1744499   8.6062784  64.2651215
  29.9114780   9.0820818  63.8821945  29.5487556   8.1522245  65.0200806
  15.2961769  50.9537659  35.4640312  16.2313004  51.1245842  35.3518028
  14.9897041  51.6616936  36.0307274  11.4855680  67.0424500  76.4965973
  11.0047255  66.3253403  76.9098511  11.7328863  67.6148376  77.2228470
  47.1997948  40.7639351  53.7819252  46.8192062  40.7227287  52.9046059
  48.0450020  40.3226891  53.6973114  27.1773987   1.5544809  72.5393219
  26.3952847   1.0128329  72.4337387  27.1981201   1.7658961  73.4726562
   1.9986660  12.1604376  51.9660301   2.4439049  12.8892927  51.5338669
   1.9010538  11.4992342  51.2808189  17.5182590  64.4685745  17.5170898
  17.5658226  64.4346848  16.5616722  17.1695099  63.6137962  17.7700024
  62.2911263  66.6844177  50.3624001  62.4332199  66.5270691  49.4289742
  62.0788002  67.6160736  50.4186401  41.6232109  48.0067520  64.8941345
  41.9060097  47.1025620  65.0308685  42.4348793  48.4915276  64.7444229
  62.8284111  66.9092407  58.4312592  62.1686401  66.7602386  57.7539597
  63.6386642  66.5639496  58.0564308  52.5163078   3.6946886  71.4809494
  52.9458046   3.3689559  72.2719345  51.6322327   3.3299341  71.5209427
  24.8847504  16.7672977  74.5114441  24.3047180  17.1332512  75.1791840
  25.7407684  17.1512775  74.7012482  16.0665913  24.7113876  80.7450180
  15.4755774  24.7895508  79.9961319  16.4755821  23.8525143  80.6387329
  86.5314560  10.0743122  65.0890884  86.2613144  10.6156216  64.3473053
  87.4734039  10.2261639  65.1659317  11.5988369  51.7132301  72.5224152
  11.7624130  52.6124535  72.2380295  10.6464472  51.6221199  72.4926758
  80.1002579  33.1870956  26.7261677  80.2160568  33.8007736  27.4515800
  79.5852814  32.4710541  27.0980816  19.3547096  26.5757236  33.2898369
  19.8407745  27.3917370  33.1711235  18.4363422  26.8448086  33.3104897
  45.8791809  70.2917480  86.9214172  46.2997131  70.7057877  86.1677856
  45.3083992  70.9711456  87.2803802  39.8717651  70.0594788   5.5099120
  40.5428085  69.4911270   5.1318717  39.7624817  70.7609100   4.8678241
  61.0731964  61.0540810  31.2083569  61.5117531  61.9040527  31.2463245
  60.8191071  60.9564476  30.2906742  26.5708885  65.8979416  49.7679482
  27.1677628  66.6443100  49.8218765  26.3653717  65.6892853  50.6792450
  72.0100403  10.2142782  37.3694191  72.5529861  10.2036419  36.5811729
  72.1524963   9.3566618  37.7699623  84.2865982   3.6854799   9.5076551
  84.1117706   3.1245332  10.2633038  83.5727768   4.3231878   9.5125008
  85.1281128   6.4662142   5.1542535  84.6492844   5.6817260   4.8867955
  85.1757431   6.4041371   6.1082506  28.0690002  17.4945679  15.2940674
  28.7665195  17.8168869  15.8648624  27.7242603  16.7255535  15.7479448
  66.7001724  37.1879272  76.4554520  66.9105530  36.7424393  75.6347733
  66.0142517  36.6500397  76.8509598  21.8649559  33.5578804  79.9932251
  21.7646236  33.1243095  80.8406754  21.2428818  33.1100273  79.4199142
  51.9891510   8.7385025  39.5911293  51.9760399   8.5168552  38.6600380
  51.1688843   9.2098856  39.7366982  74.4890137  68.9535751  42.1898117
  74.7388153  68.1865997  41.6744690  74.9105759  69.6887817  41.7448425
  27.8155689  27.0568600  57.1827736  28.0444164  27.8091583  57.7285805
  27.6485519  27.4306583  56.3175468   8.6538954  60.1637230  59.8404999
   8.8846598  60.2367134  58.9144020   8.4453487  59.2375984  59.9630966
  56.2498016  12.4272299  43.7300224  55.3994980  12.2660427  43.3210793
  56.8673744  12.4464798  42.9989548  64.9864502  41.8348045  10.3613749
  65.3685226  42.6915398  10.5517921  64.8521271  41.8377457   9.4136505
  80.5034180  10.6741743  76.2239685  81.0562057  10.7809334  76.9980850
  80.8850937  11.2640705  75.5739059  46.2634354  27.0459118  82.8547821
  45.9838600  26.3160629  83.4074020  46.3388901  27.7866211  83.4563522
  20.5240707  50.3153152  27.6218090  20.6453209  49.3980217  27.8669643
  20.4085159  50.7725830  28.4547482   9.6438017  64.8778000   0.3062299
  10.1470337  64.0636673   0.2930494   9.8182421  65.2532501   1.1692698
  49.8352661  21.3382702  62.8328171  49.1300964  21.9797935  62.9189415
  50.6033096  21.8572044  62.5939751  60.1937981  56.2864227  57.1299667
  59.5800667  57.0199928  57.0920601  59.8041115  55.6187057  56.5655823
  33.5245209   7.6126928   2.2076497  33.5462608   8.5581446   2.0597343
  34.2813606   7.2775850   1.7268922   2.0840135  11.8118076   3.2353470
   2.4016414  10.9186621   3.3681426   2.8208160  12.2705059   2.8316760
   9.2880297  40.6733398  30.1283131   8.8520479  41.4005203  29.6840630
   9.2679377  39.9577980  29.4928417  30.1186085  54.8322449  47.3708534
  30.6523724  55.2205849  48.0640526  29.7143345  54.0671501  47.7800331
  11.7369394   4.7849321  20.9264755  11.4574194   4.8197360  21.8412914
  11.1664095   4.1286116  20.5265121  48.5903244  68.1054382  37.1013107
  47.8269196  68.5624161  36.7482986  49.3137817  68.3753357  36.5356255
  77.1594925  55.6138153  40.3286247  77.6001434  56.4485397  40.4876823
  76.8030319  55.3648415  41.1813736  73.4544830  10.7512407   6.0483623
  72.8628769  11.4897852   5.9041967  73.9901505  11.0158892   6.7961974
  76.5507431  31.0171890   8.8799973  77.3086014  31.4889736   9.2254076
  76.0039520  31.6974106   8.4868660  59.9765625  41.0848808  55.3582458
  60.0802994  41.8610153  54.8077126  60.3334808  40.3689499  54.8326225
  21.4793243  41.4544449  39.1033936  20.5394135  41.4050522  39.2776375
  21.5794792  41.0891151  38.2243423  58.4972420  33.7549248  22.7021637
  57.8794441  34.4079857  22.3734245  58.1529121  32.9193535  22.3867397
  85.2839127   5.6392770  14.4746456  85.9767151   5.7144842  15.1308508
  84.9274597   4.7601519  14.6023607  65.7398682  62.6345787  68.9941483
  66.1533432  63.0865860  69.7296524  66.1150055  63.0487747  68.2170105
  73.2028351  28.1633587  67.9948349  72.4277878  28.5974407  67.6383209
  73.7831879  28.8806572  68.2496033  73.8556595  29.2014542  88.3880310
  74.0666046  28.6090775  87.6663513  74.4280548  28.9218941  89.1024857
  23.5047073  27.7085056  88.7517014  23.8216457  26.9272118  88.2985382
  22.7962646  27.3900833  89.3111191  71.2869034  45.3265648  53.0993118
  71.8608170  46.0919533  53.0670204  71.0971832  45.1305809  52.1818008
  56.1853294  66.7206726  69.8586807  55.2442245  66.5540161  69.9113693
  56.3807564  66.6965866  68.9219513  79.1940460  43.3081970  22.4831085
  78.6538315  42.5798759  22.7896271  79.1791306  43.2325058  21.5290222
  73.2896576  40.3778191  68.3962402  73.0710449  41.2992706  68.2570724
  74.1261826  40.3976784  68.8610687  19.2435837  60.8940315  31.9128551
  19.7273979  60.8206100  31.0901985  19.7928391  60.4439812  32.5547295
   9.0201969  44.9426956  87.1608963   8.8993492  44.6839333  88.0745010
   9.0345392  44.1164513  86.6778336  76.1085358  19.3610382  46.4976349
  75.5780563  19.2057037  47.2791061  76.6805267  20.0901070  46.7374611
  17.7580700  45.9534225  70.2519531  18.2543468  45.2803421  69.7862244
  17.5188866  46.5862427  69.5747833   4.9393477  66.4826279  68.9625092
   4.0105104  66.6125412  69.1538620   5.3753109  67.2288666  69.3739548
  25.7263489  63.8634644  61.5806694  25.2613945  63.1198235  61.1972008
  25.2598019  64.0424728  62.3970757  85.5622025  59.5712891  77.1940231
  86.4680176  59.3146286  77.3668213  85.5655289  59.8623581  76.2821579
  73.9653168  64.9092407  52.6742401  74.3636475  64.8889465  51.8040962
  74.1988678  64.0668869  53.0642738  28.1022129  53.2676506  12.8415985
  28.7666740  53.9064140  13.0998726  27.2690830  53.7128830  12.9961700
   5.1873288  71.2296448  67.7403488   4.4530797  70.7166061  68.0778427
   4.8096657  71.7510452  67.0320053  41.8068657  65.6422653  47.3249550
  42.6841888  65.8649597  47.0135956  41.9569664  65.1489639  48.1313972
  81.9496002  42.0106468  84.5657578  81.8742752  41.4260216  83.8115845
  81.3396759  41.6506958  85.2096939   1.2206181  51.9724960  -0.3453323
   0.4660515  52.1606979   0.2127361   1.7282065  51.3278122   0.1475839
  39.8619614  29.8955212   2.8162444  39.1548157  29.4174290   2.3831103
  40.5924797  29.2772865   2.8352954  68.1146393  13.8903313  86.0227737
  68.1866150  14.0517368  85.0820312  67.1818008  13.7323914  86.1680069
  65.9694443  27.5121403  55.9981537  65.2037582  26.9873333  55.7646179
  65.9563217  28.2430840  55.3802643   8.8220034  57.6056213  34.6044083
   8.9467649  57.6507835  33.6564484   8.9588223  58.5033569  34.9070358
  86.3794403  69.1999130  75.7004395  86.6636429  68.2861710  75.7237320
  85.4364090  69.1615753  75.8599777  39.4898453  28.1105633  14.0284634
  40.1597214  27.4910240  14.3177195  38.6611977  27.6576843  14.1849155
  75.5070801  66.5984726  13.0824203  75.5428772  65.7171555  13.4542189
  74.7993393  67.0312958  13.5599184  82.1128006  23.4139366  35.3494415
  83.0406265  23.6483250  35.3287811  81.6574097  24.2483635  35.4616089
  58.7606163   7.8946543  75.9409180  58.3401031   8.7476997  76.0491562
  58.0461349   7.3039331  75.7025986  54.4904251  48.6352997   1.6441896
  54.4108162  49.5535316   1.3858365  53.6457748  48.2478294   1.4147058
  48.2500648  42.6414185  71.5068512  49.0532951  42.5034904  72.0088806
  48.3711166  42.1200714  70.7132721  56.4473534  25.8277683  13.9250307
  56.8355293  26.1618977  14.7336769  55.7871323  26.4794674  13.6891670
  81.9551697  68.2002869  52.8447189  81.7793427  67.6139145  52.1088600
  82.2622223  67.6224670  53.5433426  86.2211151  66.1192093  84.1083832
  85.6023483  65.4765854  84.4553528  86.7918854  65.6138535  83.5295258
  13.7144880  43.5201797   3.0688303  14.0751410  43.6818047   3.9406328
  13.5114851  42.5847702   3.0632532  46.6793060  61.1575241  73.2091370
  45.8376198  60.8584862  72.8650818  46.6354980  62.1120720  73.1530151
  47.2385864  58.2480774  22.7538338  48.1098061  57.8524170  22.7281570
  47.3942032  59.1800957  22.6010036  81.2617645  28.5499249  68.8516769
  82.1756592  28.3849926  68.6196747  80.9716339  27.7405567  69.2723694
  86.3360596  36.8000946   5.7718253  87.2468262  36.6627922   5.5112562
  86.3576050  37.5913773   6.3100066   9.3416815  61.0188713  74.6890640
   9.7131252  60.3543320  75.2692719   9.8808317  61.7955704  74.8383560
  84.8710022  43.1561584  50.5338669  84.6476212  42.2522392  50.3119049
  85.2563477  43.0998459  51.4082642  26.2448750  56.9037666  58.9065666
  26.1648140  57.3943024  58.0885239  27.1863594  56.8737526  59.0766830
  85.6414490  55.8813057  61.7875023  85.7271729  56.7225723  61.3390083
  85.2922592  55.2892342  61.1213570  42.2509346   1.5980599  74.4847488
  42.8859138   2.2869203  74.2885284  42.1360550   1.6415418  75.4340363
  84.3072586  17.6176891  34.8913803  84.5953827  17.4678898  35.7918129
  84.0870743  18.5487614  34.8621216  37.2439194  69.9067535  28.4395275
  37.9445648  69.2852478  28.2418995  37.4993286  70.2978973  29.2749977
  30.5985699  25.5470524  78.1456757  30.3892403  26.2603264  77.5426407
  31.3306370  25.0902309  77.7313995  24.9090710  48.0304794  14.1688166
  24.2819920  48.2139854  14.8683395  24.6138039  47.2006493  13.7940788
  65.0970840  42.7602768  40.2689781  64.3048630  42.2336807  40.1626244
  65.8137207  42.1576958  40.0700722  56.0568962  29.4269104  50.7446556
  55.7107162  29.1042156  51.5766792  55.5256577  30.1983051  50.5472565
   0.6761526  19.0471878  27.8820286   0.4106583  19.9643784  27.9491558
   1.5798936  19.0817738  27.5685196   6.7045321  66.0778427   4.1236701
   6.0505815  65.4522324   4.4354310   7.4732924  65.5426025   3.9267926
  23.0083694  55.9600525  50.8646965  22.2337666  56.0811081  51.4138489
  23.7060070  56.4222183  51.3293800  10.6822023  51.4644928  62.4262772
   9.7416735  51.3737564  62.2732925  11.0642567  50.6740646  62.0448494
  81.8664780  69.1564331  23.6953983  81.8226700  68.3659210  23.1574306
  82.1313782  68.8432159  24.5602398   0.9005417  26.4754086   8.3692360
   1.6655087  25.9925499   8.6821327   0.9394280  27.3120766   8.8325996
  17.7687225  50.4436951  72.8868866  17.2521839  49.6634789  73.0885925
  18.4053135  50.5003090  73.5994720  31.8370323  62.4482002  68.2299423
  31.0344677  62.7064056  67.7766724  32.1512794  63.2546577  68.6387253
  60.9757004  40.9481583  62.2716370  60.8719521  41.7987366  61.8450394
  61.8629951  40.6718407  62.0423279  83.8601837  60.3410835  84.8068390
  83.8793259  61.2226715  85.1792145  83.1550446  60.3694954  84.1601486
  25.7658062  29.0227032   4.7209215  26.5259972  29.6027946   4.7637715
  26.0944786  28.1747227   5.0194736  70.6097107  58.4892311  50.1272850
  71.3062820  58.5680122  50.7790604  71.0225143  58.7473717  49.3031578
  39.5025787  64.4262238  79.2025070  40.0687866  64.9118576  79.8023376
  39.8913727  63.5525436  79.1606369  72.9045715  64.3769684   2.3811431
  72.2994003  63.8596458   1.8497456  73.5764771  64.6675949   1.7644551
  43.6153183  47.9376526  52.9431190  43.2737541  47.0658989  52.7441025
  43.7134590  47.9448242  53.8952484  28.5472279  58.3929062   6.5297351
  29.0066719  58.8319588   7.2455411  29.0518208  58.6173439   5.7479134
  19.3776989  66.0684738  19.1280899  19.0251083  66.7329559  19.7200165
  18.6068783  65.6953506  18.7004871  21.4302025  67.3932190  55.3330421
  21.7470207  67.9669037  56.0307198  20.7727203  66.8414459  55.7567101
  65.9236832  41.0472069  56.8723869  65.6700439  40.1483459  57.0820312
  66.5560837  40.9575386  56.1594658  84.6455536  66.7997971  56.5644035
  85.4725113  66.4334412  56.8777046  84.7401505  67.7443314  56.6874352
  56.2140694  30.7844296  55.8364601  55.2641754  30.7859783  55.9545021
  56.4444618  31.7080536  55.7361298   7.0280142  27.6625118  50.2111397
   6.2673726  28.1840897  49.9549866   7.3991003  28.1312523  50.9586754
  72.6185379  57.3831215  33.5544243  72.3791733  57.6444702  34.4435959
  72.1168365  57.9702835  32.9889450   0.5449988  46.7089424  13.3759527
  -0.3476433  46.8670845  13.0686846   0.4870256  45.8908005  13.8694248
  12.3670788  47.6715202  10.5975132  12.9617682  47.2324944  11.2056541
  12.6608620  48.5824966  10.5908880  62.4812012  40.3654404  36.6931725
  62.6251907  39.4396667  36.8892365  62.3433990  40.3911209  35.7462921
  24.8644066  69.3434982  60.5375595  24.6097813  68.4209061  60.5524025
  25.6563358  69.3647842  60.0003166  57.7130318   1.4582070  62.8439865
  57.9470139   0.8770914  63.5677185  57.3399620   0.8770477  62.1811867
  26.4666500  23.5391788   5.0278082  25.5189495  23.6722660   5.0082402
  26.6127892  22.9680614   5.7819300  60.6372643  61.3106308  87.5578537
  60.9741783  62.2044067  87.6201706  61.3171806  60.8308029  87.0848694
  10.3531055  24.4139900  53.5162811   9.9377794  24.5328045  54.3704567
  10.1931362  23.4958878  53.2978058  75.3971939   4.5794606  33.7223663
  75.7636337   4.1828365  34.5127106  74.8933640   5.3281178  34.0415878
  16.7052250  62.8450394  66.6188583  17.4092922  62.2051468  66.7240143
  15.9203482  62.3161888  66.4756241  85.8116455  28.4159241  30.5183582
  84.8864746  28.4841652  30.2825184  86.2318192  29.1379738  30.0510979
  43.2318916  14.3111382  78.3930969  44.1660767  14.5067015  78.3203812
  43.0838013  14.1951723  79.3316345  75.4535141  17.9597378  61.7971001
  75.6203079  18.8506660  61.4894333  74.6331635  18.0248280  62.2859993
  75.3240967  42.4871559  15.5861378  74.4096832  42.5123863  15.8679876
  75.5411758  41.5552521  15.5604258  81.0746002   1.0408967  52.1302414
  81.7060089   1.6101002  52.5701904  80.2227325   1.4297268  52.3286591
  83.8657608  58.3736076  58.2751045  83.6331329  57.7015915  57.6343918
  83.6241608  59.1990128  57.8549118  59.3092155  62.9958916  54.0301132
  60.2475166  62.9920464  53.8408928  59.2574234  62.9669266  54.9854736
  60.1067123  14.6342964  86.8686981  60.7301674  14.2725086  86.2389069
  59.7308388  15.3941193  86.4241562  44.9484978  32.0068054   6.8743653
  45.0582504  31.7526493   5.9580731  45.0608902  32.9573822   6.8743663
  19.1939850  49.1815491   8.2366161  20.1331921  49.0187569   8.1493282
  19.1206188  49.7592316   8.9963074  40.6749268  62.9655418  71.3232040
  41.2727394  63.4518356  70.7554321  39.8796082  62.8618202  70.8007660
  37.0113754  60.7550201  48.3850060  37.7865295  60.2991142  48.7128983
  36.6289368  61.1654549  49.1605797   1.1221138   9.4073143   7.3517017
   1.6964312  10.1710196   7.2956128   1.4093314   8.9491339   8.1415176
   2.8981166  36.9691696  40.9430313   2.3578584  37.1107254  41.7204056
   2.2781692  36.6951027  40.2671700  82.6461258  44.3925591  87.0942993
  82.4472504  45.2554970  87.4576340  82.9298782  44.5698776  86.1974792
  15.3863478   6.6019897  11.7685337  15.9322014   6.7795014  11.0025282
  15.4310436   5.6523061  11.8796005  74.9406281  38.0284348  87.0183640
  74.6453934  37.1552582  87.2764893  74.5974274  38.6080742  87.6984100
  50.0655556  45.5195580  47.4688339  49.8783531  45.9662094  48.2944794
  50.8817444  45.0468407  47.6319466   8.6359921  59.6458130   9.4674482
   8.3307076  58.7712173   9.2263775   9.4797096  59.7355690   9.0243721
  67.5098495  58.1215591  74.4681244  68.1661835  58.7881966  74.6707382
  67.8735733  57.6466827  73.7208405  52.5365486  33.4049454  62.0778847
  52.0773087  33.6129112  62.8915672  51.8496933  33.0947838  61.4877434
  82.5169067  12.7581167  41.9305801  83.2143631  13.0020370  41.3220711
  82.3804321  11.8233557  41.7762146  51.2080231  14.5874329  72.5652924
  50.9148788  13.6857948  72.6969910  52.1596527  14.5461016  72.6597595
  18.0135098  29.7193394  13.3036461  17.2693195  30.2523270  13.5835352
  18.6788292  29.8649597  13.9762354  21.1806107   0.9581460  49.9426346
  20.9351768   1.4883460  49.1844254  21.8679638   0.3773473  49.6163673
   9.6011496  17.4975739  61.9086838   8.8493433  17.1271820  62.3711014
   9.6483107  17.0009346  61.0917664   8.8157558  42.7977600  73.3913116
   9.3553238  43.0599594  74.1371994   9.3760338  42.2090607  72.8855896
  68.6732788  54.9479065  82.4262543  69.2236176  55.2285881  83.1574097
  67.9535446  55.5787849  82.4122467  51.8213921  65.1505508   8.2336588
  51.9370880  65.5343246   9.1028910  52.6892395  65.1994400   7.8328075
  55.0811272   0.4974027   7.2148209  55.4142151   1.3310812   6.8827596
  54.5946922   0.1240066   6.4798460  16.1897011  59.3172836  56.6486549
  16.7675037  59.9836960  56.2768097  16.5679150  58.4857712  56.3626900
  64.5948029  66.7967300  30.5390663  64.4131775  66.3707123  31.3767700
  63.7380180  67.0894928  30.2285137  60.0984802  28.4987526  75.6776428
  60.6711655  28.0858002  75.0313263  59.6854019  29.2212219  75.2047424
   0.7402664  67.0183868  60.7627754   1.5635240  66.5313568  60.7269325
   0.9850780  67.8776703  61.1061707  76.8548279  43.5909843  41.5066643
  76.6450272  44.3806534  42.0052986  77.3510437  43.0465431  42.1178818
  40.4123421  66.0501404   5.8310361  40.7418785  65.3605194   5.2547927
  41.1706161  66.6123505   5.9896984  28.3800507  12.2556238   3.2459323
  27.7828236  12.2986526   3.9927254  28.7402344  13.1397142   3.1760459
  80.7262802  19.3726215  36.8698692  81.2146378  18.8247185  37.4843140
  79.8860168  19.5264549  37.3017616  72.9675522  15.3626938  36.6996460
  72.2271194  15.9062891  36.9689064  73.5941620  15.4379663  37.4193153
   9.1261644  61.0533066  45.2735138   9.9972897  61.1733627  44.8954124
   9.2768507  61.0260468  46.2183838  85.0917130  37.4847069   2.9320254
  85.2702408  38.0835304   3.6571226  85.4181061  37.9425430   2.1573744
  86.4262009   0.8039398   0.4972242  86.9476471   1.4510165   0.0222304
  85.6752701   0.6367034  -0.0723064  27.4330273  24.9911518  81.4936829
  27.7982330  25.4794331  80.7558289  26.4876328  25.0029526  81.3442764
  71.2371368  61.6144791   8.0015097  71.6249237  62.4527168   7.7501073
  70.3481979  61.8355331   8.2792835  75.0838242  32.3791695  60.0520592
  75.7099609  31.6578579  59.9896736  75.0662079  32.6012001  60.9829865
  80.6166534  53.8485260  29.9222679  79.9673691  54.2562866  30.4953251
  80.6970139  52.9529610  30.2504978  24.1338921   6.0907006  85.0552826
  24.2534523   6.1049657  84.1056824  23.4677162   5.4193625  85.2027512
  39.5045853   4.1864171  61.8947334  38.8015442   4.1187263  62.5407791
  39.0565567   4.1579895  61.0493355  50.6045303  14.9504566   4.6863756
  50.8272552  14.1651049   4.1865263  50.4718094  14.6356411   5.5805278
  81.1656570  51.7427521  44.0548744  81.3479156  52.6455116  43.7940445
  82.0037003  51.2909813  43.9558258  32.7852440  59.1150551  73.4465103
  32.7947159  58.3545837  72.8652878  32.6132965  59.8572693  72.8670425
  62.9125862  22.4922333  82.1880951  62.0314484  22.4272861  82.5563431
  62.8032227  22.2672367  81.2641678  48.5971603  52.2616653  77.2208557
  49.1543121  52.0008774  76.4875031  49.1290283  52.8847084  77.7159958
  35.4728432  32.8202171  11.1508808  35.3994827  33.7577286  10.9722013
  35.5487022  32.4168053  10.2861633  79.3722610  71.4974823   3.2284365
  79.3033676  72.1939163   3.8814745  80.0357361  70.9039917   3.5802906
  73.0381165   0.4015224  20.1016026  72.9198761   1.2217020  20.5807247
  72.2716522   0.3448014  19.5310421   6.4136782  43.3451042  30.8820667
   7.2719121  43.7595253  30.7930660   6.4836545  42.8179016  31.6779270
   5.0057540  51.5950623   7.7931423   5.1574807  51.8814621   6.8924837
   5.0689301  50.6407166   7.7548614  61.5697250  28.3479042  45.0274811
  61.0366173  28.5453167  45.7975807  60.9603424  28.4102268  44.2919540
  25.3949375  62.4582825  41.5068893  25.8343430  61.8974876  40.8676224
  24.6316509  61.9520302  41.7849808  50.3836136  56.9951706  16.6093388
  49.6504898  57.1846695  17.1948719  49.9712029  56.7322311  15.7865305
   8.4032211   2.9577322  68.7204590   7.9935226   3.5093908  68.0540848
   9.0841866   2.4781141  68.2487717  77.9478226  68.5812149   3.3035142
  78.3430405  69.2863693   3.8161435  77.7610855  67.8949966   3.9441926
  18.6272297  31.0902557  19.4108562  18.8056221  31.6601887  20.1589108
  18.9364700  30.2277470  19.6877689  34.6714020  45.2225494   9.5052910
  35.0290756  44.4084473   9.1509790  35.3167229  45.5057678  10.1530418
  12.4060707  69.0577698   8.7247353  13.0272293  69.4806061   9.3176937
  12.2004309  68.2241974   9.1479406  28.3799667   5.4303780  18.0472584
  28.1141281   4.5237322  17.8937836  27.5595512   5.8966346  18.2077370
  53.4695168  51.4565697   1.7305516  53.5226440  51.1941719   2.6495485
  52.6127815  51.8758545   1.6503294  48.8622208  45.1345673  82.7701187
  48.8641968  44.1774635  82.7566833  49.6759949  45.3819466  82.3310165
  31.1862926  23.4031143  79.6909561  31.3371773  23.8547859  80.5212860
  30.9092293  24.0941257  79.0893097  44.1240349  28.0670776  86.4736710
  43.2975807  28.5156212  86.2947311  43.8734627  27.2991295  86.9871902
   1.0707582  33.2868996  36.7163086   0.7028144  32.4637642  37.0377045
   0.3715352  33.6716232  36.1878166   9.0498943   4.1310425  62.1130829
   8.4426413   3.5980628  62.6263123   8.5868073   4.2983861  61.2922401
  35.7780571  63.6398163   2.0210936  35.2598076  63.7901039   2.8117032
  36.1998138  62.7932777   2.1684971  16.5719376  40.6030235   5.0318599
  16.6054916  40.5179520   5.9846816  15.6373606  40.6220627   4.8258605
  32.7225685  56.0375061  29.7342873  32.0363808  56.3885078  29.1666832
  33.0093231  55.2362823  29.2960625  65.4643021  31.5908737  36.2265244
  66.1464767  32.1334076  35.8308754  64.8726120  32.2167931  36.6440811
  52.9480782  32.8563995  71.9982529  53.7537117  33.3672485  72.0771103
  52.8061485  32.4963036  72.8737030  43.2697029   8.9148474   9.1563568
  43.1066513   8.9674873  10.0980968  44.1051140   8.4533348   9.0833521
  73.8588257  32.2958336  69.1145782  73.5989914  32.6977158  69.9435577
  73.2697067  32.6817055  68.4662933  38.5744629  57.1952629  15.2155247
  39.2792625  57.0714760  14.5797844  37.8435936  57.5356865  14.6996002
  70.7095337  56.5332832  83.6482391  71.0190353  57.0192108  82.8838348
  70.4739761  57.2099609  84.2829437  83.0935287  38.6622047  38.7194633
  82.7888336  39.2553749  38.0327759  82.4705505  38.7849083  39.4357529
  51.2210159  51.7480011  78.9516068  50.8477097  52.3601265  79.5857773
  52.1676483  51.8336105  79.0646896  75.3507156  38.8691864  81.5215912
  75.3535843  39.7978249  81.7536469  76.0132751  38.7918053  80.8351059
   9.4114332  71.8192291  49.3958893   9.3795881  71.5061417  48.4919052
   8.6305695  71.4471970  49.8058624  18.2001286  68.2294617  20.7385845
  17.9050732  69.0652847  21.0999317  18.4583664  67.7155380  21.5037193
  14.5294533   4.7506618  59.5295944  14.2368536   5.6120181  59.2317963
  14.9059496   4.3427873  58.7497711  74.1635208  66.7530289  25.6157875
  74.9480438  67.2110138  25.3141212  73.4607239  67.0905533  25.0604668
  29.3290501  48.2292061  27.5301533  29.9896049  47.7932816  26.9917564
  28.8324070  48.7656822  26.9122772  27.1437626  53.8276138  54.2660446
  27.4901943  54.7049675  54.4287376  27.8894291  53.2450829  54.4105072
  73.6638260  22.2893257  46.3739166  73.4112396  22.0162048  45.4919662
  73.6532364  21.4813881  46.8871002  34.1086006  24.7243252  83.1453629
  34.6295738  25.4580822  83.4715881  34.3795929  24.6252403  82.2326889
   1.5676954  57.5593033  40.4996796   2.5054059  57.6814957  40.6480026
   1.4303071  56.6172028  40.5986977  68.0254517  71.2179489  74.5570450
  68.5305939  71.2650070  75.3687363  68.3863525  70.4620361  74.0938187
  39.9418221   8.0110788  68.8745804  39.5777359   7.7826567  68.0193100
  40.8599892   8.2153826  68.6972198  48.6230888  63.6116676  79.7896805
  49.3716125  63.2280998  79.3327103  48.6092377  63.1704750  80.6390228
  84.8599930  17.0535641  24.0787735  85.7398911  16.7176857  24.2496681
  84.5635986  16.5679893  23.3089695  40.5706291   3.8036139  77.8738937
  41.1205215   4.2354321  77.2201462  40.9557114   4.0537963  78.7137451
  79.6980667  18.3408108  56.3451576  79.2676620  19.0639038  56.8013573
  80.1197815  18.7511082  55.5901413  56.5683517   8.9135876  48.3221359
  57.0945702   8.1529331  48.0756989  56.0890465   8.6310577  49.1010284
  62.0528488   9.7355652  79.2646484  62.3617172  10.2469358  80.0125275
  61.1484184   9.5120993  79.4844131  22.3868465  67.3997269  80.5669250
  22.9518051  67.6573715  79.8384552  21.5152435  67.7031326  80.3129883
   1.2558905  50.2206764  86.4957047   2.1235631  50.4497604  86.1626892
   1.1135092  50.8219147  87.2267761   6.1795330  42.3029137  62.7813492
   6.5860653  41.4407120  62.8683701   6.1311669  42.4506836  61.8368607
  64.4640503  52.5566788   8.2402649  64.7279129  52.1244545   7.4279895
  65.1564789  53.1961479   8.4071674  52.1156769  56.8814850  67.5392685
  51.3964424  57.0083618  66.9205322  52.8936234  56.7965240  66.9880753
  68.5090179  64.8598022  23.2760906  69.2190399  64.4726486  22.7640190
  67.9646149  65.3088837  22.6294212  17.0226097  41.8668518  71.3409958
  17.3427467  41.0024757  71.0829391  16.0753212  41.7567177  71.4231339
  77.0772247  49.2129059  28.6811008  77.8226318  48.8208847  28.2262154
  76.3465729  49.1173248  28.0701675  28.6466293  50.8912582  10.8088264
  28.3316231  51.7503128  11.0899487  29.1592274  50.5696449  11.5504732
  36.9361687  60.0597534   7.1156707  36.9560432  60.4402351   7.9937773
  37.7890205  59.6360741   7.0188613  59.8567352  58.5771751  28.5758076
  60.7599640  58.5117836  28.8858662  59.9363632  58.8522987  27.6624622
  35.4872742  16.7880459  12.2187042  35.7389984  16.0158291  12.7252102
  36.1447067  17.4465218  12.4432545  16.6509266  55.6102905   3.6793418
  17.3641376  56.0738640   3.2404103  16.6811981  55.9247131   4.5829201
  67.0897675  22.7975368  28.7242832  67.2538071  22.1848373  29.4411659
  66.2822113  23.2469978  28.9734116  74.5708313  20.4403477  84.7434540
  73.8067703  19.8719368  84.6467514  74.2988739  21.1008396  85.3806534
   6.7337098  51.6483307  84.8517685   6.2598696  51.8474960  84.0442734
   6.2286892  52.0826874  85.5391693  50.8541260  43.4379807  59.3483658
  51.5912781  43.6265907  58.7676239  50.1165962  43.9083443  58.9597359
  14.2909336  68.5479050  20.9795189  13.8958244  68.6644821  21.8435402
  13.5466690  68.5120239  20.3786736  60.9533730  12.5442438  14.0342598
  60.3484230  12.3358974  13.3223209  61.7541084  12.8276196  13.5929499
  57.0236931  65.4397202  72.1413727  56.8319778  65.9767227  71.3725433
  56.7165680  64.5645218  71.9048538  70.4785690   2.8045022  72.8507004
  70.3727112   3.5667374  72.2814713  69.6051178   2.6516273  73.2111816
  26.5626106  58.2839203   1.7726095  26.9823704  57.4236679   1.7716944
  27.2091961  58.8655014   2.1725125  69.9598236  65.9547882  44.0672646
  70.3675308  66.6345901  44.6038055  69.6249695  66.4223099  43.3020668
  48.3439407  25.5011578  37.7778702  48.8727417  26.2721272  37.9833107
  47.4529343  25.7492123  38.0244675  40.8374329  40.8860970  76.1783752
  41.5143661  40.2964630  75.8462219  40.3302994  41.1290512  75.4037628
  20.7393265  46.7234344  20.6455097  20.9881420  45.8198433  20.8400383
  20.9391098  47.2049904  21.4482689  30.8594780  50.2109337  20.6050892
  31.5249672  50.3623276  19.9339466  30.0269527  50.2979851  20.1408100
  37.7892303  51.5766296   3.1334319  37.4634171  51.8180580   2.2663734
  37.8860397  50.6250534   3.0965073  69.5862427  62.8412361  84.6159134
  69.9181290  63.7390556  84.6168747  68.9507980  62.8200188  85.3314438
  60.4876900  52.5709343  85.8119125  60.0494232  52.2354736  85.0298538
  61.0530434  51.8527832  86.0962830  54.9716759  48.5752296  52.0866394
  55.6411743  48.5132446  51.4053459  54.1948814  48.1747169  51.6962357
  27.0704575  66.6479797  36.6074257  26.5325298  67.2632751  37.1057014
  26.4585304  66.2323303  35.9999580  41.3367996  44.1959419  78.9551849
  40.5437508  44.4283638  79.4381790  41.1026344  43.3989677  78.4795532
   8.1373167  43.7729301  50.8346443   8.4551353  43.8349495  49.9338799
   7.6166677  44.5662880  50.9600868  79.3313599  23.2997952  63.2471695
  79.0777130  24.0594673  63.7713776  79.4141769  23.6403122  62.3564262
   0.9018943   1.0043124  49.5486259   0.3226958   1.7639712  49.4879684
   0.4141962   0.3729046  50.0774994  39.3997612  66.7112045  25.4827785
  39.0929565  67.4236908  24.9220028  40.2541008  66.4736404  25.1223583
  36.6346245  56.8037186   9.5735035  36.0781250  56.5353775   8.8423834
  36.7106628  57.7533646   9.4806528  41.1083336  56.6540337  25.3500252
  40.1855278  56.4791260  25.1654530  41.5740738  56.3135796  24.5862103
  56.4608231  40.6776886  32.6407661  55.6738243  40.2554398  32.2964287
  56.1731796  41.5572586  32.8854103  70.8058319  20.0559025  65.2293625
  71.5996323  19.7468643  65.6659546  70.2383194  19.2860336  65.1911316
   0.8225484  20.5951252  39.4053955   1.1340865  20.6809502  40.3064041
   0.8870687  21.4792995  39.0444183  68.8535767   9.2185469  76.3398361
  69.0934830   8.4159479  76.8029861  69.6091614   9.7952309  76.4527969
  73.4568481   6.5376344  25.5202122  74.2230072   7.0985460  25.3993187
  72.8715591   7.0488214  26.0790939  29.6337414  68.2993240  17.4193153
  29.9408531  68.4835052  18.3070030  28.9704037  68.9687271  17.2516499
  13.6164961  68.2132187  82.0658798  13.5938911  67.8759842  82.9614182
  12.8944635  68.8404770  82.0278549   6.4490781  21.5668774  25.9975510
   5.9441304  22.3783035  25.9441833   7.2006598  21.7882099  26.5474319
  76.0296097  67.8067627  65.9962006  75.1982269  68.1859360  65.7111359
  76.4741058  67.5657043  65.1834641  66.7587357   8.8289356  52.5007439
  66.5539398   7.9088378  52.3342781  67.6342316   8.8132858  52.8873901
  20.4149933  24.5828762  74.2265701  20.9683819  24.6486778  75.0048141
  20.6674786  25.3335285  73.6889801  15.3726025  33.4823914  87.5620422
  15.5296469  33.7370796  86.6528091  15.7415295  34.1988373  88.0785980
  19.8513584  12.6843729   5.8777080  20.0911560  12.1396694   5.1280231
  19.1756325  13.2723351   5.5401773   8.1077967  51.4115715  61.4171104
   7.8248019  52.2355080  61.0205383   7.3258791  50.8595543  61.4062958
  31.5537758  62.2193756  16.1398258  32.1752434  61.4936333  16.0823288
  32.0758171  62.9977264  15.9452219  52.4492149   3.6721163  61.0770493
  53.3842125   3.6459801  61.2803307  52.0325699   3.9312720  61.8989258
  72.1897049  33.5941124  84.0846481  72.9155502  33.6959534  83.4690170
  72.5051651  32.9545937  84.7231903  15.5860319  36.0452347  79.9000092
  16.5213547  36.2424583  79.8499298  15.2915688  36.0480118  78.9892273
  63.7837296  14.7157478  47.2462273  62.9630089  15.1181688  46.9621391
  63.5508232  13.8077278  47.4398422  84.5207672  27.4007969   5.5184116
  85.0465927  27.6507778   6.2781801  83.8513794  26.8153610   5.8725557
   0.6314098  15.7960129  71.0476837  -0.1283678  15.2272053  71.1718903
   0.5529541  16.1069183  70.1457901  11.9509926  24.4473553  65.3061142
  11.5992956  23.5582466  65.2611008  12.3116150  24.5178185  66.1899796
  60.4322281  39.8091698  22.9571095  61.0387955  39.5247879  22.2734165
  60.9972343  40.0886726  23.6774445   2.7320349  37.5123291  55.6311264
   2.4453268  36.9372673  56.3405914   2.5849774  38.3970299  55.9656525
  59.5319595   1.6013647  34.4139671  59.7663307   2.1532824  33.6678505
  59.2031288   2.2144198  35.0714340  77.2074051  66.7999496  49.9707832
  77.3762665  67.4518127  50.6510773  76.9748001  67.3148575  49.1981316
  44.8734970  50.5853386  67.4441147  44.0769005  50.0655632  67.3368759
  45.3715248  50.4286690  66.6418304  38.7482224  50.4474258  66.4347305
  38.4454689  49.5424347  66.3600998  39.3185310  50.4465675  67.2034760
  57.7572899  57.2149506  55.4116287  57.3929558  57.2945747  54.5300674
  57.7624474  58.1101723  55.7504234  37.9792366  48.2372169  85.3679276
  37.9395447  47.7802277  84.5277939  38.9119301  48.2657318  85.5812378
  57.8665581   4.3595719  63.0145226  57.4043465   3.6233840  62.6137505
  57.1708603   4.9463353  63.3110809   9.2349148   3.9437931  88.4714890
  10.0199900   4.4809103  88.5782318   9.0858250   3.9227262  87.5262070
  78.4682770  10.1975889  88.5558014  78.4312439  10.2258015  89.5118637
  78.0971832  11.0346956  88.2769241  67.0664291  55.4176064  49.4934616
  66.9480667  55.6802979  48.5806580  66.2025833  55.5320511  49.8895760
  59.8569756  45.2360229  29.7352028  59.4346237  44.7461014  30.4407730
  60.6615524  44.7500153  29.5544262   3.1551633   2.4803112  15.1102476
   2.4368746   2.6573312  14.5028296   3.2194755   1.5255545  15.1333866
  66.1520309  11.3254528  23.9562988  66.8764954  11.7238264  23.4739342
  65.5102081  11.1012602  23.2824764  19.6280270  70.2294998  56.1839943
  19.5691452  71.0130234  56.7306709  20.4882507  70.2912674  55.7687454
  55.7852097   4.2218046  45.8691139  56.3390656   4.5304303  45.1520195
  56.1558647   4.6308184  46.6511345  72.6056595  55.5786362   1.2330751
  73.3399353  55.8182678   0.6677009  71.8274078  55.7938499   0.7190408
  64.5020294   5.0279374  40.6492767  63.5511665   4.9999146  40.5429039
  64.8464127   4.7763810  39.7923355  80.2367096  52.1125679  62.7334862
  79.6379395  52.2442741  61.9983940  80.3520584  52.9859238  63.1078873
  31.9627705  70.2854462  34.4479179  31.5962658  70.0856018  33.5865402
  31.4137802  70.9942627  34.7832108  31.6019802  39.1922073   8.4168272
  30.9032803  39.3380890   7.7790413  31.5606728  38.2550354   8.6071854
  42.7586136  24.3012524  68.7657623  42.5242615  23.4990578  69.2324448
  42.3258934  24.9993992  69.2572632  10.3282661  69.6767578  30.9071522
   9.3915014  69.8691788  30.9481106  10.4960155  69.1374588  31.6799755
  41.8476486  43.0349846  69.9064484  41.6159630  42.8196220  70.8098679
  42.2418060  43.9055405  69.9612885   8.6492596  25.0271778  58.6134529
   9.6057940  24.9922657  58.6060638   8.4436951  25.8814869  58.9930992
  57.9071655  59.7383194  68.8234711  57.2631836  59.1644859  68.4084625
  57.5335655  60.6158485  68.7422562  31.3526554  22.2464905  86.6806870
  32.2151413  22.3514423  87.0823517  31.3664303  21.3636684  86.3110046
   4.8570204  13.1969833  60.5867004   4.3081975  13.8711109  60.1859818
   5.3591919  12.8324881  59.8578682  10.6048336  69.7546463  53.5169220
  11.2708845  70.3999100  53.2797623  10.6276054  69.1144409  52.8056908
  50.7777176  20.5322475  74.1717072  50.5004692  19.8745518  73.5338974
  50.0710030  20.5529938  74.8169632  53.7014084  60.6751137  10.1509418
  54.3353119  61.0888329  10.7368011  54.1872253  59.9610748   9.7381935
  16.7655449  41.8733864  -0.0380766  17.2179947  41.0832672   0.2572793
  17.2241554  42.5900726   0.4004090   3.3483498  52.2203827  17.2106781
   3.8459783  52.9775963  16.9020958   3.8231001  51.9217110  17.9863338
  68.9293671  39.1373787  74.8936768  69.3901062  38.3010292  74.8268051
  68.1245499  39.0082588  74.3918533  39.9027519  37.6045151  77.3481216
  40.4643898  37.1860123  76.6957016  40.4905205  38.1822929  77.8348770
  61.2547531   9.5804224  69.8770752  61.3077164  10.5299950  69.9854202
  60.4628944   9.3289185  70.3524017   6.2820058  15.7036543  71.7063293
   6.4758096  15.9139452  70.7928467   5.5699053  15.0657349  71.6593704
  28.2887001  23.9664249  11.9957886  28.9971333  23.9838142  11.3523207
  27.5889683  24.4826565  11.5956497  31.5520611  37.1852608  72.6179047
  32.1989975  36.8297195  73.2272491  30.9079361  37.6182251  73.1781540
  49.6072006  63.9636078   9.4889908  50.4312439  64.1978531   9.9159775
  49.8474388  63.8032417   8.5764112  20.7856636  17.0130978  60.3041000
  20.9158077  17.8911896  59.9459801  21.4881191  16.4902477  59.9175568
  18.2388382  60.8926163  52.9454536  17.3047581  61.0786247  52.8499260
  18.5007629  60.5388718  52.0954590  72.9208450  54.7596855  54.7624741
  73.3027115  54.0025787  54.3184090  72.6579208  54.4266357  55.6204872
  58.8424377  33.0318451  89.0574570  58.3212662  32.3963203  89.5480881
  59.0430679  32.5907784  88.2319641  53.3815308   1.5088276  47.1664429
  53.3014832   0.8428973  47.8493500  52.9634514   2.2852175  47.5388145
  44.0810242   5.8065090  88.1352844  43.1271820   5.7279000  88.1506805
  44.3124886   6.0877199  89.0204849  69.5949020  65.7257233   6.5945320
  69.6623688  65.2102051   7.3982239  70.0576096  65.2061310   5.9371462
   0.4351860  20.4281693   5.5781765   0.9399608  20.3032188   4.7745461
   0.2027910  19.5419197   5.8552823  45.5318031  66.3288574  25.5884876
  45.8476753  65.5751495  26.0868721  45.4864616  66.0164871  24.6848278
  16.2894135   4.6455832  76.5644379  16.7926712   4.9218473  77.3303680
  16.8729324   4.8077807  75.8232040  51.0054626  48.0149574  40.2456779
  50.5055618  47.6031685  39.5408669  50.6401863  47.6419487  41.0479698
  55.6792374  56.9451218  19.3113899  54.8024178  56.6261101  19.0977211
  56.1935616  56.1514130  19.4587822  23.0022144  69.2605515  33.9181213
  23.0966454  68.4217377  34.3694611  22.3575363  69.7408447  34.4376755
   5.5777860   9.1659555  75.0552139   4.6721635   9.4751568  75.0334320
   6.0365210   9.7238436  74.4270782  58.3594742  25.4709511  31.9032898
  58.3748131  25.9890194  31.0985527  57.5365486  25.7127914  32.3281860
  28.8152885  56.9651642  34.4791908  29.5256653  56.5056763  34.9269257
  29.2533226  57.4836807  33.8042831  49.2606316  39.2794304  53.0363464
  49.9993248  38.9482079  52.5256042  48.6575508  38.5383186  53.0935974
  53.8568001  17.6461163  86.5043564  53.8718567  18.1850719  85.7134476
  54.7779846  17.4569683  86.6828690  25.8990269  65.2294006  15.5680904
  25.0987282  64.9932022  16.0370922  25.6413803  65.9621048  15.0086250
  77.9867249  15.9066343  69.3800049  77.6316528  16.0984764  68.5120468
  78.9310379  15.8333464  69.2416382  77.0228348  38.8501778  79.0530701
  77.8175735  38.5759163  78.5954742  76.7584915  39.6571579  78.6113205
  51.0551834  22.7821846  23.5035095  51.3290482  23.5436096  24.0148430
  51.6475906  22.0827637  23.7793713  56.1139183  33.6848679  55.9153137
  56.3793640  33.4681091  56.8090630  56.9163513  33.9951515  55.4957237
  28.5484676  39.4709930  83.6269608  28.8210659  38.6446724  83.2280655
  29.2242374  39.6566315  84.2789612  73.1059723  66.1454697  85.2053146
  73.3535309  66.6052475  84.4030991  72.4596710  66.7173462  85.6194229
   3.6913316  64.0063629  28.7409039   4.4351621  64.1216278  28.1495800
   2.9754643  64.4833603  28.3210926  74.0391159  31.9678268  14.8696060
  73.9007339  32.7128181  15.4544706  74.9871368  31.8355541  14.8704166
  28.4495659  21.6084843  67.2373428  29.3430481  21.8257809  66.9714432
  28.4724197  20.6666565  67.4066696   0.6516846  48.7548103  60.3498726
   1.0342159  49.3255081  61.0163574   0.9611701  47.8784027  60.5787048
  57.7422485   0.3182041  86.0265121  57.8286667  -0.5453369  85.6227036
  58.4138336   0.3320236  86.7084274  11.6417837   0.3041408  46.6311340
  11.6037483   1.0252068  46.0027657  11.1707945  -0.4111690  46.2036629
   1.3956198   4.9998417  47.1505089   1.4553860   4.2949696  46.5056686
   1.5574379   5.7983894  46.6481438  78.8070526  61.4776154  37.5060768
  79.6186905  61.2152405  37.0717545  78.2550812  60.6962280  37.4744873
  60.1892052  58.4609528  87.5056381  59.6210098  59.1058388  87.0843201
  60.0947609  58.6341667  88.4422836   0.6550096  63.6712914  13.2809696
   0.9698569  63.9770393  12.4303093   1.2777647  62.9907188  13.5363598
  27.3747311  32.6483421   1.7666876  27.7088795  31.8213406   1.4193481
  26.4349880  32.5010033   1.8734920  17.5502415  37.8372269   8.4013758
  17.1842556  36.9665413   8.5569286  17.6301746  37.8968582   7.4493847
  77.4404984  35.1140556  36.2155609  78.1097107  34.6092377  35.7534523
  77.5078354  34.8245659  37.1254463  15.7940950  22.8342323  15.8033934
  15.3419857  23.1804905  16.5727654  16.6815605  22.6487713  16.1103821
  16.3858585  25.7492828  84.8548965  17.0269184  26.3536186  85.2291260
  16.6462154  25.6615410  83.9379730  72.5996170  35.8683586  13.4778824
  73.2641602  35.7528267  12.7987137  72.8746262  35.2835579  14.1840067
   4.4506640  62.0508347  57.8827972   3.8313553  61.3276787  57.7841492
   5.0075264  61.7908554  58.6166573  72.3402939  31.3721256  52.9658890
  71.8920746  32.0528641  52.4639702  71.9258499  30.5559998  52.6858788
  11.6879473   8.7784538  65.8647842  12.1813774   8.7536983  66.6846237
  11.6955881   9.7006454  65.6083908  53.2535362  14.8566666  88.9680023
  53.1056290  15.1073580  88.0561295  52.4582977  14.3868790  89.2192535
  32.5141754  40.9050293  26.1772652  32.3232956  41.5592918  26.8493824
  31.8733978  40.2105865  26.3301811  28.0289421  65.3840179  81.7854080
  28.7897358  65.1027069  82.2936325  28.2842789  66.2316055  81.4212341
  36.4777374  68.5965958  50.1638718  35.8371201  69.3063660  50.2093239
  36.9721451  68.7711105  49.3630333  86.3466568   8.3044367  22.4239178
  86.7084579   8.8608332  21.7341652  85.4692612   8.0793352  22.1145000
  48.6831894  60.1915970  24.0777225  49.4455605  59.6133385  24.0524578
  48.1903114  59.9046669  24.8464718  79.6543961   0.7921247   0.5950169
  79.3033600   0.4573292   1.4201934  79.1670837   1.6008956   0.4380171
  52.6818733  19.4593067  20.9366474  53.5807838  19.3178902  21.2336216
  52.2304916  18.6403179  21.1409531  24.7705994  44.1259613  79.3323669
  25.7122002  44.2673149  79.2341919  24.5207863  44.6811600  80.0709991
  66.1599731  53.9260483  52.7856102  66.3815536  53.8308640  53.7119331
  66.7940598  53.3726997  52.3295784  63.7110558  38.5951042  67.6668015
  64.2624664  38.7471733  66.8993073  64.2892227  38.1625938  68.2952042
  28.0380878  39.0806961  72.0638123  27.7545490  39.9516945  72.3416672
  28.1065807  39.1436844  71.1111526  64.7920456  16.6266117  49.0584068
  65.6467667  16.4113369  49.4316864  64.5586243  15.8591747  48.5361214
  68.7469940  66.5352707  25.4201298  68.1367950  66.1798630  26.0663261
  68.6523666  65.9610443  24.6601658   2.9075794  58.0208549  36.5592270
   2.9399631  58.8451691  37.0447083   2.6533933  57.3683701  37.2118225
  49.1905823  59.2259674   5.9239612  48.9096680  58.3163528   5.8243613
  49.9254608  59.3174629   5.3174858  43.7080727  22.3482780   7.6904311
  43.3340645  21.4821281   7.8520918  44.5257988  22.1729641   7.2247891
  44.9007416  47.9355621  65.8762436  44.9918976  47.1363487  65.3574219
  45.7025986  48.4279060  65.7005920  45.0262070  21.5627499  10.1550980
  45.3928871  21.2065296   9.3458481  44.5855026  22.3681221   9.8841982
  23.0899792  26.3180428  59.6275101  23.8273354  26.9140377  59.4958801
  22.4803047  26.5316544  58.9211807  65.8206177  49.5629616  47.3256416
  65.1200333  50.1317101  47.0063744  66.0365906  49.9114380  48.1906013
   7.3162093   2.8125310  63.8096352   6.5655999   2.8995171  64.3972168
   6.9553604   2.4145415  63.0174065  71.2025070  19.3740578   5.5529957
  70.9398117  19.6560459   6.4291825  72.1579819  19.4311638   5.5594301
  79.9792023  34.4593391  29.3899384  79.7818756  34.9151154  30.2082062
  80.7889862  33.9821053  29.5708542  69.4408188  29.3400326  83.4392395
  68.6692276  29.2923241  82.8747864  69.3833771  28.5592136  83.9899216
  30.9739113  15.7866907  85.4729309  31.1733475  16.6394329  85.8593063
  30.1492329  15.9221630  85.0062561  17.6152611  69.0763702  18.1353016
  16.6705151  69.2289658  18.1553631  17.8403587  68.8489761  19.0374413
  40.0916290  35.2274551  59.3878250  39.3100548  35.3905487  58.8598328
  40.4830437  34.4443855  59.0007477  73.8983688  20.4612312   3.1448703
  73.9388657  19.7013283   3.7255070  73.7363129  21.2013073   3.7298965
  85.1758270  48.6635475  32.0840836  84.3352203  48.2473259  32.2748032
  85.7958832  47.9364738  32.0281868  84.4703674  47.4829483  35.3819885
  84.0098419  48.1286926  35.9178619  84.1919708  47.6728516  34.4860725
  35.5494957  14.9144344   7.2887158  34.9895134  15.1185331   6.5397182
  36.3910141  15.3177109   7.0755434  43.3794975  71.7831345  83.6547165
  43.7799339  70.9470749  83.4161835  42.9383774  71.6088562  84.4861450
  34.2059822  16.2179565   2.8916621  34.8170815  15.4813766   2.9073172
  34.3339233  16.6532631   3.7344971  47.6976852  64.1663437  33.6685715
  48.2908325  64.2501297  34.4151573  47.3714256  63.2680244  33.7215080
  19.4025936  11.5612097  84.5622559  18.6470089  11.8119116  84.0307770
  20.0781231  11.3306627  83.9244995  83.4256287   6.1300607  60.1284637
  83.7227707   6.8342099  60.7047577  82.5302277   5.9486017  60.4140396
  10.6916981  21.5819359  75.5799332   9.9995537  22.1559010  75.2517090
  10.2712164  21.0709438  76.2715378  74.0059586  38.8991928  48.7958450
  73.3834381  38.2955780  48.3904495  74.7592392  38.8987808  48.2052498
  84.7107010  50.4464874  54.3542976  83.8424759  50.1594849  54.6372223
  84.5787048  50.7639771  53.4609833  79.0415115  13.9879093  32.5938988
  79.6782761  13.2785254  32.6807251  78.1962585  13.5439749  32.5252838
  17.5164394  53.5987473  55.3338165  16.7718658  53.6513596  54.7345886
  17.4927425  54.4239349  55.8183098  86.9304276   8.5365601  76.5078888
  86.7660751   9.2977734  77.0644684  86.3934555   7.8413854  76.8881912
  16.3323898   2.5027516  14.9085102  17.2391205   2.1960502  14.9109592
  15.8879175   1.9412918  15.5436783  83.5369568  52.8724403  88.0149536
  82.6707001  52.8506050  88.4215851  83.3601990  52.8657455  87.0742340
  79.1744690  27.3334179  49.5203209  79.4501877  28.2394409  49.6593819
  79.3033371  26.9108295  50.3694649  50.4910049  31.3458405  18.4055214
  50.3895531  30.7607346  17.6547966  50.6486816  30.7601871  19.1460495
  62.8096619  65.9081802  35.6402588  62.5939331  65.1768112  36.2188721
  61.9635735  66.2089081  35.3087006  31.6107693  34.0046234  73.3702621
  32.5180397  34.1962318  73.1328278  31.3699055  33.2621231  72.8162689
   1.1244909  28.8702583  38.0926094   1.4819934  28.9276028  38.9786873
   1.8726341  28.6258373  37.5478401  42.4354286  64.0806198  49.4287453
  42.8628349  63.2363930  49.5730591  41.5644112  63.9767036  49.8118362
   3.2604620  18.1002998  71.1624756   3.3430078  17.1816025  71.4182358
   2.5195086  18.1146164  70.5566635  48.6157990  40.7447510  69.3157043
  48.5081863  39.8374710  69.6011734  49.1822395  40.6881294  68.5461807
  63.8766670  16.9347725  28.1769047  63.4451599  16.3391132  28.7894630
  63.6992989  17.8079166  28.5267506   3.6594124  26.3561420   8.6877728
   3.8056161  27.1081848   9.2616100   4.5208116  26.1682129   8.3150721
   2.8655062  55.1208305  70.8407440   2.4338903  54.4920807  70.2622833
   2.3108799  55.9001007  70.8038864  62.3796844  63.6104813   9.1868162
  62.1171188  62.7076797   9.0072632  61.8258171  63.8797722   9.9195814
  44.8667183  38.2202835  52.0604782  44.2898407  38.3089714  52.8191452
  44.4102669  37.6086731  51.4827080  13.3961515  36.5285606  65.7277069
  14.1144361  36.5999756  65.0990601  13.5885344  37.1944618  66.3878555
  66.6147232  42.2093010  16.9845924  65.8883057  41.6293716  17.2131271
  66.7120819  42.7823601  17.7450886  76.5923080  47.9688606  31.0334396
  77.2286072  48.3851395  31.6148758  76.7153702  48.4065437  30.1911068
  68.7268524  18.7233295   7.5982094  69.6294022  18.4069118   7.5591879
  68.1925201  17.9395466   7.4701409  22.3947449  48.1331024  27.4979954
  22.8982906  47.4068451  27.8657207  23.0535889  48.7862854  27.2623901
  21.3156357  56.4282837  26.0155468  22.1382179  56.8602295  25.7853031
  20.7291546  56.6250343  25.2850933  83.8273773   2.2777150  39.9384918
  84.0428391   1.9976047  39.0489159  82.9378662   2.6248555  39.8714600
  49.3218498   5.6408224  13.1415615  48.7165298   4.9112992  13.2742825
  49.6240654   5.8644662  14.0218344  39.7909203  42.4498253  35.8834000
  39.0246620  41.9900551  35.5403366  40.5371780  41.9399338  35.5682144
  58.1411934   9.1236343   5.5769057  58.6898422   8.8894033   4.8283386
  58.4057465   8.5156879   6.2673006  15.5317650  59.8425674  76.1658173
  15.4656258  60.7758980  75.9639511  16.3883286  59.5840607  75.8256607
  61.7281265  69.3232498  62.7117043  62.1175766  69.4527969  61.8469620
  61.5206032  68.3893509  62.7434464   2.0126550  16.2442722  78.5695038
   2.0254602  15.3100100  78.3616028   2.2672424  16.6747684  77.7533646
  12.4428101  16.1349850  85.1474075  12.6312265  16.5612297  85.9834976
  12.8441477  15.2693720  85.2240601  66.0583878  61.2514038  79.9527740
  66.0535660  62.1887321  80.1467438  66.8141861  61.1296082  79.3781738
  77.5178223  16.5315781  43.4209023  77.6612244  17.0812378  42.6504822
  77.1462784  15.7216005  43.0714378  81.3248901  40.8174477  60.8226242
  81.2625580  41.5527534  61.4322739  81.8581161  41.1496315  60.1004372
  40.7037430  29.6052837  75.9149857  40.6364899  28.9077129  76.5669861
  41.2373543  30.2779503  76.3380890  62.9570961  19.9769268  49.7478600
  63.2652740  19.6760521  48.8930321  63.6989326  19.8309269  50.3348846
  16.0819664  15.9802351  62.4182625  16.9328556  15.6098833  62.1836166
  16.0022621  16.7622261  61.8720322   2.8565166  56.9014359  21.0534077
   2.8434694  57.7084923  20.5388966   1.9687304  56.8260384  21.4032402
  46.4143715  15.5646162  66.2021790  47.2875671  15.1958876  66.0687637
  45.8162422  14.8594742  65.9546890   9.5566788  59.0005379  27.7281971
  10.4621668  58.7069283  27.6276093   9.4695616  59.1928596  28.6618214
  62.9520149  63.2119331  79.1284714  62.2101822  63.5491638  78.6262894
  63.6916542  63.7558174  78.8576279  14.8367329   4.7899394  51.5963478
  14.6505070   5.6469817  51.9797897  14.5249920   4.8584456  50.6939278
  53.1330223  14.6326237  31.6522179  53.4797516  14.7886314  32.5306664
  52.9252777  13.6983299  31.6391582   5.3008738  50.4043579  15.2387829
   6.0761323  49.8509140  15.1444225   5.6390729  51.2989769  15.1998949
  43.5543823  11.9132586  84.4092331  42.7682343  12.4464025  84.2911072
  44.0407028  12.3546419  85.1055908  23.3697453  32.0557137  53.4907799
  23.9533768  31.5577908  54.0632133  23.0122166  32.7431564  54.0527649
  61.9569931   5.3763013  47.1531410  62.7668037   5.8718977  47.0313911
  61.3574982   5.7321510  46.4972382   8.4175453  50.0485229  76.1983261
   9.0689793  50.1342392  76.8944016   8.6654406  49.2481537  75.7355194
  46.5804863  66.4190445  44.2142601  47.0208778  65.6069717  44.4649200
  47.0605850  67.1049347  44.6782494  17.0881367  56.8710365  24.4114971
  16.4661198  57.5985832  24.4139328  16.9413128  56.4275970  25.2469807
  26.0491734  60.2030106  71.3681107  25.5227108  60.0686760  70.5800629
  25.4398441  60.5822525  72.0014572  55.3189354  33.9935608  72.0926743
  55.5264587  33.9295311  71.1604385  55.6884842  34.8341064  72.3631287
  55.3196030  42.6234169  38.1292915  54.4425850  42.4196014  38.4541435
  55.8949509  42.0181084  38.5970612  67.7271500   8.4969187  73.9327393
  68.1445847   8.6416044  74.7818832  67.0773163   7.8139515  74.0985718
  78.0459824  50.8364716  16.2412510  77.9296417  50.1633034  15.5707693
  77.3094406  50.7088470  16.8391228   2.0364349  70.1408539  52.3389664
   2.7493093  69.7927246  52.8745499   2.2745614  69.9068832  51.4418678
  29.3544388  61.9785767  36.1985588  29.6373196  61.6792870  37.0626411
  30.1286678  61.8776779  35.6448250  49.3471069  60.2458267  34.2189560
  49.1787453  59.9520950  33.3236313  48.6741600  60.9059830  34.3849869
  44.5320129  14.8108625  19.7505150  44.8734894  14.7732286  20.6439419
  43.8051949  14.1880112  19.7454662  35.5334854  67.3303223  82.7650528
  35.5422974  66.3879547  82.5974579  36.4524193  67.5567093  82.9083710
  18.7331257  11.7502041  61.0764732  19.2255497  11.0425644  60.6605453
  18.6383953  12.4113035  60.3907585  71.3501968  59.5566750  28.8839588
  71.5809479  60.3420792  29.3800716  72.1191635  59.3814888  28.3415260
  41.4870911   6.3547263   4.2628198  42.3042030   6.6127739   3.8362367
  41.0463676   7.1820550   4.4565244  67.9864197   2.8842909   1.9932901
  68.8796005   2.8223779   1.6547265  68.0227280   2.4501796   2.8456168
  32.1472549  56.4798088  88.5938950  32.3046417  56.3415871  87.6598969
  32.1148643  55.5978279  88.9644241  48.4294319  37.4601860  12.3101645
  47.6500015  37.3630486  11.7630949  49.1242104  37.6996689  11.6968412
  86.7142410  63.1382027  69.4711761  86.3894653  63.9051476  69.9429245
  86.3165283  62.3934479  69.9221725  35.2460632  51.2924042  87.1061935
  35.7079964  50.4585800  87.0191040  34.4050789  51.0603218  87.5000458
  54.0684547  15.8824434  76.3018646  53.6466141  16.2298870  75.5160141
  54.7328339  16.5343342  76.5251846  51.0563545  18.6168518  30.2772598
  51.1094856  19.3200111  29.6299763  51.2427216  17.8198643  29.7809601
  82.8780136  47.1308250  32.7108192  81.9568100  47.1564713  32.9695702
  83.1182938  46.2062874  32.7718658  22.9852161   2.6410043  22.1089859
  23.7862377   2.3082955  22.5138359  22.4202347   1.8724833  22.0289783
  66.0000381  50.4428787   6.9677844  66.1898956  49.9178314   7.7452850
  66.8399048  50.8388023   6.7351899  80.1284637  35.4926338  20.2955227
  80.7080994  35.0096436  19.7064781  80.5254745  36.3609695  20.3634052
  48.8822289  23.4572048  81.1769562  49.7098770  23.1707783  80.7907028
  48.9741173  23.2647667  82.1100998  23.7991772   1.7118746  16.0524044
  23.2892132   1.5782962  16.8513565  24.3555679   2.4661362  16.2466984
  72.3095245  68.7069092  16.0104008  72.7154312  69.5737457  16.0021477
  72.6877136  68.2581406  15.2542191  57.6968269  16.1110668   3.1301122
  56.8102112  16.4568634   3.0273066  57.8880119  15.6892223   2.2924199
  69.6948776  37.7591362  23.5240955  69.0744629  37.1583519  23.1113281
  69.2835236  37.9940758  24.3558540  35.7290421  66.9167023  12.9016542
  36.3631592  67.1786652  12.2341948  35.6916275  65.9625549  12.8351107
  68.8801193  63.4371071  40.8754501  68.0368271  63.7685661  40.5668564
  68.7721405  62.4861641  40.8920250  65.7731857  47.4293938  58.4733353
  65.4438019  47.8930702  57.7034378  65.8754196  48.1108017  59.1377602
  54.0438042  69.2940979  40.6195297  53.3305931  69.3347244  39.9824142
  54.1842575  68.3581085  40.7624550  55.2075043  19.1603184  28.3886662
  55.7902336  18.7431278  27.7541485  54.5999069  18.4674625  28.6475220
  72.2567978  37.8476181   2.5606525  72.2308197  38.5637016   1.9260001
  71.6075592  37.2209091   2.2413409  19.2880478  64.1728363  70.7829895
  19.9145432  63.5092239  70.4942780  19.1703186  64.7390137  70.0202179
  29.8620243   1.4228815  89.2322998  30.2804337   2.2830143  89.2688828
  30.1574173   1.0479358  88.4026108   5.3645372  29.6973896  54.2086983
   5.6353054  28.8631172  54.5919800   5.6593637  30.3565540  54.8370399
  26.5169544  53.6042061  66.7422562  26.9111977  54.0454521  67.4946594
  27.2167339  53.5716591  66.0899658  62.5112534  36.0085335  45.8776436
  62.1637383  36.8855743  45.7155724  63.1927299  35.8947372  45.2151680
  16.3364849  52.6509933  63.9776459  16.5354176  52.9449005  63.0886726
  17.1608543  52.2861214  64.2993851  30.3179340   1.1136975   5.7397122
  30.0821896   1.5580518   4.9253378  29.9411335   1.6608291   6.4288421
  78.7181168  39.3330116  20.9592628  78.3231049  38.4628372  20.9045906
  79.6193161  39.1698952  21.2375717  74.1972046  16.0572701  48.6057129
  74.1807632  15.4917107  47.8336334  73.2970810  16.0446625  48.9310532
  69.0074615  28.7538300  56.5479965  68.1982880  28.3688660  56.2114258
  69.0056229  28.5379219  57.4805260  54.5855026  16.9672661  82.9498749
  54.2700615  17.6935158  83.4877319  53.8762169  16.8039169  82.3282166
  47.6514969  37.0382042  73.3946381  47.7184868  36.0841141  73.3564911
  46.8746758  37.2025795  73.9292068  31.3031597   5.1070290  78.0876465
  31.2706184   5.5574870  78.9316025  30.6067848   4.4522796  78.1386185
  84.4105682  13.0341902  88.6777191  84.6581650  13.5401917  89.4515991
  83.6269455  13.4723053  88.3457184  68.9417191  44.0467072  82.5068665
  69.2453079  43.1508636  82.3601456  68.0462341  43.9462776  82.8297348
   9.9554243  42.6059647  45.1627312   9.8211412  43.5201149  45.4127998
  10.2451773  42.6470451  44.2513657  25.5573215   6.3950686  48.1122780
  26.3783245   6.0267029  47.7859421  25.7421818   7.3271184  48.2277870
  44.7366638  37.5691338  80.5609131  45.4041023  37.6258774  79.8771439
  44.5021744  38.4791641  80.7428284  49.7637291  62.3581314  49.8845711
  49.6155243  61.7322884  49.1756363  48.9550018  62.3364563  50.3961601
  21.5836506  11.7484360  83.0425415  21.9085560  12.5589333  83.4346619
  21.6089268  11.9115992  82.0996857  13.7233038  49.6276245  45.9306831
  13.9978056  50.4030190  45.4411545  14.4164476  48.9867134  45.7725105
   6.1690946  55.6848068  56.4004021   5.7640438  55.1901436  57.1127739
   6.7996659  55.0766029  56.0147858  84.9457321  63.8258171  18.1803360
  84.9893875  63.2857704  17.3912392  84.2982635  63.3892059  18.7338581
  63.7279739  48.1407013  72.1922455  63.7842445  48.4592590  71.2913666
  62.8171349  47.8638153  72.2919312   0.3756384  62.1035500  49.8312988
   0.5401446  61.2110672  49.5269241   0.4085454  62.6372566  49.0373840
  30.7352638  66.1075745  24.4949532  31.1828899  66.3681641  23.6899986
  31.4398518  65.9792023  25.1300201  41.9781380  62.7315292  68.4170914
  42.3546562  63.4672852  68.8999252  41.9963455  62.0031967  69.0379181
  18.9984035  51.4776039  75.5441437  19.4989319  51.3241920  76.3454971
  19.6579666  51.5028038  74.8509064   6.2054057  53.5559540  68.0308533
   7.0616126  53.4030800  67.6311417   5.6217022  52.9383507  67.5903015
  14.0230436  60.3449516  63.2598915  13.8645830  60.7414360  62.4032021
  14.3515158  61.0640488  63.7995529  45.5486107  11.3936567  82.4945602
  44.6810188  11.3558235  82.8971558  46.1507339  11.1587067  83.2005920
  80.6057968  59.6315308  22.6643333  80.8624496  59.4638824  23.5711155
  79.6858368  59.8900681  22.7196884  10.0348272  33.9917221  83.9847412
  10.5862732  34.7583427  83.8284378  10.6315336  33.2474136  83.9061127
  23.4626579  71.9246292  27.6430626  23.2211494  71.0500336  27.3381233
  23.6301289  71.8141861  28.5790043   1.3366131  39.2995377  85.2444382
   0.8242677  38.5552101  84.9286652   1.8348578  39.5888710  84.4800644
  63.3073082   3.1464689  29.8389797  63.5119667   2.2964685  29.4493046
  62.8395081   3.6191618  29.1505356  82.0892792  19.9881763  40.6173744
  82.3415375  20.7885208  40.1568947  81.5437851  19.5130157  39.9905586
  29.9688549  41.6339417  53.7538605  29.5482979  42.3058434  53.2172852
  30.5616360  41.1833878  53.1523285  67.8304596  29.1509438   8.2289848
  67.1871872  29.1063919   8.9364128  68.3119965  29.9616108   8.3938255
  10.6832600  68.0439377  51.3475494  10.7302475  67.1913147  51.7800446
  10.0399961  67.9230804  50.6490936   8.6004438  47.6273422  49.2055206
   8.9320354  48.4500198  49.5653534   9.1768684  47.4404259  48.4645576
  56.2114906  15.2044067  61.9000053  57.0587959  15.6483850  61.8655052
  56.3947754  14.3147755  61.5980186  47.0556717  42.1327591  75.9403992
  46.1384201  42.2968941  76.1593552  47.1407166  42.4227905  75.0321732
  80.4006958  26.9576149   8.7888918  80.1917953  26.4916401   9.5984974
  79.7043076  27.6083622   8.7005720  60.7816582  40.0193558  52.9096336
  59.9120903  39.6415176  52.7780075  61.3598213  39.4852905  52.3649025
  41.9336853  48.3209686  88.7378311  42.7418098  48.7503014  89.0186234
  41.4426575  48.1816368  89.5475922  76.4273682  15.2228050  65.2785721
  76.4323349  14.8007221  64.4194717  76.4876480  14.4986134  65.9015884
  14.4106359  57.2688828  85.7617035  15.2065210  57.8000565  85.7361221
  14.7217274  56.3791924  85.9287567  42.3069839  34.9344521  12.7468920
  41.7386208  34.6097717  13.4453030  41.7902298  34.8273544  11.9483137
  63.1989555  61.9559402  33.5655289  63.2283134  61.0390511  33.2922516
  62.8166046  61.9322968  34.4427261  57.0388145  14.7403488   5.6180763
  57.5569153  13.9753342   5.3679614  57.1794243  15.3672400   4.9085217
  12.9377136   8.0479727  63.5735588  12.2334633   7.8671374  62.9510117
  12.4878321   8.2203379  64.4006805   6.7139668  57.6516304  79.3980331
   6.9762588  56.8241806  78.9945984   7.5286331  58.1476822  79.4785538
  19.6492691  20.7808609   8.9268799  19.8818512  20.1258240   8.2688036
  18.6978359  20.8610191   8.8592100  67.9059067  41.8653069  30.8780003
  68.2550659  40.9743652  30.8545895  67.5297546  41.9522018  31.7538929
  39.6317215  59.5947456  40.1275826  39.6102486  59.2842636  39.2223930
  39.1100578  58.9552994  40.6125641  31.4362793  29.2984486  81.0704727
  31.0613518  30.1730156  81.1743622  30.7122726  28.7648373  80.7428894
  60.0702896  22.0778599  82.1753387  60.2545929  21.8920307  81.2546158
  59.7609444  21.2445946  82.5305939  63.4069824  37.1227798  61.4778023
  63.6319008  36.2098045  61.6570129  62.5630188  37.0777702  61.0284386
  65.8979797   5.1434631  22.1856499  66.4062729   5.2073202  22.9942245
  65.3049240   5.8942099  22.2156334  76.0562668  23.2360325  87.2009583
  76.1483154  24.1819782  87.3147507  76.7428436  22.8605518  87.7521896
  65.3721313  58.4984169   8.8434792  65.8811646  59.1288261   9.3530827
  64.4625702  58.6748428   9.0839043  53.2537804  36.2012711  40.2373657
  52.6952782  36.1927681  39.4600410  52.6475677  36.3324203  40.9664307
  71.4838791  37.1847916  10.2583542  70.7220764  36.7247543  10.6108427
  71.3858643  38.0844307  10.5702448  18.6883049  45.9537621  27.2324371
  18.5626526  46.2893333  26.3448353  18.7885990  46.7374496  27.7728138
  71.9456787  26.1170330  15.6416531  71.0568695  25.7701664  15.7187109
  72.5105972  25.3486919  15.7238302  59.0097733  53.5115471   5.4799914
  58.5736504  53.5505219   6.3311725  59.9060478  53.2431183   5.6821656
  11.9238405  40.6787415  56.9749451  12.1456394  40.6866722  56.0438309
  12.6095028  41.2028465  57.3889656  72.3079987  62.3581123  53.1415901
  72.5055084  62.1653137  54.0581360  73.0557098  62.0086098  52.6568108
  75.3439331  13.5543289   7.1473374  74.5906219  13.1333504   7.5614953
  75.9256058  12.8302603   6.9157877  53.9562531  45.1338654   7.2857609
  53.2398491  44.5124435   7.1560287  53.9195404  45.7052536   6.5186896
  29.4348068  59.4011803  87.4470673  29.5984249  59.3624458  88.3893814
  28.7922459  60.1031532  87.3441925  63.8708725  41.2395134  22.9099941
  64.0828705  42.0659294  22.4760342  64.6567459  40.7038078  22.8020325
  20.7805157   5.2342315  57.6158142  21.0744705   4.4684973  58.1092453
  20.0590210   5.5906520  58.1341209  84.5593414  37.4199219  55.9107323
  84.7733078  37.3321800  54.9818878  83.6070633  37.3298912  55.9466972
  11.6915064  63.8972244  68.5480118  11.9892826  63.5854073  69.4026031
  10.7463627  64.0092392  68.6499405  67.3110580  22.7949238  63.9679680
  68.2634354  22.7090816  64.0109100  67.1548004  23.7391777  63.9821777
  61.1684647  21.4694214  51.1781502  61.7974205  20.9120483  50.7199135
  60.4624138  21.6037655  50.5459518  69.5310898  44.3348389  16.9762821
  70.1566238  44.5756874  16.2929554  68.7011719  44.7126732  16.6852360
  82.0077591  17.0403366  86.7034760  82.3908386  17.8983097  86.8861237
  82.6874924  16.5730019  86.2178879  77.9065323  54.7882195  37.9519196
  77.6460419  55.1182404  38.8118362  78.0091782  53.8449783  38.0784035
  30.9144192   5.0506387  10.9843292  30.3973179   5.7112131  10.5233746
  30.2658329   4.4387374  11.3323879  83.5905914   7.8780732  67.9630508
  84.2169647   8.5520401  68.2269745  84.0122681   7.0525584  68.2016830
   0.0547058  24.6396275  68.8730316   1.0054873  24.6453075  68.9835434
  -0.0856006  24.9770107  67.9883118  30.4040966  49.3435287  51.8047600
  29.4872894  49.4668961  52.0506859  30.8617210  49.2264442  52.6372871
  79.1944656  65.2008591  69.2960663  78.7847977  65.6288071  70.0479126
  79.7071915  65.8920822  68.8770752  74.9513931   5.3646083   2.0938027
  74.6353607   5.3431048   1.1905352  74.1946182   5.1036224   2.6186054
  60.1857796  70.9806519  79.4928360  60.9880638  71.3977814  79.1788635
  60.1924362  71.1298981  80.4383087  52.7648048   3.9750884  28.3511143
  53.1524849   3.1050768  28.2561626  53.3961563   4.4621425  28.8806496
  28.3291950  56.4079933  54.4598541  27.7976475  57.2035713  54.4871826
  28.3656349  56.1129189  55.3697052  13.5332918  21.5150471  86.7096100
  14.0903883  22.2933731  86.7004242  13.5974073  21.1851768  87.6058807
  31.7868748  52.3420830  11.1449442  31.9949875  53.2619553  10.9813709
  31.3001080  52.0649529  10.3687429  52.1258011   7.9578691   7.9166012
  52.2959518   7.0560212   8.1885424  51.3681068   7.8938150   7.3351998
  55.8685570  45.8969307  55.8693428  56.7691002  45.9127235  56.1933899
  55.3391418  46.1660995  56.6200066  11.1333647  13.8942890  65.0270615
  10.6015234  13.5856905  65.7606506  11.5518465  14.6910334  65.3531113
  19.5139313  11.2760448   3.3147256  18.5937824  11.3142891   3.0537717
  19.8165684  12.1824312   3.2589889  68.8446274  18.4490299  38.6337509
  68.8755722  19.3883343  38.4521523  68.5124283  18.3890705  39.5294533
   0.5149651   0.9010786  38.8691711   0.9348292   1.5620401  38.3186493
  -0.4220984   1.0742438  38.7788506  39.8156967  25.0875072  71.8162079
  39.2777519  24.8190079  71.0713882  40.6091156  24.5571918  71.7421494
  58.0869598  42.9050941  20.6739693  59.0294952  43.0240173  20.7910652
  57.9359131  41.9806099  20.8708000  54.3269958  42.3762398  15.0846653
  55.2233582  42.5556908  15.3684959  54.4125481  42.1266479  14.1645479
  24.4391594  63.4228935  27.8898220  24.4374294  63.9463081  27.0884075
  24.9919987  63.9154854  28.4964161  32.0267181  67.7684555  35.9548912
  32.4009209  68.5189362  35.4933929  31.0961380  67.7897491  35.7317276
  44.7813950  58.6423035   0.6895595  44.6305046  57.7762222   1.0681978
  44.1048889  59.1955795   1.0800165  47.6966515  66.8701630  82.1343842
  46.9601593  66.2587967  82.1404572  48.3563499  66.4450073  81.5864105
  64.5210495  11.8990984  67.4338760  63.8172035  12.1934290  68.0119781
  64.9555130  11.1998558  67.9222717  30.5772896  31.9487133  10.2697945
  31.2787876  32.5953712  10.3470116  30.5321369  31.7549648   9.3334961
   9.4038963   0.8374830  21.4570961   8.5951128   0.4667854  21.1039906
   9.1912279   1.0555629  22.3645344   2.9827266  38.9758263  76.3731995
   3.2025099  39.8281784  76.7492676   2.2276559  39.1495438  75.8111343
  27.3879280   0.4397955  66.4926987  27.3921757   0.3897347  67.4485855
  26.4698277   0.3185333  66.2505875  49.2881622  60.9071465  71.9532242
  48.3876152  60.7111778  72.2117615  49.2002907  61.5370445  71.2378616
   7.1966972   9.8308802  49.9077873   6.7338576   9.6195650  50.7185631
   6.8592343   9.2031755  49.2687721  66.4147644   7.1997018  41.7275391
  65.8150482   6.4976859  41.9800186  67.2713852   6.7757664  41.6754990
  54.8924675  62.1054649  43.7902374  54.5515366  61.2928085  43.4166222
  54.4659576  62.1737976  44.6444321  82.5969543  24.0732040  13.6016474
  82.1061783  23.4028759  13.1262217  82.8284149  24.7191200  12.9342270
  18.0020771  66.7376404  64.5958633  18.2491550  65.8144531  64.6497726
  18.1662731  67.0811996  65.4740677  33.0768127   1.9577130  11.1697378
  32.3314476   1.7053162  10.6247988  33.4307861   2.7388096  10.7445059
  63.5993614  25.6853752  11.2906933  63.9141846  25.8024330  10.3943577
  64.0713196  24.9170513  11.6118946  46.6380119  15.2684050  40.3535309
  47.5313797  15.6120920  40.3514328  46.1299438  15.9190350  39.8689919
  25.3656654  57.8640976  31.3682671  26.0537605  58.2110596  30.8004856
  25.3806114  56.9196854  31.2130489  45.1616516  60.6308098  36.3553429
  44.5723610  60.6615639  37.1090126  44.7492104  60.0107460  35.7539711
  86.8307037  38.4792480   8.1547194  86.0010986  38.9023476   8.3760042
  87.5003815  39.0971336   8.4479437  56.5166740  14.8330975  83.1662903
  56.0275879  15.6549368  83.1262131  56.3223190  14.4808245  84.0348282
  79.8912125  50.3438263  74.5417099  79.1891861  50.0191612  75.1056137
  80.4410400  50.8697891  75.1224747  36.7146111   3.6502635  52.9583244
  36.7649422   4.2416148  52.2073250  36.0793724   4.0612659  53.5446548
  44.9037971  47.8049507  50.3012047  44.9032974  47.8054581  51.2584076
  44.7501678  46.8909187  50.0620956   4.4033399  22.4160137  69.0845261
   3.7863789  23.0905476  68.8006287   4.2093801  21.6635075  68.5256424
  49.8622398   6.4845133  40.0247269  50.7644463   6.7456446  39.8401680
  49.4230156   7.2984295  40.2714195  53.4710426  20.2880001   1.2763445
  53.3980446  20.5219879   2.2016296  53.2577209  19.3553143   1.2476025
  81.7349777   8.4225636  70.0597153  82.3053818   7.9734187  69.4358978
  82.1220551   9.2928562  70.1545486  15.5445604  62.3531303  75.0461960
  15.3288002  62.3620872  74.1136703  16.3625374  62.8464737  75.1075211
  53.1858559   8.7882853  24.8364258  54.0254898   8.4199476  24.5615158
  52.5893593   8.0398207  24.8513699  62.2570953  22.3046398  13.3115025
  61.7059631  21.5414925  13.4849682  61.7803421  23.0378036  13.7006178
  30.3668861  61.4439735  61.4500313  29.9034386  60.7898521  60.9269867
  31.2240524  61.5220413  61.0312195  26.7688885   2.3835375   2.3835011
  26.5684795   2.6790671   1.4953964  26.2204399   2.9293163   2.9470260
  72.4511185   4.4167857  85.2780762  71.9686890   4.9635806  85.8981628
  72.7555466   3.6743238  85.7999039   5.8869801  28.9707413  26.6028576
   6.7765870  28.7142315  26.3598919   5.3917732  28.1516094  26.5980759
  22.1125011  58.7462578  72.2608643  22.5961971  58.9618759  73.0582199
  22.7801151  58.4233665  71.6556625   9.5838776  64.9263000  72.8652954
   8.8518686  65.5392456  72.7967377  10.3572521  65.4534378  72.6646652
  78.3327026  20.2763577  44.1835747  79.1459045  20.7422504  43.9889412
  78.4869843  19.8715649  45.0371399  70.2763672   1.0507277  84.1188202
  69.5061722   1.6044146  84.2471313  70.9336548   1.6376145  83.7449722
  63.4465523  28.0210667  61.6589890  63.9180069  27.3191185  61.2104034
  62.5272865  27.7577591  61.6159592  71.7396011  70.4612503  79.2997208
  71.9906693  71.0789490  79.9864807  72.1829224  70.7827530  78.5146484
  58.1876259  17.4846611  33.1631165  57.6485825  17.7505875  32.4181709
  58.5414810  16.6319237  32.9104156  49.1277351  40.3130608  16.2060547
  49.5869522  40.0520401  17.0043163  48.5698051  39.5644531  15.9950294
   5.0122361  26.2294044  66.0949860   4.2254229  26.7623234  65.9802933
   5.5980511  26.7766762  66.6180038  51.3663406  34.6890984   6.4859223
  50.9413033  34.2612457   7.2292390  51.2555847  34.0745697   5.7604413
  38.0442162  41.7850914  57.9141731  37.5207520  42.5138092  58.2476273
  38.3967857  41.3648109  58.6985779  42.7249985  32.6525841  19.4670734
  43.6171303  32.6298447  19.8132114  42.1706429  32.4478378  20.2200718
  17.0572701  37.2329216  89.1839676  17.5970402  36.8932381  88.4701843
  16.6961517  36.4521027  89.6036682  73.0249557  20.4184475  44.5125427
  72.5387726  19.7139950  44.9410324  73.8936920  20.0486240  44.3552055
  49.6879730  55.6222572  47.1840858  50.1862755  55.8083725  47.9798813
  49.5572395  56.4789047  46.7775154  51.8331108  30.4527416  27.3284969
  51.8868828  31.2686157  27.8261814  51.9228401  29.7640324  27.9871788
  26.6105309  24.0590706  73.9941254  27.0301781  23.3248005  73.5458221
  27.0378075  24.0929489  74.8499985  78.1951523  67.4202805  63.8429871
  78.3191986  68.2289124  63.3460274  78.9111176  66.8521652  63.5586128
  17.6787796  59.3256378  25.8479939  18.6129723  59.4937096  25.9715443
  17.4970188  58.5655594  26.4006939  78.9670792  63.3837967  82.7819366
  78.9838715  62.4270134  82.7593307  79.8883743  63.6383705  82.8332138
  69.9622879  26.5114632   9.0804672  69.8201599  26.4315090   8.1372614
  70.7128220  25.9446812   9.2584810  12.7253036   4.1238914  12.7861195
  12.2588577   4.5176973  13.5233965  12.1202812   4.2053761  12.0488672
  43.0817146  69.6108170  67.4403687  43.8099861  69.9776535  67.9416504
  42.3575745  69.5698929  68.0650101   5.6315017  49.9284973  60.5227737
   5.4920473  49.4356003  59.7141724   5.6060448  50.8460655  60.2513733
  29.3969421  55.7989769  82.9230728  28.5185909  56.0866394  82.6741104
  29.7728615  56.5488701  83.3841324  13.3022394  28.1005116  30.4997768
  12.8264294  27.3831749  30.0811291  13.2477083  27.9097748  31.4361954
  48.5483208  62.0332794  88.3228531  47.6987000  62.0033417  88.7627106
  49.1842842  61.8674850  89.0187607  23.3352966   1.4496175  64.1731491
  23.3153687   2.2643709  64.6751633  22.9002819   1.6657797  63.3483696
  13.2339525  22.9230747   9.6150675  14.1045952  22.7666645   9.9807854
  13.3689232  23.6074028   8.9595451  78.1175079  57.5899162  20.5257797
  77.5745316  56.8048477  20.5970306  78.9657593  57.3277397  20.8835068
  45.4165726  42.7827682  36.2856827  45.5336990  42.1951370  35.5392227
  46.1610756  42.5951729  36.8573074  57.0612106  37.8005981  18.6528645
  57.1808434  37.8350334  17.7037945  57.9339561  37.9641075  19.0103741
  84.2090530  20.9888554  37.7636909  84.5793762  20.1826744  38.1230850
  84.8776550  21.3108368  37.1590996  56.8388672  65.1586761  24.8929005
  56.5230141  65.1640015  25.7964706  56.3252068  65.8377686  24.4556160
  57.4747620  61.5145073  47.6872902  58.1657906  62.1603050  47.5401154
  57.5279503  61.3156281  48.6220894  28.4039574  55.7178917  56.9218674
  27.6719131  55.1177521  57.0639000  29.1372108  55.3156891  57.3874855
  55.7178078  56.1722298  86.4519577  56.0379791  55.3256989  86.7635803
  56.3884811  56.7976837  86.7262421   3.7831941  35.9747505  74.9846191
   3.2279723  35.2497406  74.6977005   4.5765162  35.8929024  74.4553070
  61.6692352   0.2075645  35.3394585  60.9904976   0.7268692  34.9083366
  61.2234306  -0.5972102  35.6037064  47.8912735   0.8219581  71.5000305
  48.4220123   0.0566341  71.2790680  47.4920807   0.6016883  72.3416672
  24.0331230  71.2753296  45.0223541  24.8730850  71.7308731  44.9659920
  24.2545986  70.4045181  45.3522987  11.7762623  32.6873245  75.0727997
  12.5395555  32.1286011  74.9263687  12.0326576  33.5400009  74.7214584
  30.9187393   1.6064918  80.8560638  30.1433678   1.3156449  80.3760223
  31.6080818   1.6506884  80.1934280  13.9260988  37.8199501  51.9532051
  12.9908981  37.7830963  52.1538887  14.1243916  36.9622536  51.5773506
  15.5362387  69.6433487  39.3047600  15.2348213  69.3465195  40.1634026
  15.3575954  70.5837250  39.3001328  38.7530785  56.8183708  61.7332916
  38.0913696  56.6308632  61.0675507  39.3522339  56.0730209  61.6920662
  39.7337646  54.0365791  22.4909840  39.3688469  54.8920670  22.7172852
  40.5051613  54.2377853  21.9611778  17.9276390  43.1949043  38.3944206
  18.0467167  42.3521690  38.8324242  18.6395531  43.7409172  38.7280045
  15.2507124   9.1938791  76.7788162  14.7407093   8.3937817  76.6524353
  15.2614698   9.6097345  75.9167404  60.0382919  66.0877686  82.9009705
  59.9582367  65.3139420  83.4586639  60.7740021  65.8902054  82.3213730
  45.6676140  25.7376366  38.6432877  45.7810822  24.7900028  38.5701599
  45.1013832  25.9685917  37.9068947  60.3432503  15.8353491   3.8418510
  59.3967285  15.9717379   3.8834000  60.5403442  15.8074465   2.9055779
  17.1584415  42.6551361  19.5432320  16.9998264  42.6512756  18.5992718
  17.4669476  43.5416641  19.7306385  30.1740665  32.5132332  80.1683655
  29.7470798  31.7452984  79.7886353  29.4811268  33.1715698  80.2199249
  33.0978966  64.2424011  45.1310310  32.2153854  63.8816566  45.2162971
  33.1075325  64.6496048  44.2648201  13.1948490   8.9229431  48.5110626
  13.3158398   8.9893103  47.5638618  12.2883482   8.6344194  48.6170959
  76.4854279  41.4184418  39.8890152  76.8680038  42.0366516  40.5116577
  77.1445084  41.3336029  39.2000694  33.6318436  37.1295242  80.6055450
  32.7934837  36.6692848  80.6450882  34.2880249  36.4423370  80.7214661
  43.7113647   0.6600685  65.7420731  44.6150055   0.7331992  65.4349594
  43.6989365  -0.1445485  66.2604065  75.3757019   3.0788758  31.4568424
  74.6410522   2.5498950  31.7678108  75.4802170   3.7585549  32.1226845
  66.6467514  34.1175499  85.4975586  66.4152756  34.8428078  86.0777740
  67.6003647  34.0590019  85.5560532   7.7408090  20.8341255  69.2581406
   7.5601587  21.7720985  69.3198318   7.0767732  20.4253006  69.8132477
  11.1269455  19.1616440   3.9004607  10.4778309  19.8217545   4.1436434
  10.9876814  19.0224838   2.9637263  42.3591003  70.0634384  76.7752304
  41.8846664  69.4684525  77.3558655  41.9317474  70.9108658  76.8995590
   6.5246644   9.4367971  13.1712503   6.3386331  10.2758322  13.5927296
   5.7037206   9.1976509  12.7410278  19.1126709   3.5430348  85.4844589
  20.0389290   3.5747044  85.7237778  19.1044579   3.6906762  84.5387497
  20.7619610  51.7228088  52.2348938  20.6862316  51.0104446  52.8697433
  20.0660324  51.5528564  51.6000481  71.8531494  70.9481583  48.8310738
  72.7235565  71.0165634  48.4387283  72.0207748  70.7590485  49.7543144
  11.3847799  42.4550781  42.7682648  12.2340841  42.7687454  42.4575768
  10.7510500  42.8413429  42.1637650  35.9163246  23.1817284  66.8748627
  35.4041138  23.7152481  66.2672272  35.2803535  22.5773125  67.2575607
  71.4619446   1.4291660  23.2920551  70.8224869   1.2393246  23.9785595
  71.2316818   2.3064816  22.9862289  75.8200378  31.8490925  48.5333824
  76.1613922  32.0315361  47.6579247  75.2687531  32.6044540  48.7377167
  25.7740650  67.2465134  31.7260380  25.6043873  67.2338181  32.6679916
  26.2710381  68.0519943  31.5830269  39.2842102  53.2075195  73.2303696
  39.9598503  52.7374306  72.7417374  39.7205315  53.4850655  74.0358658
  22.5543156  21.0775719  77.7438965  21.7630615  21.5634670  77.9763947
  22.5890503  20.3597622  78.3761749  80.1534653  65.2183609  85.4926071
  79.2674789  64.8758316  85.3745499  80.7254715  64.4786682  85.2879105
  53.4604149  56.5075645  11.7686272  53.5924683  57.4126740  12.0507002
  54.1927147  56.0270844  12.1547775  49.6918564  15.9643373  37.4858322
  49.1813164  16.4031353  38.1662979  50.5633392  16.3548603  37.5509453
  70.0956497   0.3853092  57.7734871  71.0265808   0.3509846  57.5534210
  69.6624298  -0.0744927  57.0543671  39.3929672  69.3748169  34.4413414
  39.1145554  69.6185913  33.5585632  38.5759811  69.2498169  34.9241867
  67.2797318  67.2741623  69.7107544  67.5979843  67.4982147  68.8362503
  66.4483795  66.8258438  69.5555038  44.4874344  70.0473862  39.9010887
  44.7869186  69.1898117  39.5992584  43.5923500  70.1188431  39.5695038
   5.3664246  21.7460060  19.7369728   5.7733598  22.2243118  20.4593716
   5.3044567  22.3878422  19.0295563  38.3285370  18.9664459  77.4588013
  39.0046768  18.6579170  76.8555832  37.5057220  18.6766853  77.0647888
  46.8729591  59.8550987   3.7890630  47.5884247  59.7570496   4.4173360
  46.8316727  59.0110703   3.3394573  31.4172401  53.7771416  86.0681534
  31.1744766  53.7994957  86.9937897  30.6127224  53.5238266  85.6155930
  54.5094070  22.0714054  83.6651459  55.4121628  22.3722191  83.5613327
  54.2229881  22.4549103  84.4940796  63.4847221  26.0173130  34.4452133
  64.4077988  26.1815853  34.6380157  63.3527031  26.3877754  33.5725403
  50.7544212   2.5204222  13.5880709  51.5366364   1.9941597  13.4224911
  50.5911674   2.9736533  12.7609301  47.1045685  45.5412178  69.0147705
  46.2423897  45.9329910  68.8755188  46.9849510  44.6162567  68.7994232
  23.2115669  66.3688965  69.2321320  22.7579269  67.0887222  69.6706390
  22.6410351  66.1372986  68.4992676   3.8202653  25.0848789  83.9925385
   3.2843966  25.3778610  83.2554932   4.1929846  24.2525597  83.7017517
  75.4292984  62.3911896  65.9630356  74.7202759  62.4524765  65.3229065
  75.1047363  62.8688431  66.7264099  77.5008774  68.1048126  52.2535667
  76.9872284  68.4020309  53.0046043  78.1273346  68.8114243  52.0971184
  26.3224182  48.3516502  88.3140488  25.5581474  48.6261520  88.8207703
  26.5329723  47.4807892  88.6509476  24.8624363  17.1187439  60.3446693
  24.8603954  17.8581905  59.7368469  24.2020149  16.5201073  59.9958000
  28.5053463  67.0611343  25.7103348  28.7583637  67.8231735  26.2313957
  29.3318558  66.7183533  25.3703156  12.4997110  40.0261536  24.0708828
  11.8557987  39.9922905  24.7783165  12.7464056  40.9493599  24.0155449
  59.7922440  49.2824364  54.8689537  59.1193008  49.2473869  55.5487709
  60.0310822  50.2078362  54.8158493  15.0331764  14.2945232  10.6185513
  15.7632294  13.7112741  10.4110069  14.4420328  13.7592726  11.1479731
   6.2610674  39.2060890  30.2605476   6.3789773  39.4375381  29.3392658
   5.6739926  39.8798409  30.6035233  44.3312340  69.0831985  79.5587387
  44.0199699  69.0145721  80.4613113  43.6775703  68.6105957  79.0433731
  75.5544739  67.8813171  32.4161720  75.9036179  68.7255783  32.1306152
  74.6482620  67.8802719  32.1079330  57.3978882  19.0266609  15.6791935
  56.7327538  19.0989628  14.9946508  56.9182434  19.1691551  16.4952011
  57.8228874  17.3955193  38.1975136  58.3801079  16.6608753  38.4544868
  58.2228088  17.7301502  37.3948212  34.4668541  63.9023094  33.0790977
  33.8751030  63.2039185  33.3589401  34.9801979  63.5121498  32.3716507
  18.4039288  52.2650452  85.2048798  17.5426311  52.1296349  84.8098373
  18.9783211  52.4627419  84.4651413  73.3679047  70.9747925  76.9858780
  73.0912704  70.1802444  76.5293579  74.3238831  70.9268646  76.9921875
  13.2343483  47.2893066  70.7173615  12.9054346  47.9916878  71.2783508
  14.1033134  47.0910492  71.0663986  62.5824165  18.6484070  84.8181458
  61.9231148  18.8892899  85.4689331  62.7482033  17.7192783  84.9777298
  75.6575546  11.0999060  50.2709579  75.3703079  11.7286539  49.6088371
  76.1533051  11.6241417  50.8999557  21.2106094  56.2071648   0.4079528
  21.1213875  56.2270622  -0.5448720  21.0797806  55.2881889   0.6416225
  45.9820366  31.6617680  18.2889538  45.4995995  31.7385731  19.1121120
  45.4685974  32.1712074  17.6619892  53.7598267  33.5908852  40.4131966
  53.5088425  33.1998672  41.2500610  53.5908966  34.5263252  40.5256538
  36.8638344  69.8588409   9.6957388  37.5050240  70.3106842   9.1471519
  36.3280716  70.5606155  10.0654669  12.7512789  49.2473984  73.1717758
  12.3422422  50.0325470  72.8078232  12.3001680  49.1062164  74.0041199
  65.3869553  11.7782402  64.9318619  65.1767197  11.9922295  65.8408356
  65.1389542  10.8584204  64.8388214   1.5340517  63.0801735  24.5432205
   1.5366124  62.7001724  25.4217567   2.2864528  62.6802711  24.1070976
  63.2858238   9.1417694  83.7218552  62.6889763   9.5821772  84.3268738
  63.5104179   9.8121023  83.0765305  43.2848549  56.1369019  54.7547836
  43.7635994  55.3769760  55.0857658  43.0944824  56.6583061  55.5346069
  57.1849518  69.8727188   4.7998776  57.1187210  70.6812668   4.2918553
  58.1127472  69.6405640   4.7607069   6.1488905  61.1937141  15.3173094
   7.0839639  61.3469086  15.4529572   5.8197012  60.9423790  16.1802673
   9.9062986  17.4838924  85.1421738  10.7094955  17.2090034  85.5843811
  10.1888485  18.1690960  84.5364609   0.0891448  66.0803528  76.8348465
   0.5781811  65.5488205  76.2067108  -0.3795407  65.4432831  77.3740234
  71.3088684  37.2796326  81.5835114  71.0415802  37.0602341  82.4760590
  72.2333221  37.0346909  81.5432816  48.9017372  52.0485344  41.2374840
  48.7198524  52.8766823  40.7932701  48.7712173  52.2410774  42.1659889
  59.6546860  41.2408638  17.5833683  60.2141571  41.6539803  18.2410622
  59.7797623  40.3015289  17.7184067  11.8017988  69.8381500  66.4951096
  12.5531187  70.2099609  66.0330429  12.0179977  69.9369507  67.4223251
  41.2121658  65.6632767  81.0712967  41.6429787  65.0247879  81.6395950
  41.4958611  66.5132828  81.4078064  42.7381592  53.7287445  83.3151779
  42.0390320  54.3761520  83.2239838  43.2312202  53.7918434  82.4971695
  26.3568821   6.5646129  57.3564491  26.8095646   7.1561298  57.9576302
  26.5414238   6.9195881  56.4868698  20.7284698  32.1820374  55.7495842
  21.2467670  32.9567490  55.5318069  19.8507080  32.5221252  55.9230995
  77.5496826  43.7396278  16.6798344  76.8685913  43.1008797  16.4692440
  78.3690567  43.2513885  16.5993538  26.7693520  66.4552765  20.9584637
  26.4912128  65.6301346  20.5609512  27.6778412  66.5625992  20.6767521
  49.5287628  46.1983871  38.7049561  49.4516182  45.3500900  39.1416206
  48.6484261  46.3790741  38.3754196  42.0107841   4.9857197  41.6555672
  41.2528114   5.0560846  42.2358780  41.6345024   4.8718781  40.7828217
  83.6962967   9.8265820  48.2618446  83.5229187  10.2643194  47.4284439
  82.9051514   9.9754047  48.7796936   6.8053784   9.0467215  87.6756821
   6.5766397   9.6725416  88.3628922   6.9984341   9.5899878  86.9115982
  54.5320930  62.6431427  66.6314087  54.2913551  63.5405502  66.8614807
  55.2492867  62.4272575  67.2274399  70.2199173  61.4384079  44.1010513
  70.5143204  62.2555351  43.6987305  70.7124786  60.7559204  43.6451683
  32.3454857  60.1168060  51.9379997  31.4813843  60.4111214  51.6500130
  32.2865791  60.0995827  52.8932304  56.6857719  33.9644012   8.7973213
  57.5157776  34.4404755   8.7713852  56.8339272  33.1946144   8.2480421
  52.2481995  37.7995300  34.6974030  52.3328209  38.6997757  34.3833504
  52.5162048  37.8399277  35.6154289  71.1255341  51.4312096   3.2106597
  70.8147278  51.9860954   3.9260144  70.5354309  50.6775818   3.2183595
  22.1930599  31.4016838  28.1828175  22.3477287  32.0097809  27.4599571
  22.5670013  31.8389263  28.9478130  50.1390114  42.2747879  37.0106850
  50.3459435  42.6267967  36.1449509  50.4602127  42.9377670  37.6218491
  22.6997223   3.3573925  89.2425995  23.6005974   3.2862418  89.5581818
  22.6855755   2.8371787  88.4392242  73.0476761  66.6745453  14.3567591
  72.4882355  66.3419037  13.6549015  73.0340195  65.9853897  15.0209169
  68.0800323  21.3252201  84.9385757  67.8235474  21.0589561  85.8214951
  68.5024643  20.5503540  84.5679474  61.9976921  39.7331886  48.6693230
  62.2964478  40.6423378  48.6487198  61.1622581  39.7661133  49.1353722
  54.5952606  15.6890640  13.9374294  54.5984573  15.0390387  14.6400585
  55.2480583  15.3709106  13.3138390  82.0593872  39.5702095  32.5798035
  83.0028458  39.4210777  32.5174789  81.9789581  40.4086723  33.0344925
   5.4261994  39.6665268  23.6995182   5.6183624  39.6177979  24.6359634
   5.8496184  38.8928452  23.3275490  28.4276161  10.2414751  87.9867096
  29.2233677   9.8952389  88.3906021  27.7680149  10.1950312  88.6788025
  29.4819813  55.0907974  14.5688953  28.7480736  54.7531471  15.0823193
  30.2597103  54.7437172  15.0058260  69.7662506  19.7288284  73.1078796
  70.3230591  19.3883171  72.4076996  69.8189697  19.0681782  73.7985229
  57.9364243  17.5585613  41.8159943  57.7243156  18.1782379  41.1179695
  57.2739754  16.8722210  41.7364349  14.3594637   1.2428256   0.8545980
  14.0355606   0.8490641   0.0444928  14.0780563   2.1564360   0.8060424
  41.4455261  56.0032921  46.0929260  41.0476570  55.8245392  46.9449692
  40.8506775  55.5990562  45.4612770  41.8765221  52.1125069  38.9058609
  42.7715797  52.3237190  39.1713638  41.7439003  51.2129860  39.2050285
  24.3153439  61.6579094   2.8275266  23.8632011  61.7574654   3.6653137
  23.8969364  62.2981606   2.2519867  10.8448792   8.1729088  13.1081553
  10.2107410   8.7730417  12.7158031  10.5327196   7.3015475  12.8641911
  74.3770905  33.8078079  65.5434418  73.5705566  33.5167084  65.9688797
  74.1654358  33.8175621  64.6099854  45.8727112  63.3122864  26.7948456
  46.5757446  63.2386589  26.1494350  45.3533707  62.5171967  26.6750603
   2.9437649  23.2750244  53.2266426   2.9394138  23.1756649  54.1786613
   3.0197721  22.3811245  52.8928795  40.4456291  43.0978546  20.4906845
  41.3534355  43.1772957  20.7836208  39.9326782  43.0936165  21.2988262
  10.1235008  59.6618042  38.6709328  10.1215801  59.9347801  37.7534828
   9.7293949  58.7895470  38.6621170  47.1639748  31.0169506  22.6514721
  47.6706200  30.8979721  21.8481102  46.5111771  30.3172569  22.6287842
  70.5425797  52.8807983   5.4832115  71.0320587  52.8695755   6.3057165
  70.7546387  53.7272682   5.0898271  77.1609421   1.4789232  60.9257278
  76.5552063   2.2195959  60.8988876  76.6754608   0.7578372  60.5250092
  81.4354324  28.2871456  46.6410255  81.3659744  28.6961117  47.5036697
  82.3459396  27.9969711  46.5861397   7.5404062  23.8588181   6.6593375
   8.3072672  23.6649170   7.1983733   7.8573637  24.4848461   6.0082941
  43.8427620  55.0177345  10.0744543  42.8967285  54.9489174   9.9459257
  44.0505867  54.3237228  10.7000656  -0.0767796  20.9988232  75.5614014
   0.6704047  20.5636082  75.9719315  -0.5060762  20.3099804  75.0540237
  67.3552933  56.4527702  28.3037758  68.1791840  56.7000351  27.8839073
  67.2445450  55.5269775  28.0872746  48.6166382  18.1872711  74.7248840
  49.3863297  17.7558041  74.3538742  47.8731079  17.7324352  74.3292618
  85.0432053  70.6485062  84.6651535  85.6398392  69.9177856  84.8273392
  85.6115570  71.3618851  84.3748169  24.1556320  20.4924011  45.9655151
  24.3016243  19.5557308  46.0980568  24.8461952  20.7589207  45.3586197
  50.4723358  27.7076836  84.2554169  49.5745087  27.9142437  84.5151672
  50.6436081  26.8508358  84.6461945  76.5515137  53.6920128  54.2044678
  76.6870728  52.9677467  53.5934944  76.8670273  53.3589363  55.0445518
   3.4830983  25.1968269  46.2663879   3.5206916  25.5615368  47.1505890
   4.3637447  25.3287296  45.9152527  70.0771408  63.5120735  54.2164726
  70.3602524  63.5833511  55.1280632  70.8363571  63.1529694  53.7572708
  47.3979034  12.0051498  33.3107414  47.6415329  12.5268307  32.5460701
  46.7764626  11.3603630  32.9726677  49.4398308  62.5032883  23.0683575
  48.6120110  62.4499931  22.5907536  49.4666328  61.7020378  23.5913372
   8.5027618  35.6740265  76.5753098   8.5356092  35.6765060  77.5319443
   9.1917801  36.2833824  76.3104172  65.6949844  71.2593384  20.2772617
  65.9899673  70.9612579  21.1377048  64.9006729  70.7528381  20.1076641
  84.9894485  17.5694599  70.0056152  84.3936539  17.8363247  70.7056503
  84.4282761  17.1257553  69.3696518  48.0411949  61.3905602  58.1363907
  48.5036926  60.5752945  57.9423065  48.5046654  61.7552032  58.8903542
  63.9593658  33.0910339  72.9992142  63.0878296  33.2340431  73.3682709
  64.4633102  32.7071915  73.7168045  67.6048813  37.9739304  25.2596893
  67.6456680  37.6453056  26.1577835  66.7190247  37.7604828  24.9665489
  45.0945778  67.3568344  59.8075371  44.1888657  67.5822525  59.5951653
  45.1218987  67.3509750  60.7643280   7.2319713  23.4964085  45.3908501
   6.7751164  24.3296947  45.2761841   8.0909700  23.6374550  44.9927826
  16.2383442  34.2923279  74.1238937  16.8331852  34.7156410  73.5048599
  16.6847649  33.4818497  74.3689880  73.2370148  52.0183830  11.5613785
  73.6216583  51.9757385  10.6858978  72.4856033  52.6034050  11.4646187
  65.5075989  34.7199020  46.7942696  65.9710617  35.0735741  47.5534439
  65.3953781  35.4705811  46.2110748  55.0590477  28.7960434  66.1963730
  54.8350449  29.4874115  66.8193207  54.2190552  28.5278912  65.8238983
  15.9081221  71.3119583  55.2842445  16.7109718  70.8581238  55.0279312
  15.2037640  70.7192993  55.0218201  45.8582497  50.6720161  87.4537735
  46.5988655  51.2783699  87.4613190  45.1101341  51.2043152  87.7243576
  52.3174362  57.0400238   4.8900766  53.2150116  56.7848969   5.1033869
  52.2833672  57.9775734   5.0800037  40.8937492  59.2568245  82.3779449
  40.2440758  59.8305016  82.7842026  40.6395187  58.3755035  82.6515808
  65.3712921   8.6519089  47.8599243  65.0851517   9.4401588  48.3214645
  66.0578613   8.9574337  47.2670517  42.7552147  68.0453873  19.7927074
  42.2114143  67.6927795  20.4971085  42.6213951  67.4419250  19.0618477
  43.9008980  65.7675476  43.8416061  44.8030548  66.0874100  43.8364334
  43.6516342  65.7687836  44.7657814   5.8862009  22.3141670   2.2295609
   5.2414289  22.6421471   2.8564022   6.6720858  22.1588116   2.7534711
  21.3607063  47.1795273  11.7030878  21.5937119  46.4478989  11.1315479
  21.3498898  46.8022652  12.5827398  53.5925064  52.3357925  40.0451584
  52.9407616  51.8073006  40.5057640  53.1571159  53.1747131  39.8939171
  74.8000412  36.6700134  67.6322632  74.1058197  36.8063049  68.2770233
  74.4514847  36.0012703  67.0427551  36.1032028  44.1992645  56.9132195
  35.6084175  45.0111275  57.0241394  36.8882294  44.4610367  56.4321404
   6.4762988  64.5882416  70.7138748   6.9537616  65.2235107  71.2474442
   5.9153347  65.1217804  70.1509476  14.8617353  41.6392326   9.3108368
  14.5143862  40.8136520   9.6484718  15.5373163  41.3769531   8.6855116
  62.7215004  26.3010902  21.4039478  63.1802750  25.6159286  20.9178295
  63.1275978  27.1163960  21.1096821   3.2235329  12.6041040  28.8378620
   3.0293717  13.2397671  29.5266762   2.8420260  12.9843397  28.0465946
  67.7305603  26.7039795  15.2934732  67.9446869  27.5574589  14.9167080
  67.1932602  26.9080620  16.0589104   2.5164130  28.4583073  12.9169750
   2.3833652  27.6442623  13.4026289   1.9467571  29.0926418  13.3521099
  66.8893814   9.9479494   2.1795588  67.4375458   9.9678259   2.9640033
  67.1492538  10.7258253   1.6859924  31.4751034  51.9168930  53.3241653
  31.7211590  51.0590820  53.6703644  31.8586597  51.9403572  52.4474869
  82.9055710  49.0535088  45.5065269  82.5880890  48.4253502  44.8577995
  83.2029419  49.8021545  44.9894867  24.6466579  30.9433308  19.0964775
  25.4929771  31.0749569  18.6690998  24.5594749  29.9927597  19.1675072
  58.0382462  26.4774685  16.0393353  57.6895103  27.0455437  16.7262897
  58.3744392  25.7135506  16.5079899  40.4090385  68.7939529  51.2225380
  39.9986305  67.9928665  51.5481987  40.6284218  69.2887039  52.0120468
  69.6631851  10.8555851   9.4243488  70.0820236  10.0007076   9.3243914
  68.8793564  10.8036890   8.8774014  55.3501015  36.9091949  69.1968155
  56.0261002  37.4695015  69.5780182  55.7025642  36.0225677  69.2735672
  67.2038727  48.0960045  81.3144913  67.5272293  48.7259521  81.9585648
  67.9663620  47.5576820  81.1022415   0.5435918  28.6677876  21.2636662
   1.2406192  29.2961655  21.4521484   0.3333410  28.8128605  20.3411808
  74.1086578  38.1145477  23.2801952  74.9110184  37.6306763  23.4759464
  73.4321747  37.6750183  23.7953758  38.2902412   7.1322923  74.5924225
  38.1021309   6.1956925  74.5322037  38.0163994   7.4864702  73.7463760
  79.5204391  10.5964479  50.9433441  79.5146790  11.1781673  51.7034760
  78.6863937  10.1293755  50.9928589  84.7354660  12.7449980  40.0408134
  85.2139816  11.9204636  40.1268044  85.3343201  13.4066849  40.3869019
   4.9724846  33.9529991  83.2725983   4.8450265  34.6911278  82.6766586
   4.1132784  33.8162804  83.6717300  55.4880447  38.0924721  52.7098122
  54.6109962  38.1268883  53.0916862  55.3527222  38.2826881  51.7815132
  23.7023869  52.6140175  82.8559875  24.3997021  53.2657051  82.9287033
  22.8931236  53.1200943  82.9281845  63.3919487  34.7243462   8.7680826
  63.3865891  33.7676773   8.7366438  63.7759476  34.9893036   7.9322758
  47.7192574  25.3997250  60.3751335  47.9529228  26.3162441  60.5221901
  46.7803612  25.3597565  60.5570984  17.2982292  64.2357712  75.8463287
  16.8254490  64.3682404  76.6680145  17.3123932  65.1004715  75.4360580
  65.5547409  65.0925751  58.4679985  65.9031448  65.1491470  59.3577461
  65.7632370  65.9400177  58.0748062   7.8294215   3.2554154  82.1568756
   7.9187503   4.2049294  82.2385788   8.7138128   2.9184346  82.3001556
  73.6674728  70.4407120  10.1104870  74.4072037  70.6063004   9.5260105
  73.4864120  71.2895737  10.5140753  13.0638008  66.9054260  54.0583305
  12.9683418  66.4641190  53.2143135  12.1957693  66.8487701  54.4577599
  74.9379501  55.8489456  73.8780823  74.0064087  56.0633774  73.9280167
  74.9578705  54.9172478  73.6595154  66.2989883  70.8506622  23.2823906
  66.5296402  71.7491608  23.5184822  66.9561081  70.3112411  23.7222118
  50.0760651  65.8557281  24.4038277  50.4976654  66.3858109  23.7274456
  50.8025818  65.4730225  24.8957043  75.9430923  58.5737038  35.5760803
  75.2529221  59.1823273  35.8396568  76.5196381  59.0933914  35.0159492
  84.3718872  34.9402351  42.0900841  84.5981674  34.0153770  42.1883812
  84.5171661  35.3159561  42.9583931  23.7763901   6.9001279  88.7815781
  23.2601604   7.2854609  89.4895782  23.3028812   6.1020479  88.5468674
   4.3132772  19.6241035  37.6255569   4.1563492  18.7174568  37.3617439
   3.9367104  20.1479111  36.9184113  30.1417904  56.2429848  71.8634872
  30.1309757  56.4966087  70.9405594  31.0604916  56.0468826  72.0472336
  85.0749817  39.3445091  57.7419701  84.1923904  39.7118835  57.7898750
  85.0388641  38.7291718  57.0096550  85.1484528  54.9431152  84.6430054
  85.1392365  55.8984871  84.5846176  85.9172745  54.7431946  85.1770248
  70.2504196   7.9430900  72.4612274  70.6082611   7.1308880  72.8197098
  69.3036957   7.8580084  72.5739670  22.0867138  24.7449284  14.5105782
  21.7067375  24.0033951  14.0394306  22.9604931  24.4462261  14.7626066
  37.7262764  59.3948784  31.7488537  37.4866104  60.0074272  32.4442520
  37.0213661  58.7473259  31.7466259  19.2554035  44.2343712  13.5212765
  19.4145622  43.3340607  13.2378225  20.1097984  44.5460968  13.8197184
  63.0718613  60.5910454  86.5539093  63.6491318  60.1103592  87.1471481
  63.0286522  60.0462379  85.7680588  31.5639343  49.6898384  41.7191277
  31.8350029  50.5864983  41.9159813  31.0870361  49.4070244  42.4993935
   1.2610606  67.5540009  66.7566223   1.6677358  66.8780518  67.2987747
   0.3203548  67.4146042  66.8655853  50.2936249  49.4122086   4.8828225
  49.3393402  49.3759995   4.8175521  50.5032349  48.8607445   5.6366024
   1.8408141  25.8236732  56.4107361   1.1094872  25.2386150  56.2130013
   1.5645517  26.6752987  56.0721397  54.4740448  53.9743690  30.6423645
  54.7730598  53.7456856  29.7622929  54.8247566  53.2815628  31.2020512
   6.6871653  44.7169762  57.8511620   6.8421955  45.5701599  58.2564735
   5.7357759  44.6645203  57.7598457  25.3294525  26.7879868  22.4435692
  26.0502243  27.3490162  22.7298622  24.5774822  27.3770046  22.3816757
   1.6653411  46.8768921   2.4306271   1.9986268  46.1956291   1.8466467
   0.8819040  47.2071228   1.9908482  55.8077049  20.2057915  33.3657684
  55.2039986  20.9115849  33.5973396  55.2526588  19.5387440  32.9617882
  34.6716309  30.1472034   5.5062647  35.5935516  30.2745819   5.7300248
  34.4513397  30.9016190   4.9598565  27.8194656  55.7297783  75.9814453
  27.1317368  56.3921509  75.9142075  28.6197243  56.1886101  75.7259293
  73.6005325  61.7793541   9.4945040  72.8068619  61.6422806   8.9772749
  74.2103882  61.1126137   9.1786470  44.6882057  15.8390970  68.4340363
  44.6491852  16.7229309  68.7994766  45.5108948  15.8181562  67.9451752
  42.9176216  30.5221672  88.8518295  42.0987740  30.8852539  89.1893005
  42.9085159  30.7371140  87.9191208  55.9160881  51.2737885  70.5931091
  55.8902893  51.9873466  71.2306061  55.9877777  51.7124596  69.7453690
  85.5427704  19.5496006  86.1575012  85.8749084  20.4130974  86.4030457
  85.7630768  18.9880257  86.9006882  42.9142876  25.9309635  65.3071365
  43.0167656  26.8458958  65.5691071  42.3540039  25.9651413  64.5317993
  85.7847061  50.8045425  47.2534370  85.9896774  49.8769646  47.3709679
  85.9905777  50.9808807  46.3354225  41.5505066  53.9949341   5.8958979
  41.7348137  53.4136810   6.6337390  40.9765015  53.4834900   5.3256564
  10.7024164  41.2665939  47.4332047   9.9016209  40.7425919  47.4527283
  10.7522497  41.5945015  46.5353050  70.9317780  21.8867512   0.4617819
  70.1151810  22.1233101   0.0219706  70.6692963  21.2533607   1.1297271
  10.8264093  48.8923836  75.2026520  10.3009424  48.4709702  74.5225601
  10.4675961  49.7773285  75.2686386  14.9919310  38.9192238  25.4580956
  14.1591616  39.2363434  25.1085777  15.4949226  39.7138252  25.6365356
  28.7969360  46.8432388  84.3993607  27.9289608  47.0665817  84.7354660
  28.9036827  47.3962784  83.6254196  73.8288574  52.0578003  28.0496922
  73.6061554  52.6772919  27.3548088  73.5480270  52.4909401  28.8557682
  10.2003908  38.7133904   6.9100599   9.8021984  39.5119400   6.5636601
  11.1111612  38.9540672   7.0797796  35.8355446   5.4249930  68.4022522
  35.9259529   5.2221169  69.3333282  36.1019058   6.3415318  68.3298645
   1.0779318  39.7705231  41.9345512   0.6334044  39.1314240  42.4914894
   1.3510636  39.2695351  41.1660194  60.1778107  40.0392838   9.9992723
  60.6322289  39.8849030  10.8274651  59.2487946  39.9707375  10.2194138
  10.5960016  23.4985733  10.4572868  11.2159395  22.9229679  10.0094194
  11.1461496  24.0878372  10.9733658  69.4265671  63.9013672   2.4737585
  69.8991928  64.3240204   3.1908519  68.5802231  63.6632423   2.8522139
  48.3714676  33.4825668  18.4385433  47.4636116  33.2679443  18.6529427
  48.7284317  32.6739159  18.0712643   5.8361154  61.6392632  36.8435783
   5.5295815  60.8194618  36.4560318   6.4829078  61.9713821  36.2210121
   8.4906855  35.5973206  79.2674637   8.1362820  35.1790390  80.0521088
   9.4103699  35.7597733  79.4772797   9.6055794  40.4274101  39.1800880
   9.8910227  40.2466393  40.0756760  10.3574867  40.1913757  38.6368065
  82.9384995  27.9665394   3.1761146  83.5588074  28.4787121   2.6573462
  83.4540558  27.6425629   3.9146714  22.3826962  40.1386833  36.8237572
  21.9783421  39.2791290  36.7058983  23.3151646  39.9880066  36.6687317
  69.5854950  35.4094658  29.3268356  69.8210754  35.8407364  28.5054111
  69.9652786  35.9657631  30.0069313  62.1719971  51.1034737  50.6336823
  61.6072083  51.3256340  49.8934860  61.6517525  51.3235664  51.4064293
  86.3447418  11.6888151  14.8459501  86.8230896  10.9019156  15.1071167
  86.0389175  11.4998274  13.9588270  15.7809811  31.5982494  82.1069260
  15.1792107  32.3360596  82.0082397  16.6481266  31.9746685  81.9565887
  27.0097294  18.8141918  82.5662079  27.5366192  18.0515804  82.8050461
  27.6509705  19.4801884  82.3182373  76.2641907  25.9156666  45.5174217
  76.5944214  26.6607323  46.0194740  75.3175964  25.9324322  45.6585236
   4.4428430  67.5023041  66.1982346   4.8929229  67.3890991  67.0354004
   5.1249409  67.8045197  65.5985336  22.7431335  36.2647133  19.1399956
  23.3891640  36.8366966  19.5543709  21.9406242  36.4065514  19.6420822
  46.0480080  13.3161602  41.9090233  45.7512474  14.0692348  41.3980980
  46.9912682  13.4480991  42.0043373  14.1648207   1.2516192  81.1109161
  13.3621016   0.7433998  80.9943542  14.7080231   0.7128246  81.6861191
  80.7502136   5.6895981  77.8669586  81.0895538   5.4498429  78.7292786
  81.3622665   5.2897820  77.2490845  11.2585640  31.0548344  87.2209320
  11.8873243  31.7694702  87.3218689  10.4047642  31.4873142  87.2061462
  18.0365028  57.6686707  68.8803253  18.0944500  57.8659096  67.9454651
  18.9413338  57.7084923  69.1900482  77.7476501  43.0043449  33.7825737
  77.3013611  43.1748886  34.6120148  77.8768234  42.0559769  33.7706718
  54.6953735  44.4529152  75.2578049  54.8577766  43.6129494  75.6871185
  55.2839394  44.4538345  74.5029373  64.4350815  40.4355507  16.9611206
  64.6796417  39.6816177  16.4244576  63.6769295  40.8118858  16.5141258
  81.1760635  25.3443184  48.3889084  81.6566849  25.4900341  49.2037697
  80.6458817  26.1336765  48.2791138   7.6868057  38.2600975  12.7263288
   7.8411889  38.6229820  13.5985174   6.7335787  38.2323685  12.6437368
  72.7978287   6.4621644  80.8659821  72.5093918   6.1362438  80.0134506
  73.6277924   6.9034972  80.6853867  61.9526062   0.8765547  31.3816719
  61.7185669   1.6948187  31.8197365  62.3126678   1.1508842  30.5382671
  55.4095230  13.5969906  17.2611694  54.9336205  13.1911974  16.5365429
  56.1019325  12.9710617  17.4733353  29.6374435   6.9649291  87.5480881
  28.8144817   6.7529969  87.9886017  29.9082222   6.1433754  87.1382599
  43.2682114  56.4321594  63.0760002  42.9185982  56.7530327  62.2447128
  43.0447693  55.5014648  63.0865211  39.4409561  51.2056465   7.1480699
  38.6912727  51.7165031   6.8427291  39.1098747  50.7241592   7.9062190
  47.8106270  45.4879150  42.5077438  47.3408241  45.3763161  43.3342209
  47.1209679  45.5988655  41.8533020  62.3749542  41.4123459  15.2700195
  62.8278656  42.1850929  14.9324341  61.4498940  41.5787010  15.0888538
  57.5092697  58.1126556  40.4226227  58.0409126  58.0833130  39.6271820
  58.1467781  58.1222916  41.1365700  71.1829758  47.8019485  46.9993172
  70.8193130  47.2162018  46.3353271  70.7969208  48.6555634  46.8030090
  55.9000092   9.8781776  11.2626619  55.3532295   9.1630821  11.5880842
  55.2777061  10.5624485  11.0161972  59.3058128  67.6793137  16.1892490
  59.1740456  67.1502762  16.9760075  58.4947968  68.1795425  16.0983868
   5.5992208  32.8750992   6.1302500   5.6143522  33.3239937   5.2849708
   5.5775666  33.5812492   6.7760949  74.0698700   2.5569787  29.0204010
  73.7216415   3.1166615  28.3263359  74.8866882   2.9812987  29.2830696
  50.0306816   0.9235820  77.1746140  50.0805664   1.3975487  78.0047379
  49.5572052   0.1190546  77.3862457  56.6327553  64.0063095  64.8257751
  56.8170700  63.1364365  64.4713974  55.8893318  63.8728027  65.4137573
  12.3625708  42.9929886  36.3151703  12.4498396  43.7394981  35.7224312
  12.1397238  42.2581596  35.7436829   5.1125827  31.8498249  31.8604794
   5.0992393  31.2262573  31.1343822   4.9296989  31.3188229  32.6356049
   3.0324767   5.7679787  83.7186203   3.6895444   6.4386158  83.9049988
   2.9645412   5.7580276  82.7638855  12.1184740  14.8941813  78.2188568
  11.8732662  15.1605215  77.3327637  11.5178947  14.1790237  78.4288254
  19.0280380  44.3377686  85.1486893  18.3822269  44.5652580  84.4798050
  19.6154556  43.7195206  84.7140198  81.5608597  41.7702484  34.4154549
  82.1314545  42.1037560  35.1078606  81.1994019  42.5553246  34.0040703
  17.1585865  52.6337509   4.8829646  17.4024467  53.5344620   5.0962291
  17.9351101  52.1176910   5.0995851  44.5783348  42.4556046  27.6170006
  45.2081070  43.0641975  27.2306938  44.7184715  42.5329170  28.5607243
  71.9505844  24.7685604  87.0035400  71.0503159  24.4436665  86.9894791
  71.9906998  25.3943462  86.2803421  82.7313385  44.8081055  13.5309467
  82.3352890  45.6773300  13.5928745  82.7764893  44.6318817  12.5911922
  70.8038177  42.0109787  32.2066574  71.2284698  42.5404968  31.5317345
  71.3817291  41.2560425  32.3176575  85.7612152  40.6122475  38.0924721
  86.5744400  41.0641212  37.8672752  85.8859711  39.7196732  37.7700119
  42.5581436  55.9107857  85.8314133  41.7361717  55.5996819  86.2106247
  43.0962067  55.1236076  85.7473297  73.6936646  13.7833443  29.4876728
  74.0633621  13.1897211  28.8340950  74.2854996  14.5356483  29.4899292
  34.9063950  63.3777428  25.2016430  34.7597275  62.5816193  24.6908531
  35.7020378  63.7579918  24.8293591  58.9211273  20.2017727  57.7934799
  59.8285332  20.4047871  57.5662422  58.5314903  19.8968525  56.9740677
  68.9516220  19.6398430  14.6467094  69.5303040  20.1647911  15.1996880
  68.2097473  20.2157383  14.4617786  14.9162302   9.8427010  57.5647850
  15.8609161   9.9809399  57.6332703  14.5972290   9.9187212  58.4640579
  72.0476913  41.1273117  64.1607208  72.4372940  41.9997749  64.1037216
  71.3028641  41.1579170  63.5602913   4.1857238  67.3844070  11.7476835
   3.4931529  67.1571350  12.3681068   4.9112482  66.8028946  11.9750366
  47.9300766  32.5658798   2.4012814  48.6779556  31.9718647   2.4649413
  47.4982185  32.3204269   1.5830631  24.2499428  37.4190407  87.3776398
  23.5978050  36.8384552  86.9853821  23.7383671  38.0310555  87.9067535
   5.0876260  41.3934669  47.0915222   4.5470233  40.6319199  47.3013496
   4.6415997  42.1275291  47.5139503  27.8868656  45.8322372  14.9053812
  27.8669605  46.3363914  15.7188082  27.7338772  46.4805450  14.2179775
  63.0087318  69.4716797  37.9628296  63.0418434  69.3430710  38.9107742
  62.1997490  69.0385437  37.6904755  73.0473175  37.7069092  73.8708038
  73.9900513  37.7608109  73.7140503  72.8315430  38.5256767  74.3172302
  59.1343918   3.0994253  65.0892487  58.9081917   3.2310905  64.1685257
  58.6534920   3.7840378  65.5542984  61.6944122  69.9613571   7.7543015
  61.6452332  69.2522049   7.1132712  61.0494766  69.7263336   8.4214220
  78.9411087   5.3993087  48.1440315  79.3064499   6.1634483  48.5899582
  78.5689545   4.8669286  48.8470955  84.6060028   6.5272379  51.7274361
  84.3889465   6.2037034  52.6017609  83.9960556   7.2503338  51.5813751
  47.5974655  48.6826057  68.7846375  47.6561470  48.3118629  67.9041061
  48.5077896  48.7994728  69.0564651  81.0174255  24.5442829   0.6099239
  81.4466248  25.3375473   0.9304788  81.4568176  24.3523121  -0.2185177
  69.2042999  37.5465126  14.0368547  68.3853760  38.0355225  13.9564495
  69.8208847  38.1726532  14.4163332  29.1819897  70.7999496  45.9490433
  29.7124615  70.7023621  46.7398071  29.1709347  69.9260330  45.5586815
  65.2060852  42.0079613   7.7360139  65.9307709  42.4249954   7.2700200
  64.4410172  42.1714287   7.1844954  24.0403709  66.2976990  42.6037025
  24.8304596  65.7772980  42.7492104  23.9350281  66.8036041  43.4094315
  74.5447083  70.6892548  52.7982254  73.8197708  70.6690140  53.4229546
  74.9393387  71.5531769  52.9171677  83.6492004  15.0069075  85.4733429
  84.1536407  15.3822193  86.1950836  84.3080978  14.6229639  84.8948364
  33.0361862  71.1335220   3.0474665  32.1790276  71.3452606   2.6777668
  33.2434654  70.2692719   2.6920185  68.5773468  58.3698235  85.4833145
  68.7980423  59.2758331  85.6993561  68.7082825  58.3105507  84.5369644
  79.6195908   3.3764801  84.2683945  79.2999039   2.5608294  83.8827209
  79.4750214   4.0353460  83.5892563  14.5824070   8.3082571  28.1723957
  14.9469585   7.7621737  28.8689060  15.2863197   8.9188671  27.9535484
  56.2661095  42.1669846  77.7161255  55.8569107  41.4601898  78.2153549
  55.9249420  42.9687500  78.1123657   9.6391668  43.9139938  21.5833874
   9.8735094  43.0749931  21.1866608   8.9104671  44.2349205  21.0521278
  42.8740234  61.2074585  87.1600342  42.4828568  60.9051132  86.3403931
  43.8055115  61.0066681  87.0692673  50.7389565  39.7366219  30.4685364
  50.0302620  39.3308449  29.9692059  51.1806374  40.3057747  29.8382874
  47.1480713  64.3554993   8.7761059  48.0369110  64.2017441   9.0963449
  47.1918640  64.1532516   7.8415422  30.7887611  56.2705116   9.2703352
  30.6159687  56.8337173   8.5158987  31.7094173  56.0246773   9.1798344
  65.8160858  41.0275955  13.2641592  65.6222916  41.5556641  12.4896822
  66.1430969  41.6566505  13.9072676  62.8903351  63.1895523  24.1570873
  63.8137627  63.2890739  23.9255581  62.8877678  62.5353661  24.8558483
  75.2909546   9.8315191  81.5880127  75.2953110  10.5321894  80.9358826
  74.4134140   9.8642769  81.9689102  77.6329956  49.0541229  21.8122578
  77.7335205  48.2572365  22.3329296  76.6877670  49.2015305  21.7800312
  74.2416077   2.4429927  25.4532299  73.8144760   3.1257963  24.9359608
  73.8833694   1.6239425  25.1110973  60.3003044  48.0162086  14.6398973
  60.6784668  48.4929161  13.9009962  59.9718018  47.2026711  14.2571831
  20.6276588  49.4090271  53.7996750  20.4643726  49.5250168  54.7356873
  20.4928455  48.4737282  53.6471252  67.6921768  39.1902237  82.4550781
  66.7650146  39.1679153  82.2182159  67.8362885  38.3750648  82.9356766
  85.3172836  68.8062592  79.3502121  84.6437378  69.4754562  79.4716415
  84.8346786  68.0289993  79.0687943  11.5811205   2.7032676  37.8406143
  11.5650282   1.8829963  37.3475342  12.4020157   3.1221437  37.5819511
  38.5563316  53.7417183   9.2336693  38.7982025  52.9884834   9.7725267
  38.2536125  54.3979187   9.8613558  64.9234695  50.1810532  18.1428318
  65.0550461  50.9633255  18.6785259  65.0619965  50.4800873  17.2441559
  46.2325020  15.6372719  13.3011408  46.9344025  16.2406387  13.5451021
  45.4270782  16.1048737  13.5222101  45.8569031  42.6249428  33.1794853
  45.0303345  42.1423645  33.1910172  46.1283836  42.6130867  32.2616653
  68.5193787  58.5628891  82.8985748  68.6168060  58.0914955  82.0712128
  69.0687943  59.3401680  82.7975159   8.6857224  33.1400185  86.8746414
   8.1832104  33.0193748  86.0689316   9.2295771  33.9091797  86.7048187
  29.4894428  27.5173683  76.1865311  29.9368343  27.6322861  75.3481598
  28.6871090  28.0325584  76.1024475  35.0533218  70.7538605  24.3895035
  35.9961777  70.8143082  24.5431328  34.9581413  70.0356064  23.7639771
  37.2683601  67.5177155  15.1543446  37.6757889  68.3398132  14.8816118
  36.7852936  67.2222214  14.3826141  85.6166153   9.4713583  78.6639328
  85.0958023  10.2334213  78.9173813  84.9980545   8.8985262  78.2106400
   6.0512156  34.9210930  40.3673973   5.5370469  34.2219391  39.9636116
   6.2051873  35.5453186  39.6582642  60.8905106  47.5143089  84.2890549
  60.8830681  48.0412598  83.4899979  60.0417519  47.6858368  84.6969910
  50.4289246  68.8308182  74.9738388  50.2187614  68.5568237  75.8665771
  51.3049469  68.4791183  74.8153152  66.6864090  60.3987923  10.2329254
  66.0732956  60.9423332   9.7380686  66.7354507  60.8155670  11.0932312
  21.5066204  46.0021706  14.1550522  22.2138252  45.9740448  14.7994928
  20.8169022  46.5132599  14.5785017  46.1388702  12.9188280  13.4426737
  46.4664574  13.7539425  13.7765923  45.4957924  12.6365118  14.0930414
  19.2070560  57.8124199  20.9136925  18.4509964  58.3014946  20.5890217
  19.6799717  57.5503731  20.1238098  49.8373337  46.1253967  33.7070541
  49.6236191  46.8204842  33.0846291  49.0060539  45.6756821  33.8586006
  44.4701157  13.2438145   1.0808022  44.0277672  12.9121542   1.8621868
  45.3671150  12.9185581   1.1571430   4.3310347  38.5242653  47.6612473
   3.8717899  38.4735413  46.8229446   3.7213814  38.1410751  48.2919006
  77.0230255   2.9466548  27.4043617  76.7903671   2.0650725  27.1129608
  76.6597672   3.5244257  26.7332020  65.8927689  32.4355888   7.2239494
  66.0401154  32.0484352   6.3610287  65.6195908  33.3343010   7.0397706
  19.7965698  40.0437202  22.7153320  20.0101833  40.1067581  23.6462612
  18.9361076  39.6248932  22.6948643  17.2462940  45.2026939  46.3038025
  18.0345402  45.6349716  46.6324844  17.4677429  44.2714729  46.2999344
  21.8953495  64.6496429  45.0898323  21.8815250  65.5161285  44.6833420
  20.9740353  64.3956680  45.1437988  59.8896408  67.2759857  76.9426956
  59.5722733  66.8531494  76.1447449  59.6949272  68.2044907  76.8154297
   9.1984110  15.0457706   1.3996682   9.0277243  15.7061796   2.0712018
   8.9356804  15.4643030   0.5798907  59.0870018  18.2016678  35.7295723
  60.0332184  18.2047539  35.8741302  58.9881630  18.0230236  34.7943993
  69.8742065  56.3694687  67.0878296  69.6516342  55.4596558  66.8905182
  70.5613327  56.5897598  66.4588852  74.1838989  71.0393677  25.0978127
  74.3813858  71.2351837  26.0137215  75.0399246  70.9006119  24.6925926
  57.7734070  44.5393410  79.3858948  56.8166199  44.5621796  79.3693771
  57.9855499  43.8061104  79.9634705  37.4139061  44.5448532  43.0450325
  37.5092545  44.5990105  42.0941353  37.7965813  45.3594742  43.3708992
  78.6942444  42.5651474  26.0420227  78.6333313  41.6220207  25.8902626
  77.8925476  42.9215927  25.6593266  85.4615326  69.8397903   5.6390362
  86.2968521  69.4753418   5.9317017  85.2960358  69.4140396   4.7978587
  86.4410172  19.4071255  71.8911133  87.2221527  19.8477516  71.5565796
  86.0410690  19.0088959  71.1180038  66.3466568   3.2012684  56.0597725
  66.8474045   2.5326777  56.5271759  66.9812546   3.8956335  55.8826447
  79.5751953  70.4738464  44.3421860  78.8107605  70.3929138  43.7718239
  79.4584122  69.7866364  44.9981842  13.8418484  55.0902328  34.7132530
  13.4644737  55.9691658  34.7492065  13.1157436  54.5287437  34.4417076
  71.4002838  20.8294659  86.9233551  72.1648026  21.3915615  87.0490494
  71.1222534  20.6013775  87.8104324  60.4641151  52.0131798  55.0924034
  60.5771980  52.2990532  55.9988899  60.1134453  52.7810211  54.6410904
  39.1036072  56.5072975  38.9719391  39.9967194  56.2970123  39.2446327
  39.2008247  57.2685471  38.3998528  73.4255753  25.1791496  46.2099037
  72.5657196  25.1309242  45.7920990  73.5533142  24.3125343  46.5957680
  74.2393799  39.9163017  84.6204071  74.9300995  40.5511780  84.4305038
  74.2360153  39.8443565  85.5748978  13.0885639   4.5214467   6.9523506
  12.8406210   5.0597992   6.2007308  12.3007717   4.4906387   7.4951825
  11.4407625  60.5324974   2.9386997  12.0770102  60.0304718   2.4293971
  10.5918264  60.1696053   2.6860199  63.1963615  15.1625290  79.7605438
  64.0522766  15.2337999  79.3379745  62.6313705  15.7491293  79.2576294
  82.4142151   2.0256464  81.8195572  82.5689163   1.3286319  82.4571075
  82.8296585   2.7978599  82.2033920  75.0349045  40.5739136   7.6653819
  75.3535156  40.7513313   8.5503902  75.2465744  39.6526337   7.5148172
  24.9793930   1.2085258  23.8018341  25.1562290   1.2616405  24.7410564
  24.9290428   0.2700491  23.6202908  77.0365906  60.1869125  75.1903763
  77.4685822  61.0396194  75.2404785  76.7270889  60.1279526  74.2865143
  66.3798447  43.3683624  23.1806564  66.0810394  43.7520409  24.0051212
  65.6710739  43.5469475  22.5626068  84.9049225  28.3609886   0.9363559
  85.7397919  28.1048622   0.5444201  84.8867188  29.3148975   0.8591631
  50.4424896  15.5090599  84.7558212  50.2847977  15.3667326  83.8224869
  49.5907249  15.3634720  85.1675644  31.7579212  31.6963882   4.1562982
  31.0301189  32.0238800   3.6278241  32.2944450  31.1962471   3.5412924
  72.0617905   2.5126085  40.7327919  72.8588791   1.9882188  40.8095741
  72.0341415   2.7729545  39.8120918  52.6084480  58.9514885  59.0631409
  52.7075119  58.0297050  59.3013344  53.1758156  59.4194794  59.6757660
  52.3338699  16.3032494  34.1563034  52.9476013  15.5732832  34.2382545
  52.7907677  17.0458164  34.5513573  62.2027435  61.7306290  20.8401947
  62.2471848  61.3805199  19.9504318  63.1082268  61.9547615  21.0548935
  67.7389908  36.3022079  68.1851425  67.7668457  36.1438866  67.2415390
  68.6562119  36.2837906  68.4582748  67.8027573  32.0964928  72.3228073
  67.2109909  31.5867805  71.7694168  67.4194107  32.0410004  73.1981354
   6.3501005  53.0051193  57.1655426   7.3047071  53.0615883  57.2076035
   6.1755629  52.1082726  56.8801765  61.5112991  33.5074768  52.7788582
  60.8815498  34.0773430  52.3373833  61.2053795  32.6204529  52.5895615
  55.9164162  38.8863907  81.9983749  55.6071205  38.9372368  82.9028015
  56.8236122  39.1891251  82.0381088  39.3695679  42.9401016  86.3885651
  39.3613892  42.4291496  85.5791931  39.7108459  43.7956734  86.1282578
  35.3799820  65.5948486  66.2887573  34.5155907  65.1849899  66.2560654
  35.8135414  65.3038254  65.4865265  44.3669319   1.0185783  49.7052460
  44.8884277   1.3167132  48.9599991  43.8658028   0.2771354  49.3655891
  79.2814026  61.8124123  60.1679420  79.9044876  61.5774231  59.4803543
  79.8136139  62.2445183  60.8359756  85.5808563  52.4074516  76.3511047
  84.6777191  52.7095680  76.4475479  85.6407852  52.1184425  75.4405441
  39.3195114  41.6309738  15.4728012  39.7200661  42.0729218  14.7241564
  39.9912148  41.6577301  16.1542187  30.3077202  46.3153419  20.1023293
  29.4287777  46.6941261  20.0876751  30.1681767  45.3804512  19.9515476
  76.3685684  20.5073395  18.0236969  75.9614944  21.1939011  17.4953461
  76.6127167  19.8315239  17.3913231  63.8527870  17.1892109  63.6172142
  64.2589722  16.5440292  64.1959915  63.2363014  17.6597385  64.1782608
  86.1538239  58.1241264  65.2706757  86.9113998  57.9562874  65.8311539
  86.4823380  58.7175713  64.5952988  59.2125359   6.4900184   3.9409792
  59.9676628   6.0171313   3.5911269  59.0511017   6.0861940   4.7936783
  23.4461594  28.5309868  21.8896046  23.9583035  28.3533936  21.1006813
  22.6187153  28.8847733  21.5634136  75.5842590  41.4258804  10.0973959
  74.9209061  42.0991821   9.9461870  75.7568588  41.4666710  11.0380220
  33.6529160  48.1144295   2.2875469  33.5733604  48.5361099   1.4319253
  33.2671051  47.2471886   2.1639578  72.2768021  27.7817440  39.3811798
  71.6729584  27.1705685  39.8031616  71.7658768  28.5831528  39.2674789
  58.9232178  27.4388084  58.6823616  58.9732628  28.0895386  57.9821625
  59.8064995  27.0735073  58.7334213  66.3102112   1.8243629  23.0980797
  67.0439987   2.4367590  23.0455341  65.8039856   1.9882984  22.3024082
  79.7691269  51.5029144  71.5432587  79.8546295  52.3260002  71.0621643
  80.0432358  51.7171326  72.4350052   7.7433071  53.9015694   0.5026637
   7.7868404  53.1621971  -0.1036932   7.9162669  54.6690178  -0.0426237
  19.4432144  31.9330273  78.7100677  20.0522213  31.5081387  78.1060715
  18.8719006  32.4548111  78.1465302  21.4593754   7.8805561  85.6204453
  22.3556824   7.5457649  85.5925369  21.1938381   7.7782702  86.5343704
  74.3289795  53.4329147  39.7593994  75.2636337  53.5285912  39.5763435
  74.1936340  53.9172363  40.5738602   1.6514667  46.8783722  65.9341202
   2.1309779  46.7529259  66.7529984   1.1008686  47.6448669  66.0939865
   3.7913411  44.1971550  19.5430450   2.9516945  44.5902786  19.3049736
   4.1724663  43.9228706  18.7089329   6.8559899  20.1403656  11.0381804
   7.6964593  19.6941185  10.9347086   6.5109596  20.2106647  10.1480999
   9.0979900  51.2435608  38.9761848   8.7677107  50.3518715  39.0858917
  10.0043583  51.2024803  39.2812080  68.4577560  66.8380966  11.1969595
  69.1195755  67.5074921  11.0233774  67.6234131  67.2787857  11.0360661
  18.8282890  53.8929787  10.9415045  18.4378986  53.0288353  10.8107882
  19.4181213  54.0045967  10.1959372  67.5761261  48.7432213  84.5895157
  68.1064377  48.3188438  83.9150467  68.2148438  49.1094360  85.2012024
  57.3771858  31.1759109  83.7186661  57.5707359  30.3235569  83.3284607
  57.3689384  31.7821159  82.9779434  11.9929600  42.2017403  88.0572510
  12.7857714  41.7376251  88.3260956  12.2962227  43.0795860  87.8256378
  64.5242004  10.1671991  30.5654221  64.8106079  10.6616859  29.7975121
  64.0059128  10.7917891  31.0728664  11.5468235  52.5257607  42.1146889
  10.7492838  52.8916245  42.4971924  11.2524796  51.7412071  41.6520195
  84.9777145  48.1045189  77.1257553  84.5468140  48.9305115  77.3455048
  84.4555511  47.7454185  76.4083786  77.4129105   8.2516727  66.7324905
  78.2559891   7.9328036  66.4103546  76.7664413   7.8426652  66.1571426
   0.7174127  62.6946754  55.6086617   0.6158367  62.9921303  56.5127831
   0.6695116  61.7402611  55.6637115  46.9220924  53.1648102  73.0141678
  47.3443489  52.3878136  72.6478195  45.9853516  52.9744835  72.9639359
  48.5801010  66.2121201  16.8927212  48.0862236  65.8803024  16.1429119
  47.9611397  66.7759247  17.3566666  45.4654045  50.8277817  42.2922363
  46.1538353  50.2882233  41.9034309  45.9187698  51.6163521  42.5903091
  21.7238655  37.6515121  70.5264969  21.2098904  37.0570526  71.0730133
  21.1544151  37.8448982  69.7818069   4.4219284  16.2764797  36.2541924
   3.6798198  15.7595434  35.9406891   4.8017473  15.7487068  36.9566345
  61.9769020  37.8074303  51.5540009  61.4474945  37.3959122  50.8709106
  62.7027397  38.2150497  51.0815239  20.9457855   8.7593155  19.3896275
  20.5843964   7.8938055  19.5807381  20.3996353   9.3633308  19.8927345
   7.6016097   6.4000053  57.2055092   7.1368799   6.1023583  56.4234200
   8.5225344   6.4167891  56.9450340  85.4224319  55.4674034   6.9784794
  85.5563965  54.6869698   6.4406943  84.5050735  55.7011948   6.8369951
  47.0975838  57.2859077  29.7014713  47.0643616  58.2425194  29.6971684
  46.1797180  57.0143585  29.6974983  45.1289368  42.8283119  24.0425777
  45.3900452  43.6436653  23.6144962  44.3536034  43.0631180  24.5524387
  58.1368599  50.2829094  72.2704315  57.5783577  50.9028816  71.8014526
  57.9954910  49.4480705  71.8240128  15.5800457  47.4632950   4.7246399
  16.3915462  47.4066124   4.2201743  15.8655386  47.4640427   5.6382728
  15.3453789  47.4717255  42.9318657  15.6878576  47.7462044  43.7825165
  15.9367523  47.8726807  42.2948875   8.9891329  38.3518562  28.6140175
   9.6260796  38.0811653  27.9527645   8.5665627  37.5375290  28.8870392
  18.3949642  70.6689911  47.9237900  18.4936485  70.8386765  46.9869308
  18.2772217  71.5355072  48.3130455  31.4586697   7.7075291  39.1482048
  30.8230152   8.3699989  39.4189568  30.9876232   7.1695552  38.5118637
   8.2029934  64.4553833  13.7259083   8.4397249  65.2934570  14.1231747
   7.5595865  64.6818924  13.0543776  78.8179626  29.0703011  57.5462723
  78.1116486  28.4255199  57.5060577  79.5449829  28.6037502  57.9585838
  21.2251701  55.7360268  79.3720398  22.1705475  55.8121605  79.2428207
  21.0755234  56.0785332  80.2532501  20.7487316  55.5310287  68.4809113
  21.5413094  55.0019569  68.3907242  21.0451603  56.3360405  68.9055481
  62.3191872  58.1375923   7.9715371  61.6421280  57.4758224   7.8305373
  62.7544708  58.2194901   7.1229763  52.5253334  61.0633049   7.4747667
  52.9084511  61.0788879   8.3518124  51.5990639  61.2601051   7.6144910
  28.7733116  27.7044392  68.6464996  28.0342846  27.6034088  68.0466156
  29.5418453  27.7350883  68.0767212  83.8991699   2.0244784  43.3765373
  84.4535217   2.4611328  44.0232697  84.4631882   1.9179364  42.6105309
  12.5664806  21.3999786  28.3333302  12.4614773  20.7006016  27.6882896
  11.8198776  21.2958221  28.9232178   0.3470113  47.4622154  52.1731567
   0.7791392  47.5792656  51.3271103   0.9453487  46.9068108  52.6729012
  83.0396652  27.0954475  25.8976994  82.1690445  27.0910072  26.2954826
  82.8755264  27.2245464  24.9635563   6.0803323  56.8453865  26.7666969
   6.5055828  57.0861206  25.9436283   6.2871952  57.5652847  27.3626747
  74.3171082  46.1346703  43.5643425  74.2219925  45.7957191  44.4544525
  75.2262802  45.9458389  43.3320198  81.0427399  68.3507462  12.1080523
  80.3562775  67.8627243  12.5628452  81.8138733  67.7862473  12.1621590
  62.9575996  24.2663212  41.1091728  63.0503006  24.9302082  40.4258766
  62.3827705  23.6048889  40.7240639  66.9473114  13.7551231  67.3058090
  67.2112122  13.2787294  68.0929871  66.2489319  13.2219610  66.9260330
  60.7896423  64.5899582  10.9998789  59.8433914  64.7203674  10.9379816
  61.0954208  65.3115540  11.5494576  23.7640629  63.9213791  58.8510971
  23.3689499  63.7170296  58.0035362  23.6905403  63.1088791  59.3517647
   1.6517931  41.1526146  54.1449394   1.4909198  40.7618256  55.0037956
   2.5780003  40.9820137  53.9738655  30.1193905  61.3771667  24.2511444
  30.8676872  61.4870567  23.6644497  29.7757187  60.5088692  24.0409412
  67.1229858  11.4998455  33.6394997  66.4604568  11.9043112  34.1995888
  67.4777603  10.7840405  34.1667480  52.1847610  20.2902431  76.8135681
  52.6995354  21.0737038  76.6201096  51.5792542  20.2133942  76.0762100
  65.6752853  70.1294937  33.3570633  64.8790207  70.6525879  33.2645264
  65.5214081  69.3600159  32.8089218  42.9804001  23.9686966  82.2330856
  43.4957886  24.0671482  81.4325180  43.6323814  23.8836555  82.9287262
  15.6197386  51.8814583  39.6294060  15.2366800  51.1666222  40.1378403
  15.6957016  52.6044044  40.2521515  48.1136322  37.1684761  81.8955154
  48.7181358  37.7626076  81.4507599  47.6841316  37.7132912  82.5550156
  27.4263725  31.4823246  15.4248905  28.2353039  31.9356670  15.1875257
  26.7428493  31.9400063  14.9354467  55.0215759  57.2757950  41.5038948
  55.3437309  56.6590080  42.1611786  55.7881470  57.4751472  40.9664421
  53.3955917   2.8141234  37.3113480  54.3005066   2.8750827  37.0053368
  53.2895546   1.8970561  37.5642815  83.1834564  29.4470749   8.2159948
  84.0866623  29.2530422   7.9653778  82.8085327  29.8765450   7.4470859
  62.6448402  29.0054703  64.1686783  61.9487534  29.4972000  63.7329140
  63.1836739  28.6679249  63.4531708  28.3602543  61.6397438  79.3948364
  29.0483170  61.1946106  79.8894653  28.5655231  61.4539146  78.4785614
  32.1785736  60.8768806  77.7292709  32.7107925  60.8911018  76.9337997
  32.7512589  61.2358589  78.4070587  85.5303497  62.3293152  26.1881733
  86.3555832  62.6343307  26.5652485  84.8865738  62.4583626  26.8846893
  48.4748497  45.9816360  54.6797943  47.7509003  45.4367485  54.3712082
  49.2585335  45.4611549  54.5032272   4.7055526  38.9545517  82.5527649
   5.5931182  39.2773399  82.7085419   4.1462793  39.5306282  83.0738983
  17.2130871   0.3604918  41.7694969  17.7172298  -0.3921321  41.4602585
  16.6489429   0.5905576  41.0312271  51.6678886  38.7452888  19.4339008
  51.4732323  37.9206009  18.9886723  52.6224060  38.7601700  19.5039463
  28.0659180  58.2471199  38.9095192  27.4099903  58.3598862  38.2215691
  28.3151379  57.3246040  38.8539352  50.1852989   6.8517904   6.2991977
  49.4054108   7.3016381   5.9741764  49.8484154   6.0572147   6.7131896
  55.8753700  60.2539787  78.7129745  56.5735855  60.4922180  78.1030807
  55.6588326  59.3492470  78.4875641  70.5937271  24.5069180  66.5235138
  71.5091476  24.5308094  66.8021927  70.5663910  23.8285313  65.8487701
  79.9439011  60.9530678  18.4805126  79.2099991  61.0246391  19.0908394
  79.8774796  60.0651779  18.1291256  29.7805405  44.3925667  18.1728477
  29.0171642  43.9158401  17.8469353  30.5243721  43.8303223  17.9564533
  86.4404602   8.7214651  31.4655590  86.4043198   9.5688906  31.0219421
  87.3736496   8.5681419  31.6134567  45.3353386  42.1332359  30.1956406
  45.3482895  41.1940651  30.3801022  44.4665985  42.4205589  30.4766560
  64.4043198  26.5378132   5.6064162  64.2942581  27.4871941   5.6592565
  65.1477280  26.4153767   5.0160007  63.7373352   7.1732135  58.7197647
  63.1897240   6.4035678  58.8746758  64.4077225   7.1313663  59.4017220
  85.1482391   5.5395751  46.0888824  85.7543945   4.8688164  45.7744141
  85.0003433   6.1036053  45.3297844  13.9127207  41.0464058  13.5226145
  14.8243570  40.9598732  13.2439327  13.6833916  40.1818695  13.8635197
  16.0733299  63.7606392  69.2565079  16.2455349  62.8226128  69.3382797
  15.6245613  63.8493614  68.4156876  39.3916817  54.6084137  33.5522652
  38.7919807  54.8173828  34.2684517  39.2350502  55.2925491  32.9013786
  83.3269958  35.7079010   8.8068132  82.8564529  36.0044670   9.5858335
  84.2515030  35.7732086   9.0460720  84.0238571  33.1389580  53.8735237
  83.2151642  33.6430740  53.7834473  83.7358627  32.2264175  53.8972511
  71.8961868  59.6217804  69.8863449  71.5621567  58.7247581  69.8877869
  72.6806564  59.5861168  70.4336777  12.9948864  45.8469734  44.2206459
  13.7707071  46.3970642  44.1123047  13.0519934  45.5269852  45.1209679
  70.3965454  56.0204697  86.8747406  71.3535385  56.0362778  86.8631897
  70.1591415  56.4786339  87.6809387  70.7496338  66.7917480  35.3375549
  69.9989777  66.4972458  35.8533211  71.2761917  66.0028076  35.2089348
  23.1234779  59.3571129  74.8776169  22.8544731  58.4391212  74.8435211
  22.5961018  59.7352600  75.5812531  19.5999165  64.0075912  42.7162132
  18.9463844  64.7061081  42.6814194  20.4135971  64.4267044  42.4360390
  77.9032669  41.7279816  80.0905457  78.2972565  41.5282669  80.9397354
  78.5978241  41.5498505  79.4564362  17.0114784   9.9637384  19.6477776
  16.9843178   9.0664215  19.3156357  17.0822296  10.5075006  18.8632088
  73.2430801  60.5348320  88.1190720  72.5388412  59.9016075  87.9801407
  74.0452652  60.0436821  87.9415894  52.6888504  37.1689758  67.4070892
  53.0674248  37.9920044  67.0979919  53.4450340  36.6283112  67.6353378
  39.7359886  59.7839890  37.2299423  40.1476021  60.5414619  37.6459236
  40.1980820  59.6875153  36.3972397  85.4362335  22.1588745   9.0524588
  85.4531097  23.0653973   9.3593225  86.0990067  22.1271706   8.3625603
  32.8479347  29.5780869  11.3571987  33.7989349  29.5175247  11.4475269
  32.7147865  30.1770611  10.6225328  59.5497971  27.5098381  64.0197678
  59.0103569  28.2144489  63.6609344  58.9569588  27.0215073  64.5909958
  37.8425255   3.6901212  28.6167240  37.4667778   4.5018835  28.2760105
  37.3042641   3.4786930  29.3794842  85.5138931  44.1770172  75.6287155
  85.0935974  43.8859673  74.8194809  86.1727905  44.8095245  75.3423233
  50.0968094   4.1478262  41.7013435  50.2770424   3.5789797  40.9529037
  49.6174278   4.8882027  41.3295021   9.3650656  40.0514870  45.0488586
   9.6336517  40.9692459  45.0913963   8.4287939  40.0664825  45.2473602
  58.8787422  20.3329754  60.9103470  59.1574745  20.0964031  60.0257149
  58.6336403  21.2559834  60.8454437  56.3348312  45.5066338   9.0180454
  55.9111252  45.6090965   9.8702221  55.6492271  45.1544342   8.4504757
  37.5622330  49.7327995  11.8465271  36.9265709  50.3460999  12.2153492
  37.0285950  49.0406647  11.4561272  75.3009872  45.0050316  87.9026489
  74.8264542  44.2115822  87.6546860  75.5303497  44.8694839  88.8220215
  32.7017326   3.5202689  40.7230110  33.4262924   4.0809035  40.4456406
  32.2660332   4.0170588  41.4155388  54.0294724   7.3442807  53.9539604
  53.9375000   8.1875668  54.3974037  54.5609589   6.8168283  54.5502396
  54.2041893  12.2496309  41.6259079  54.3001595  11.6222858  40.9093475
  53.9300842  13.0611486  41.1986618  20.8542442  13.2636070  71.6061554
  21.6215973  13.6965685  71.2320557  21.1782284  12.8521948  72.4074020
   7.8979392  68.7949371  52.3572617   7.2525473  68.0885239  52.3832588
   8.5325108  68.5647049  53.0358925   4.9993129  28.1778507  30.0189342
   5.0656757  28.3022766  30.9656906   5.3452692  28.9886799  29.6459694
   4.0113535   8.3492050  84.8630676   3.0589061   8.3812351  84.9527893
   4.3276472   8.1370192  85.7412338   8.5716324  47.5312958  33.0929146
   8.2761354  47.8597984  32.2437973   9.3251219  46.9781609  32.8866997
  52.0914421  69.5164948  54.7717285  51.7442474  69.7164001  53.9024048
  51.4787064  68.8758850  55.1328583  12.2254524  17.1721649  67.5541534
  12.5481653  16.2941360  67.7570190  13.0136805  17.6763611  67.3523788
  40.0700188  47.8547211  53.5089493  40.2267418  47.2030563  54.1923256
  39.8985443  47.3389969  52.7210007  81.4387283   1.2636646  18.8439331
  80.5997391   0.9353091  19.1672230  81.9953232   1.3053315  19.6215553
  20.6983089  62.2188377  61.9531174  20.8523731  63.1130142  62.2579918
  20.5866375  62.3045006  61.0063210  22.7198200  56.1592102  19.6314735
  22.8233814  57.0550461  19.3105583  21.8106174  55.9366913  19.4313068
  66.8467178  70.1060257  51.4485283  66.3986206  70.8242416  51.8952904
  67.4647675  70.5388107  50.8595085  51.5688820   6.3372450  45.6359100
  52.4992638   6.2449913  45.8411102  51.3051338   7.1445432  46.0774269
  31.4690742  14.2885780  63.4297752  31.4206753  13.4521599  62.9668579
  32.1418304  14.1542978  64.0973053  52.8268242   9.5324411  54.7856331
  53.3371887  10.1748075  55.2787094  51.9531670   9.5709257  55.1748238
  39.9341240  -0.1905094  20.5063381  40.5246582  -0.3423759  19.7684803
  39.5988617   0.6950773  20.3664532  79.7094040  70.9772186  75.5633621
  80.5647736  70.8707275  75.1471558  79.4937668  71.9008942  75.4347000
  49.3620033  37.6613045  28.8369007  48.9936218  36.8158226  29.0931969
  48.5996971  38.2016068  28.6290798  73.2084885  45.8865929  80.7167511
  74.0825195  46.0397415  80.3578033  73.0377045  46.6516876  81.2660217
  22.3061104   5.9384751  73.3716888  22.2175446   6.5034256  72.6040878
  21.9095592   5.1089215  73.1055756  58.0296783  48.4992142  12.5239382
  58.2376442  48.9167595  11.6880922  57.8194237  49.2267532  13.1093512
  45.8759155  54.8722458  55.3207359  46.0055733  55.7939835  55.0975227
  46.0581169  54.8251686  56.2592583  75.7272415  58.3096542  59.9200096
  76.2163620  58.7565269  60.6108780  75.5635071  58.9882927  59.2651291
  40.7194328  69.3029327  83.6913528  40.3620872  69.7074966  84.4818344
  40.4214211  69.8671417  82.9778442   5.1666331  53.0639076  86.3338928
   4.6109085  53.0737457  87.1131897   5.5777426  53.9282455  86.3219604
   5.6225009  65.8997803  78.1495590   6.0815644  66.1721497  78.9441071
   5.1629663  65.0986786  78.4011383  35.3184090  63.1565132  49.4684410
  34.8249474  62.4286575  49.8465309  34.7121124  63.8967133  49.4957161
  13.8379965  50.3309669  49.0446892  13.5471659  49.7245102  49.7257614
  13.9600792  49.7812157  48.2706757  64.4617615  61.8285751  62.3750648
  63.8885155  61.3804741  61.7531090  64.3197174  62.7595634  62.2038460
  34.9749146  48.2591438  50.2686386  34.3834229  48.9952736  50.4251060
  34.5322151  47.7336388  49.6022339  15.8676281  66.9000092  14.1151724
  16.5432491  67.3200912  14.6474304  15.4931488  67.6126480  13.5973434
  38.4355011  68.5887451  57.1243286  39.2168312  68.3954239  57.6423836
  37.8838997  67.8128586  57.2241745  36.1283875  60.4194565  39.6003761
  36.0210495  59.4709320  39.6711540  35.5434837  60.7771912  40.2683144
  14.8219452  37.3934860  87.8259277  15.6169453  37.4676399  88.3538589
  14.9195662  38.0645638  87.1503906   9.3147926  31.3250427  69.1086044
   8.6861038  31.3386517  69.8302689   9.7026005  32.2001572  69.1122665
  85.5830841  47.9904823  24.5292664  85.3997269  47.9277191  23.5918922
  85.2358398  47.1774559  24.8962040   5.2758265  61.9885826  77.4531631
   5.1977611  61.1198044  77.8473206   4.5694251  62.0233154  76.8081665
  60.5228081   9.8205433  62.5147362  60.0460358   9.5822172  61.7196770
  60.3572845   9.0970612  63.1192245  41.4245529  67.6439743  17.1415043
  41.9490356  68.3740234  16.8126049  40.5491676  68.0124435  17.2605019
  31.4549751  45.8184052  84.3492584  32.0236664  46.4888153  83.9706116
  30.6001053  46.2427979  84.4222107  57.2600441   7.8022451  78.9407272
  56.3689651   7.9776216  79.2431335  57.3277283   8.2721376  78.1095505
  29.8078842   2.7738135  23.6159344  30.6340656   2.6991632  23.1383514
  29.2619667   2.0720897  23.2612667  35.4170570  45.9519386  12.5257874
  35.1521530  46.5648155  13.2116737  36.3635750  46.0723953  12.4494648
  74.5117722  56.1127357   5.1976204  73.9461212  56.7068520   4.7043648
  75.1599808  55.8143272   4.5596442  56.9054260  39.7797699   7.1638446
  56.3448334  40.2736359   6.5654588  57.7654037  39.7824669   6.7435389
   6.7505898   0.1292670  21.3074684   6.0771403  -0.5359790  21.1655331
   6.3556046   0.7412426  21.9285183   4.6350780  43.6329765  16.9767628
   5.5885215  43.7167168  16.9639053   4.3312278  44.2530022  16.3138313
   8.2681828  50.1063232  10.7934265   7.7019477  49.7018547  10.1361475
   7.6631136  50.5221863  11.4075775  51.9416199  70.0901871  39.0903282
  51.2534218  70.3205566  39.7144623  51.5367355  70.2120514  38.2315788
  63.3388100  32.3420181  49.8431358  63.3925514  32.2900238  48.8888626
  62.5779190  32.8982162  50.0102272   8.4196911  46.6787529  29.9670200
   9.3338652  46.9537621  30.0369282   8.4068127  45.7946854  30.3337498
  28.2239895  70.7974930   5.4337506  28.8141365  71.2275925   6.0525980
  27.3596172  71.1529236   5.6405511  16.4339466  58.1881523  37.0197525
  16.5170765  58.9113770  37.6412582  16.1941700  58.6084480  36.1938667
  16.4179688  31.3537922  15.0003319  16.8792076  31.7607155  15.7337523
  15.7430258  30.8139420  15.4117270  84.7814331  68.5362167  54.1967049
  84.1457062  67.8493423  54.3974228  84.9362183  68.9716721  55.0349464
  57.2459183  13.4356298  46.0512352  57.0021935  12.9640846  45.2546921
  56.5812950  13.1828861  46.6920357  26.9440956   0.2136214  28.8307285
  26.1262684   0.4213452  29.2826595  27.4002647   1.0524343  28.7633820
  53.2827911  52.2028847  59.9590187  52.5764618  51.5760078  59.8029518
  53.1213455  52.9068871  59.3308868  57.3728714  56.4970665  31.5040379
  57.3700829  57.1641197  32.1905251  57.9099846  55.7892494  31.8600388
  43.1108894  45.0905113  52.7277184  43.7003632  44.5628700  53.2665596
  42.3612099  44.5187492  52.5624962  37.3407593  29.3732567  77.7521362
  37.9896278  29.2777004  78.4493256  37.4556541  30.2705860  77.4393539
  85.0898056   8.6760511  83.9394608  85.6257858   8.8631868  83.1687927
  84.7987289   9.5358200  84.2432785  57.5541878  62.2347069  35.2172050
  56.8395691  61.6581306  34.9468079  58.0354309  62.4146156  34.4095726
  59.4380150  26.5373955  67.3993530  59.9647942  26.2609158  66.6494904
  58.5701599  26.7069988  67.0328903   5.0978875  61.9714241  66.2505875
   5.3740597  61.0558662  66.2920227   5.8479395  62.4309998  65.8731689
  70.3791122  25.1854076  48.1497574  70.0956497  24.3050613  47.9030380
  71.1650620  25.0447960  48.6777191  52.1637993  32.4620285  74.4844284
  52.7746506  31.8933449  74.9531403  51.7822418  33.0163651  75.1651306
   8.7144394  27.4078445  29.1521587   9.5209513  26.9037495  29.0441914
   8.1756582  27.1616764  28.4002628  24.4320354  63.0779266  70.5496216
  24.4011192  62.5410614  71.3414841  24.4578209  63.9788666  70.8719177
  74.4728928  47.0894699   6.8820772  74.2426987  46.3169060   6.3659501
  75.0038757  46.7474937   7.6013393  75.8163681  40.4981270  19.3451118
  75.8240356  41.4463539  19.2145767  75.4271622  40.3787537  20.2114258
  43.2859154  57.2418480  15.0155630  43.7231445  57.8748283  14.4460058
  42.4542465  57.6580276  15.2421694  20.8306503  32.5057449  16.3845501
  20.9646225  32.9834404  17.2031403  21.6186066  31.9709969  16.2875805
  80.9122162  54.8940926  27.4718857  81.3561172  54.2085571  26.9726543
  80.8711777  54.5516891  28.3648052  71.7923584   4.0232072  66.4394455
  71.7269135   4.4320345  67.3024673  72.4964066   3.3812473  66.5312881
   7.0962710  31.6230049  16.4031239   7.7518435  31.0227032  16.0480251
   7.6036940  32.3665123  16.7286205  20.2899590  40.0679436   6.6249919
  20.8971195  40.2554245   5.9091434  20.5148621  40.7051888   7.3029070
  86.4722061  33.6540375  73.1105347  86.2880402  34.1152763  72.2922592
  86.1054611  34.2182426  73.7912750  65.6496506  60.2703857  71.0210800
  65.4760361  60.9468651  70.3665161  66.2609177  59.6723061  70.5910950
  81.0946121  68.0078354   2.2707031  81.3257523  68.4716034   3.0755181
  80.2399521  67.6184998   2.4556499   2.0743313  47.9387627  70.7740936
   2.9705794  47.6479378  70.9425964   2.0557175  48.1259384  69.8355560
  72.1771393  66.7128220  53.8755836  71.3162689  66.4140549  53.5825348
  72.7868576  66.0591812  53.5331955   5.5111732  44.9526520  85.6537552
   5.1234403  45.7756004  85.3560181   6.3865328  44.9463997  85.2665329
  59.5712585  39.6494675  79.4380875  60.4773636  39.7431984  79.1441040
  59.5857620  38.8899803  80.0204926  67.5148315   1.7775081  33.8189011
  68.1632156   2.4805546  33.8583603  66.7583542   2.1224494  34.2932320
  57.0616188  57.8560600  50.0701828  57.5232887  58.3077049  49.3637047
  56.6293602  57.1180382  49.6404114  61.8353539  42.4533539   9.5095816
  61.6831017  42.9993477  10.2809057  61.4647179  41.6019440   9.7418756
  47.3458481  62.5649719   3.1941926  47.3293800  61.6169777   3.3255990
  46.6333847  62.7337227   2.5776293  30.3934155  36.1533699  22.9824715
  30.5156975  35.4626160  23.6337318  31.2729435  36.3225937  22.6447906
  51.7580452  27.6841030  89.3360825  52.4709167  28.0272713  88.7973022
  51.1103935  27.3704472  88.7048950  53.9635353  37.5056877  77.8425217
  53.0984459  37.8722115  78.0255814  54.2299576  37.0975533  78.6663361
  67.4482269  30.3550892   0.8951775  67.8003464  31.2403603   0.9875773
  67.9849701  29.9539738   0.2116215  35.0807381  51.5332031  62.0463638
  35.8680954  52.0354347  62.2562828  35.3473816  50.6188507  62.1417122
  16.6256275  67.4892502  41.8034592  17.5127125  67.4007187  41.4549255
  16.0566998  67.2261810  41.0800362  48.7886276  19.8442478  39.2938156
  48.8075333  19.9500504  40.2449608  48.7418060  20.7379837  38.9542923
  60.4685516  34.2850456  49.7563133  60.6326027  34.9235306  49.0622978
  60.2695160  34.8156319  50.5277367  22.1758442  33.5717659  68.0537415
  22.2239285  32.6186829  68.1282883  21.6136398  33.8407707  68.7802353
  12.7728672   2.2270579  33.5728569  13.2794895   3.0365579  33.5074730
  13.2045059   1.6247647  32.9669151  10.6420555  57.0052605  88.7702560
  10.9226065  56.9599342  87.8562164   9.7471333  56.6657028  88.7632294
  70.5049515  33.7272491  35.6411171  71.2719879  33.6394386  35.0752754
  70.6691666  34.5242081  36.1452179  64.6260605  68.7289200  15.9813099
  64.7068176  69.6249084  15.6543226  63.7134895  68.6574478  16.2612038
  29.7736912  58.7832909  62.7300072  30.1832180  59.6201591  62.5105362
  28.8917637  59.0168686  63.0196228  60.9027214  67.6722717  24.1980991
  61.0649223  66.7380524  24.3290749  59.9681091  67.7274780  23.9988880
  37.0628624  68.3540421  87.5917664  36.1638870  68.1479034  87.8478470
  37.5968628  67.7030792  88.0470963  26.0810852  48.1685600  24.9381084
  25.8185139  48.2750282  25.8524132  25.3569603  47.6894608  24.5351963
   2.9323411   3.9183569  11.4785051   2.4650211   4.6018915  10.9982719
   2.2405424   3.3838575  11.8683214   7.2328510   6.5554905  86.0725479
   8.0146503   6.0858335  86.3631363   7.5714736   7.2956138  85.5687790
  61.6330070  42.3815651  66.5831223  62.2082405  42.8793831  66.0021591
  62.2292404  41.9224205  67.1746597  39.3350105  67.6701202  65.2172012
  40.0361404  68.3164673  65.1342468  38.9381561  67.8551483  66.0683823
  57.0224152  52.5373917  42.2501450  56.8577461  52.4674988  41.3098106
  56.2853127  52.0819016  42.6568871  61.3522301   2.9849081  66.7285614
  60.6348991   2.7071366  66.1589050  61.0877266   2.6996975  67.6031647
  20.4223690  10.4870272  70.7906494  20.3967953  11.4262400  70.9735641
  20.9963055  10.4069242  70.0288086  47.8245811  64.3580627  65.3497925
  48.2966385  63.7427177  64.7887726  48.3597412  65.1516037  65.3383560
  36.2452354   0.5794519  59.0976753  36.1225128   0.8886400  59.9952126
  36.0789871   1.3496555  58.5541840  57.1156731  63.1763878  52.3568039
  57.9645958  63.0214005  52.7709808  56.6333580  63.7073860  52.9905548
  13.4775887  29.8057213  64.2313461  13.2521725  28.8787613  64.1528320
  14.2788477  29.9018002  63.7165833  51.3605576  23.4443741  16.5799141
  51.4244118  23.5092735  17.5327740  51.1014709  22.5371590  16.4184647
  73.7650299  66.9087219  82.4374619  74.0035324  66.0745087  82.0331802
  73.9771957  67.5655746  81.7743149  46.6701355  46.2327347  62.4901695
  47.3640251  46.0580864  61.8543663  45.8879356  46.3766747  61.9575577
  21.6960163  68.3845596   8.8365870  22.0255527  68.3018036   9.7314548
  21.2139244  67.5720520   8.6827841  47.6106873  46.4368477  65.1238098
  47.9072113  45.6166725  65.5182953  47.4224625  46.2102737  64.2130585
  28.7956104   5.2534776  31.9763718  29.2499981   5.9078450  31.4457436
  28.0315762   5.7145000  32.3226967  19.2832012  46.2745857  37.0685234
  18.3414230  46.4322472  37.1350479  19.6487160  47.1173477  36.7994766
  77.3146362  19.8242607  14.1318216  77.9315491  19.6192722  13.4292364
  77.7602386  19.5438499  14.9312191  43.3143311  61.4663734  22.9587955
  43.1106300  62.2632866  23.4483528  42.9009895  60.7643318  23.4613075
  43.4181595  12.9261255  87.5555801  43.6438789  13.6401443  86.9593735
  43.6258087  13.2661400  88.4259262  59.6573906  44.8373146  73.9715958
  59.8868179  45.4842720  74.6387100  60.3180161  44.9529152  73.2886353
  64.5131531  22.4679775  69.0864944  63.5636139  22.5845432  69.1185074
  64.6388931  21.5193348  69.1087646   5.9556069  16.0332413  76.7798767
   5.9776454  16.2403297  75.8456039   6.1912279  16.8538303  77.2127151
  73.4946213  36.3459320   8.4227438  73.2359467  35.4298058   8.5229282
  72.9657516  36.8160057   9.0673847  46.2090340  47.9649162  59.8246765
  47.0237083  47.4780045  59.7003708  46.4422264  48.8739891  59.6364212
  43.0207481  70.5205231  49.1844101  42.6955338  70.6597443  50.0738411
  42.8432274  69.5969467  49.0063057  65.6752090  45.2445145   8.0640059
  65.7987213  45.0095749   8.9836693  66.3732758  45.8735504   7.8816614
  42.0769463   3.9017684  18.1896172  42.2659721   3.6639872  19.0973415
  41.1397934   4.0965414  18.1832275  30.5851059  32.1167488   7.5754395
  31.2775211  31.7083111   7.0558515  30.6096210  33.0399170   7.3236609
  26.6953411  60.4957733  32.1147232  25.8309765  60.2209702  31.8087997
  26.8777790  61.2990150  31.6271267   4.0752554  43.6219673  51.7295189
   4.7114620  42.9227753  51.8798599   3.3424265  43.1889153  51.2917328
   2.3726876  61.1842918  86.8447266   2.6679680  61.9197617  87.3815002
   2.0143754  60.5576439  87.4733429  65.8073196   3.0977285   9.6340170
  65.8741226   3.7562156  10.3255110  64.8952484   2.8089886   9.6655474
  77.9187546  47.3392029  84.6949310  77.7971039  48.2775841  84.5504379
  78.3630676  47.2827530  85.5408859  74.9152374  47.8829689  84.0336533
  74.7595978  48.8268929  84.0018158  75.4169540  47.7499428  84.8378983
  47.1282005  21.7656746  88.1398544  46.9131355  22.6680470  87.9038467
  47.9757805  21.8287716  88.5801544   7.1732373   0.8874142  76.2389603
   7.5334229   1.2628942  75.4355240   7.7036142   0.1064374  76.3970947
  66.0988922  59.6748123  59.6847115  65.5471497  60.2435455  59.1477242
  65.6119461  58.8526726  59.7412338  80.0662842  49.0919571  10.4499388
  79.6314468  49.3821144   9.6480904  80.3194962  49.9024277  10.8918161
  59.0811501  22.8635197  11.6090689  59.9016533  22.3717270  11.6429424
  58.5007973  22.3244247  11.0716686  36.9914970  45.3875961  53.0247231
  37.1817245  45.9519424  53.7740936  37.6858673  45.5828514  52.3954735
  46.1370049  45.1982155  22.9657803  45.1856842  45.2090416  22.8604145
  46.4562492  45.8331032  22.3245029  13.4543676  37.8188133  32.9671898
  13.4376307  36.9191017  32.6408882  12.7229595  38.2481728  32.5234299
  74.8403702  16.5449734   3.2185831  75.6433487  16.0246639   3.2457099
  74.8134384  16.8976612   2.3291354   5.6067715  44.0368652  36.5800743
   6.5287027  44.2546539  36.7173462   5.1494775  44.8746910  36.6519508
  37.4930038  69.1290054  47.3207207  38.0200729  69.5167618  46.6220932
  37.3981361  68.2107544  47.0676498  76.4253082  27.4441109  57.9337997
  76.2933044  27.5179729  56.9886284  75.7786407  26.7973232  58.2161293
   8.0941610  61.3959770  52.2136612   8.1717310  61.5692406  53.1518478
   7.9535213  62.2578659  51.8217468  21.5949516  26.3919296  22.0460415
  21.6748009  26.0875874  21.1420326  22.1523819  27.1689758  22.0872841
  56.6582947  37.0862236  79.6767960  55.9031219  37.3268585  80.2134857
  56.4209824  36.2413788  79.2945023   5.5798211  42.5193481   0.3549410
   6.0031462  42.2642593  -0.4647893   5.1458673  43.3481865   0.1525940
  16.0746403  53.0968361  58.5130997  15.5360479  52.9289513  59.2863808
  15.8103657  53.9695740  58.2220345  55.3084412  28.5141506   3.9905512
  54.6605759  28.1739445   4.6076088  56.1495209  28.3769112   4.4264212
  11.1441240  29.2382793   4.1485505  11.7238436  28.4781704   4.1974521
  11.5056343  29.7699909   3.4394486  59.9378471  49.7935562   6.4844170
  59.8130875  49.2074356   5.7380071  59.5403519  49.3303413   7.2217503
   7.8434734  59.3794250   4.8529649   7.9463511  58.4409943   5.0110664
   8.4711637  59.5753479   4.1573710  12.9590368  60.8031883  60.7112694
  12.1621923  60.4612274  61.1166496  13.3950605  60.0308380  60.3512840
  84.3441315  33.1291161  62.1177940  84.0185699  33.9064217  62.5717010
  85.2759781  33.3024712  61.9842148  41.1764946  36.5475426  15.9623356
  41.5292130  35.8533783  16.5190811  40.6995697  37.1185303  16.5646172
  15.5739088  65.7663040  53.9489975  16.1610794  66.5028458  54.1191978
  14.7036915  66.0974808  54.1709747  45.0210457  10.0032263  64.6460495
  44.5826759   9.6736956  65.4305725  44.3107491  10.1665897  64.0255508
  51.5305786  63.3517036  11.7439327  50.7710533  62.8360176  12.0148926
  52.2170067  63.1124954  12.3666935  34.2888260  22.0743256   4.5683250
  34.7206917  22.6768742   3.9628007  33.4245262  21.9272480   4.1841569
  75.2912292  22.6977501  67.8884811  74.8609238  22.5596905  68.7322845
  75.9308090  21.9882641  67.8268585  55.2038879   4.9046955  39.7259254
  54.2540169   4.8497667  39.6212654  55.5559654   4.5135050  38.9263992
  22.8873692   5.6626258  17.1690407  22.1893616   5.7366662  16.5182438
  23.2121944   6.5568094  17.2746582  61.0446892  41.4290199  83.1958542
  61.5420074  41.0003700  82.4993134  61.2500343  42.3589401  83.0993347
  75.0946503  45.5814514   9.2254896  75.4622726  45.7167931  10.0988541
  74.1473160  45.6275635   9.3546028  20.9159431   8.8186665  63.8088417
  20.2142735   8.7820396  64.4588776  21.1068268   7.9018936  63.6105423
  16.5416718  21.7115173  19.2848949  16.0112343  22.0580482  18.5674114
  16.6590977  22.4547253  19.8765736  69.6436920  53.5413933  80.4874649
  69.0723877  54.1777153  80.9175034  69.3690186  52.6954269  80.8411942
  13.7700291  57.9948502  64.7526627  14.1788177  57.3955650  64.1281738
  13.6989279  58.8232040  64.2783127  74.1009216   0.7504372   7.0013437
  74.8175659   0.1760427   6.7316880  74.1893005   0.8133742   7.9523740
   3.0263724  24.4629650  79.4893265   2.9762995  23.6031895  79.0715866
   3.8852797  24.4743843  79.9116821  64.1811295  23.5814056  44.1917458
  63.8451080  24.3535423  44.6468582  63.8895874  23.6910992  43.2866478
  10.1849880  61.0994492  16.8773403   9.8104858  61.5400620  16.1145573
   9.5050163  60.4869728  17.1579514   0.4444495  12.5643911  27.6891479
  -0.2791963  12.0928297  27.2765961   0.0918180  13.4363785  27.8666897
  68.0770187  59.5866890  53.1836967  68.7457428  58.9228745  53.0151901
  68.4652176  60.4030418  52.8688889  33.2297325  59.9131317  61.1782532
  34.0784760  59.6990623  60.7908936  33.4380913  60.2032318  62.0663185
   1.3783334  19.1922245  57.3234901   2.0661616  19.1094666  57.9840012
   0.9930988  20.0533810  57.4854584  44.3386307  22.4861774  12.6534529
  44.7069550  22.1490383  11.8368101  45.0702324  22.9323635  13.0799580
  39.9426346  67.5312958   3.3652577  40.0278778  67.2574158   4.2784686
  39.2369499  66.9865417   3.0167055  38.9368553  10.2665472  80.1604462
  39.7640457  10.3590708  80.6331329  38.4636765   9.5844650  80.6369934
  11.3479710  62.4445763  35.2044411  11.3671465  63.3964233  35.3036995
  11.8163481  62.1143341  35.9711189   2.5280297  37.7563133  14.8237276
   1.5784347  37.7891426  14.9395876   2.7421110  36.8242149  14.8636961
  79.1534958  67.0366135   9.1599398  78.4127579  66.6277313   8.7123423
  79.1231613  66.6803055  10.0478344  85.0566711  69.5994949  56.5813904
  85.4663239  70.2120972  57.1922379  84.2016144  69.9858322  56.3920517
  25.1866341  41.7928085  88.4631500  24.5723610  41.1645660  88.0833969
  25.7761860  41.2591972  88.9959946  65.4414215  63.2603798  34.2961693
  64.9667969  63.9501801  33.8323364  64.9625626  62.4582558  34.0875359
  48.3844376  37.2475052  55.4199638  48.1843033  37.2267494  54.4841499
  47.7860336  36.6085472  55.8070984  56.5160713  -0.1125756  32.7780113
  56.2065544   0.6986151  32.3750229  57.2399216  -0.3963771  32.2196808
   4.3688622  69.0838394  53.5591011   3.8562226  68.2818909  53.4575691
   4.8453646  68.9611740  54.3801537  72.1804733  48.9373436  10.9474039
  72.7412643  49.6976662  10.7935896  72.1915741  48.8197937  11.8972940
  70.8417435  63.7473297  34.2499619  70.2987595  63.8796997  35.0270576
  71.0318604  62.8092041  34.2475815  26.8096199  56.8495293  83.1807709
  26.2929535  57.5097275  82.7187881  27.0225410  57.2565498  84.0205460
  24.3641129  68.4361725  18.0742779  25.2395267  68.0577698  18.1561012
  24.5031071  69.3801346  18.1507988  41.5133972  32.5813065  66.1439362
  42.3227081  32.0704002  66.1289978  40.9261017  32.0831070  66.7123642
  60.2964134  64.2590256  57.0777435  60.7842598  65.0594711  56.8840179
  60.9557304  63.6522751  57.4144669  33.0687141  13.2520447  16.2670517
  32.4290810  13.8532143  15.8853550  33.8780136  13.4267864  15.7867079
  76.8639984  58.0112000  76.6969070  76.5849228  58.8150940  76.2586060
  77.7337723  58.2153015  77.0405197   0.9681649  44.7665939  47.9910851
   1.5579640  45.1738777  48.6255035   0.1034522  45.1131134  48.2111511
  27.0982304  59.5347862  63.2561874  26.6244354  59.6399994  64.0812225
  26.4195786  59.5806999  62.5827217  65.0381012  15.4042025  18.4316635
  64.2951660  14.9803019  18.8612957  65.7602997  14.7846422  18.5356064
  12.9999800  69.2378006  33.4094086  12.1931963  68.7227707  33.4006271
  12.8394861  69.9449997  32.7846413  76.6546860  25.6345692   4.5554624
  77.1921158  26.2057743   4.0067086  76.0472641  25.2176399   3.9443707
  66.4346237  13.7100496  25.7430458  65.9611282  14.1385078  25.0299873
  66.3445587  12.7744188  25.5621738   4.7396226  29.1256237  77.2918472
   4.4709153  28.2327023  77.5079956   4.7856126  29.5730686  78.1367798
  30.8384056  26.7818317  19.1665573  30.7090721  25.8817959  18.8674946
  30.4230576  27.3201199  18.4927883  27.3773117  68.3534698  63.4072418
  28.0495758  68.8105392  63.9125938  27.8281326  68.0670471  62.6129189
  69.9684830  27.6942406  24.6802292  70.8998566  27.4865322  24.6051846
  69.7199478  27.3706951  25.5461273  17.4087563  65.6137924  43.6850586
  17.1634121  65.9142303  44.5601463  17.0099945  66.2510376  43.0924911
  51.6092987   3.0905137   3.3223014  52.4885559   3.4686596   3.3102853
  51.3611641   3.0905688   4.2467804  40.5972672  52.0866966  36.4718971
  39.6827736  52.0833511  36.7546005  41.0897789  52.3261681  37.2569580
  66.8115616  24.2145557   1.4306895  66.4404068  23.4585323   1.8855574
  67.0748901  24.8104572   2.1319687   1.5517329  45.4978065  41.4764442
   1.7801200  44.5683479  41.4896469   1.1449362  45.6566086  42.3282242
  14.8374166  63.0686264  64.5218201  14.4148970  63.9130058  64.3645554
  15.7382879  63.2915649  64.7562637  25.1815910  18.6352272  50.9959450
  25.5127010  17.9272156  51.5485039  24.6725101  19.1854877  51.5911636
  24.1613579  41.8808746  61.9243202  23.4276409  41.5065193  61.4367256
  24.4438877  42.6274910  61.3961487  40.6461487  27.5923691  67.9656448
  40.8068047  28.0528259  67.1419907  40.8474121  28.2372513  68.6437683
  86.9766541  20.6027470  81.5365448  86.8127365  20.5809746  80.5937347
  86.1332550  20.8419876  81.9208221   3.6470711  40.4710999  43.2517395
   2.7358422  40.3703842  42.9765129   4.0246520  41.0760689  42.6132431
  19.2213554  53.6508980  24.5531960  18.7525959  52.9740295  24.0649910
  19.3584194  54.3532295  23.9174461  48.9551468   1.8970958  68.3296738
  48.3607025   2.2059586  67.6459503  49.1161079   0.9793442  68.1104584
  51.5220032  70.6551895   9.2565832  51.0316925  70.6946259  10.0777235
  51.7390709  69.7288742   9.1514874  52.8559303  24.2339859  34.2976952
  52.4834785  24.2396774  33.4159470  52.6858940  25.1134224  34.6352043
  57.5592995   2.4308925  80.8756104  57.6505203   2.3931131  81.8277054
  57.5465240   3.3663504  80.6731567  79.1077347  66.4145355  74.7107162
  79.3368149  67.2161636  75.1809769  79.7659454  65.7774887  74.9884872
  33.4273415  42.5300789  63.6990814  33.2128601  41.6892509  63.2950554
  33.4699364  42.3414192  64.6365356  36.0849037  71.2283630  72.0994949
  36.0044098  72.0065155  71.5479279  35.1854057  71.0191040  72.3511887
  50.9058151  34.5739021   2.0087721  50.6553192  34.4457855   2.9236865
  51.8522987  34.4315338   1.9973961  13.1852388   2.0211966  25.9630795
  13.9265060   2.5354121  26.2829819  13.2007647   2.1435034  25.0138531
  52.7575417  24.9166183  11.7141876  51.8465385  24.6246758  11.7469654
  52.7504730  25.7721519  12.1434278   6.0054760   6.0007849  68.6941528
   5.3542809   5.3074522  68.5870667   5.5372663   6.7009797  69.1488342
  27.8570347  21.4793396  75.3778381  26.9493008  21.7146397  75.5698929
  27.9679375  20.6130657  75.7696304  49.6452751  66.4184647  41.0354881
  48.7306213  66.6133652  41.2395897  49.6603966  66.3088150  40.0847092
   2.7661295  27.6356697  16.7772408   2.7070293  28.5340691  17.1022301
   2.8431213  27.0999508  17.5667381  84.6985092  39.7097816   9.9690495
  85.1147003  40.5371857   9.7273493  83.8469391  39.9647522  10.3240747
  34.0259323  36.0470428  62.0775070  34.6306076  36.7828255  61.9814606
  34.3934898  35.5266418  62.7918739  24.6846714  50.4504013   6.3324060
  24.6358471  51.2159729   6.9048991  23.8941498  50.5022659   5.7951732
  79.1421356  60.7319489  82.8200378  80.0335236  60.4004478  82.7115021
  78.5828705  59.9712830  82.6624374  58.9253960  65.8232956   5.5589375
  57.9871140  65.8306580   5.3697243  59.0253868  65.1677704   6.2492437
  65.9941177   2.8771329  77.4416275  65.2011719   3.1049397  77.9269867
  65.6870956   2.6937759  76.5537415  74.4531326  63.3417435  68.1725616
  74.6034470  64.2828445  68.0833206  73.5896988  63.2747078  68.5802689
  50.3901711   7.8842201  78.5534210  50.0184669   7.3826170  77.8278427
  49.7640228   8.5932198  78.7000122  52.8558884  10.0804644   9.3651438
  53.6481628  10.4819632   9.0083075  52.5622826   9.4799223   8.6800337
  50.9525757  53.3971291  36.6928024  51.5507698  54.1300507  36.5471306
  51.1237831  52.7998657  35.9646606  72.9570465  34.4087334  33.9085426
  73.5262222  33.7123413  34.2361259  72.6767502  34.1030426  33.0458603
  77.0466232  19.0940552  24.1997185  77.7387695  19.6885262  24.4891434
  77.4265518  18.6289291  23.4543705  69.1860352  21.7700233  10.3964510
  68.3006668  21.9774170  10.0975342  69.1877899  20.8182087  10.4978285
  60.9668770   9.7195749  46.0633926  61.1616592  10.4165964  46.6898537
  60.0118752   9.7157097  45.9986649  66.7501678  38.4799118  88.0268021
  66.7290039  39.3947678  87.7460556  65.9252014  38.1127663  87.7092133
  29.4434319  27.0439148  61.0154114  30.2917309  26.6672974  61.2494659
  29.1508579  26.5271187  60.2647095  11.2684612  48.5988960  64.1847382
  10.7689238  48.1202507  64.8462524  11.9819679  48.0062904  63.9481812
  81.4275970  36.9049416  61.5104256  81.1605225  36.8226166  62.4259186
  80.7699661  37.4804802  61.1199074  42.7844734  56.8575554  76.8454285
  41.9574471  56.5886993  77.2453842  43.0569801  56.1005592  76.3268433
  24.4320259  14.7843590  67.7401581  24.6673546  13.8685493  67.5913467
  25.2666168  15.2525930  67.7189941  21.3517227  68.4734650  64.8394470
  22.1128178  69.0539169  64.8326187  20.8204460  68.7837372  65.5727310
  33.6439514  28.0717964  82.0056305  32.8344002  28.4917660  81.7149734
  33.9213638  27.5429287  81.2575912  62.0774345   3.9810476  10.5748978
  61.2699432   3.7357702  11.0265942  62.6983719   4.1680799  11.2789478
   0.1906051  47.6046562  84.1083755  -0.0166595  48.4774246  84.4423752
   0.3892941  47.0898476  84.8905106  55.5985680  26.6633911  72.0116196
  55.3903389  25.7498169  71.8160248  56.5270958  26.6529655  72.2439194
  54.0645447   1.4791412  28.5106964  53.8885612   1.0888982  27.6545582
  55.0049744   1.3570985  28.6408005  53.6007347  35.6205215   1.2286080
  54.3430214  35.0206337   1.3019457  53.1467857  35.3436852   0.4326673
  72.8512497  53.9773598   6.5205240  73.2985001  54.7271996   6.1281714
  72.8357239  54.1712761   7.4577470  63.7166367  30.8816204  69.3306732
  63.2588463  31.4788589  69.9222565  63.1245499  30.7823772  68.5851440
   0.4438987  13.2212152  24.2088566   1.2629331  12.7307434  24.2785091
  -0.1747335  12.6008425  23.8232880  13.5823364  57.6447754  49.7558098
  13.3249674  58.1420670  50.5321426  13.3415260  56.7410469  49.9595604
  76.6849136   7.6558352  42.1088791  77.4025421   7.2032542  41.6656952
  76.4488831   7.0777321  42.8343620  43.1996765  69.5440140  16.3151131
  42.9389763  70.3860626  15.9419899  44.1144867  69.4391251  16.0536690
  48.9380188  46.5598259  12.6843557  48.3349190  45.8880348  13.0024796
  49.2109032  46.2475777  11.8216476  17.7998734  49.7119560  46.3437614
  18.6814308  50.0326805  46.1534309  17.3656979  50.4472275  46.7763176
  39.6479416  64.5401306  18.8036499  39.5516930  64.9625549  17.9501133
  39.1014442  63.7563858  18.7459927  59.8919144  38.4482803  27.8135242
  60.2989159  38.7649612  28.6199322  60.6071548  38.0336800  27.3310566
  10.0727606  45.5802345  37.2338028  10.9004765  45.3142166  37.6342430
  10.1346216  46.5330505  37.1663780   9.5551414  10.1734991  76.9302521
   9.9207220   9.3594151  76.5840607  10.2216120  10.8343449  76.7422791
  72.0376053  19.6525688  27.9606800  71.1619797  19.8654556  28.2834606
  72.0864029  18.6980114  28.0123634   4.9862146   7.6938581   8.8520498
   4.3962774   8.4228668   8.6603413   4.4058628   6.9772182   9.1086636
  42.5648804   9.5408659  14.4802561  41.8276901   9.2282009  15.0046825
  43.3390388   9.1989899  14.9275036  34.6165199  35.3455887  67.3635406
  34.0804749  34.5552597  67.2982025  35.2954330  35.1225471  68.0003738
  57.2865601  66.2706680  82.5046616  56.9251480  65.6799240  81.8438721
  58.1492844  65.9073715  82.7045364  21.6525822   3.6339040  82.7658615
  21.8591785   4.4837470  82.3768616  20.7088146   3.5358191  82.6397018
  53.4758644  29.2092915  31.2485962  53.2249718  28.6931248  30.4825325
  52.6986198  29.2021599  31.8072300  37.5913010  67.6370087  10.8071289
  38.5417747  67.6739807  10.7000475  37.2805099  68.4815979  10.4810963
  71.1035156  47.0085907   1.5563943  70.6554337  46.2177811   1.8565290
  70.4256744  47.5109940   1.1043291  63.4244728   9.0535383   7.1691418
  63.0700302   9.7638140   7.7040329  63.4017258   8.2875109   7.7426543
  40.8129272  48.9264832  21.4403610  40.2456589  49.2010193  20.7199001
  40.4909134  49.4146500  22.1981411  68.2697678   7.8548346  30.9717197
  68.2215042   8.8070135  30.8865261  69.1592331   7.6343985  30.6951561
  84.5231094  21.4984493  13.9067287  84.5733643  20.5425758  13.9101391
  84.0694809  21.7173481  14.7206917  69.2638855  66.5804062  18.1622791
  70.1939621  66.7290344  18.3328323  68.8382339  66.7334824  19.0058575
  33.6671181  22.1114311  67.5247803  33.9804077  21.4637756  66.8934097
  33.1950760  21.5979881  68.1803589  52.3711472  56.4791679  18.6075840
  52.0660324  55.5789375  18.7203941  51.9091797  56.7929955  17.8302002
  21.2991428  21.1883469   4.3022246  21.9326496  20.8269711   4.9221497
  20.8010540  20.4293003   3.9989290  61.0410652  43.0167236  43.4545708
  61.6597328  43.7392731  43.5613708  60.1791000  43.4282951  43.5166321
  10.8354187  18.9934826  28.4835281  11.2510853  18.3905830  29.0999432
  10.4329414  19.6624737  29.0373287  54.9738846  46.9384995  18.5778980
  54.7800560  47.8697968  18.4713688  54.6858673  46.7341499  19.4675732
  19.4351044  49.4753876  56.0374908  18.7327557  49.8761368  56.5496826
  20.0948601  49.2303810  56.6862793  81.8373108   6.3479357  66.0878830
  82.2179260   6.9907193  66.6863708  81.8703995   5.5221028  66.5707245
  22.8666763  53.3777466  57.2611237  22.2335320  53.5345345  56.5605659
  23.6653900  53.1099892  56.8065948  55.4951553  34.6885262  87.1321259
  56.2862511  35.1769676  86.9044800  55.6086578  33.8377991  86.7083206
  47.1213112  43.6128922  53.6818390  46.3677254  43.5223618  53.0986214
  47.4510765  42.7205086  53.7873688  83.4407730  30.2523403  52.9931564
  84.1692886  29.8416119  53.4587746  83.7389374  30.3103561  52.0854340
  66.0379410  20.1580563  59.4878922  66.6521454  20.8490143  59.7360039
  65.8266449  19.7183571  60.3114510  81.4100571  28.1776505  53.5988617
  82.1553879  28.7202091  53.3412743  80.9835815  28.6729622  54.2981567
  19.4329662  25.0963974   3.1187172  19.4008465  25.7728939   3.7951450
  18.5436459  25.0681496   2.7658110   6.3176250  44.5946541   8.1711664
   6.2548528  45.2170753   8.8956547   6.5652924  43.7683640   8.5860605
  31.6690979  48.0413780  80.0174789  31.2723217  47.2676010  79.6174011
  31.4095192  48.7653847  79.4476852   8.2906199  63.6824837  46.4513245
   8.4835424  62.7905655  46.7402802   8.5701036  63.7034683  45.5360756
  20.5000439  47.4996681  25.4958878  19.7704716  47.9870834  25.8784904
  21.1784306  47.5147820  26.1710129  69.0483551  65.6456070  70.7243881
  68.3483276  66.2364349  70.4466934  68.6021271  64.8226013  70.9238129
  53.1273842   3.6145754  17.3451729  52.3872757   3.9039764  17.8787632
  52.8658867   2.7530994  17.0200424  22.8056564   6.9198203  66.4320450
  22.1411533   7.0094895  67.1151428  22.3254547   6.5897985  65.6726227
   3.1211491  64.6083450  39.3195496   2.3279090  64.8406982  39.8022652
   2.8484938  63.8983994  38.7382889  54.4608917   7.9307241  65.7408829
  54.3447876   7.1390672  66.2662735  53.5719604   8.1891251  65.4974442
  21.8163052   7.3831468   2.8235607  21.7684479   6.6890965   2.1661141
  22.3913841   8.0421658   2.4347036  67.7338181  52.0527687  51.8481636
  67.1370239  51.3043938  51.8504333  67.7804413  52.3191452  50.9299583
  63.6987724  45.8672981   6.4590406  62.9840469  46.1654472   7.0216298
  64.4084167  45.6553192   7.0654221  86.8313522  66.4516449   4.7958193
  86.9713821  66.2718887   5.7255034  85.9373398  66.7904816   4.7493887
  59.5764465  51.7428780  61.5702400  60.3980827  51.7314453  62.0611725
  59.5263863  50.8762741  61.1668472  36.1945801  34.0519676   3.1174698
  36.6259842  33.1987534   3.1637704  35.5376587  34.0262718   3.8131907
  20.4802513  39.1197205  15.9901295  19.8197308  38.8258553  16.6174984
  20.8728676  38.3117371  15.6595993  76.1747513   1.4077754  65.3688812
  75.9872360   0.7606951  66.0488434  76.8334732   0.9889969  64.8148499
   4.8595266  22.6571426  87.3858414   4.5265946  22.0088329  88.0063934
   5.6619563  22.9863071  87.7907944  70.2854767  70.2616730  72.6518784
  70.7931747  70.5941010  71.9116287  70.7432861  70.5931168  73.4244080
   1.5077025  64.8174591  82.8616180   2.0172982  65.4486847  82.3535767
   1.6772262  65.0517960  83.7740707  22.9115219  53.9034271  62.7233200
  22.4920807  53.2272491  63.2553787  23.8492203  53.7384415  62.8219757
  67.3255081  51.8060074  35.9299736  66.8084869  51.7882042  35.1246147
  67.8761826  52.5841980  35.8439140  35.4338951  64.3197784  82.7285538
  35.5365257  63.6032639  83.3548965  36.2793694  64.3711090  82.2827148
  29.6613579  36.6574478  80.1256561  30.3346291  36.2952957  79.5496445
  30.1127758  36.8090515  80.9559937  62.0346603  63.5507736  61.1526718
  61.3685188  63.5400810  61.8399658  62.5976906  64.2918549  61.3763351
  72.4874191  56.5483856  25.4747124  73.3770523  56.7939453  25.7286644
  72.2243958  57.2192535  24.8446445  33.5175705  18.7515163  76.1202469
  34.0868759  19.4850349  76.3527832  32.8352089  18.7557621  76.7915115
  67.7469254  48.6666603  15.3671904  68.0031662  49.5693207  15.1780510
  67.7568436  48.2312584  14.5148058  59.4606895  40.7776985   0.6332366
  58.7277069  41.3231697   0.3478754  59.7988853  40.3896637  -0.1737851
  56.9054070  47.2570648  78.5785751  56.0239105  46.9965858  78.3114548
  57.3316460  46.4375305  78.8294067  29.5479546  45.9588852  49.5679283
  28.5997677  46.0773544  49.5119286  29.8231792  45.7997284  48.6650734
  55.1229324   4.7005811  23.7934875  54.6212616   3.8996530  23.9453812
  55.4379082   4.9540777  24.6611061  49.0752602  40.2649574  11.5586281
  49.4150352  39.7696228  10.8133583  48.9214706  39.6050606  12.2347307
  76.1396942  63.7212410  44.8747864  76.9763947  63.8909569  44.4419479
  76.3628387  63.1555824  45.6140213  15.5947123  23.5320454  86.7433167
  16.2589035  22.9417686  87.0992050  16.0958023  24.2245407  86.3125153
  60.1977577  62.2638245  50.3655090  59.5002708  61.8620682  50.8835182
  60.6380157  61.5260391  49.9435158  29.6313744  52.0442047  30.5179405
  28.7809982  52.2569275  30.1334381  29.5893879  52.4017525  31.4048615
  18.2439861  47.4123955  10.6069593  17.8213425  46.5706100  10.7772522
  18.8731060  47.5133820  11.3212719  79.4103088  37.2579880  16.7726192
  78.7517624  37.6660576  17.3347874  79.1419678  37.4884491  15.8831749
  19.4087620  19.1297493  77.6684418  18.4656029  19.1917725  77.5173340
  19.7929916  19.1404591  76.7918091  32.0052261  60.6042747   4.3038020
  32.1751556  61.5197258   4.5258489  32.8453369  60.2754898   3.9838934
   3.7712021  34.4257889  58.5125656   2.8811491  34.7696571  58.5886726
   3.7065303  33.7384262  57.8495598  84.8421707  42.1829109  87.5440674
  84.5967712  42.1841698  88.4692764  84.3273849  42.8919792  87.1587753
  86.4301605  68.5477600  85.8076096  86.2038193  67.8381653  85.2063904
  86.3564301  68.1567535  86.6781921  68.6657410  47.0089302  30.5124340
  69.1301651  47.8248444  30.6990566  68.6713104  46.5346107  31.3438282
  63.4489212  27.2926693  53.5564537  63.6701584  27.5238972  52.6543350
  63.1071434  28.1029358  53.9344597  51.5861053  53.8592987  30.5524654
  51.4477768  54.7842636  30.3486614  52.5342560  53.7755089  30.6535549
  62.8621140  47.0032349  88.0084839  63.0932274  46.0772667  88.0819626
  63.7028732  47.4607887  88.0099564  51.3848114  18.8538361  68.5697327
  51.2722588  18.0917377  68.0016022  51.5611496  19.5771332  67.9680862
  15.2491903   8.2401819   1.7340267  16.1954422   8.2930098   1.5996773
  15.0684118   7.3024197   1.7984766  21.7690220  27.7095165  57.6676331
  22.3328991  27.8500996  56.9070320  21.4015751  28.5730209  57.8562469
  12.1334972  23.3488102  82.5969467  12.6238937  22.5267735  82.5978317
  12.8050718  24.0282764  82.5374069  72.2286148  54.5809517  47.8849754
  72.4744263  55.4119186  47.4784050  72.1833496  53.9619179  47.1562920
  32.3349876  28.7271500  77.6148376  31.9975338  28.3069286  76.8237839
  33.1936531  29.0642300  77.3592987  58.1688042  54.6239853  48.2030258
  58.1528778  54.1333046  49.0247383  58.3975906  53.9729385  47.5396843
  20.9076366   0.5564387   3.7267175  20.0546131   0.5842277   4.1600900
  20.7068882   0.3384699   2.8165405  76.9337845  44.7159462  85.5003662
  76.5368500  45.0983124  86.2829742  77.4304123  45.4342270  85.1083755
  67.6808090   2.1047854  73.5593948  67.8880005   1.3007890  74.0357285
  66.8917770   1.8914711  73.0612488  82.8667831  68.5117493  26.4099560
  82.6325836  69.4398346  26.4032936  83.5542908  68.4429703  27.0724049
  47.3014450  31.5185547  71.5505981  46.7989273  30.8634548  71.0662918
  47.8647499  31.0070591  72.1313705  73.5525589  49.7977371   3.2224879
  73.5155563  50.4594650   3.9131231  72.7963333  49.9882622   2.6674612
  29.1351032  23.4929066   1.8316022  29.2445335  23.8248806   2.7226973
  28.1922951  23.3540363   1.7418379  65.0934982  28.4295654  18.7875099
  65.1764832  29.2924595  19.1934166  65.3534927  27.8157444  19.4744320
  72.1788177  25.7140961  81.6773834  72.3429489  26.4561729  81.0954742
  71.2583771  25.4950256  81.5323792  30.7360153  66.9704666  64.9679489
  29.9019356  67.2657166  65.3331451  30.8402004  66.0784988  65.2992706
  74.5750732  25.3956451  57.8945427  75.3129044  24.9020519  57.5364876
  74.0235977  24.7334805  58.3112488  40.7271271   4.1554875   5.6269245
  40.2116127   4.5000505   6.3561387  41.0850296   4.9328856   5.1982193
  51.2953033  34.6934509  67.3142395  51.5160713  34.2997169  68.1583176
  51.6708984  35.5729561  67.3546524  25.1126308   2.0375562  47.8217392
  24.7677689   2.4181592  47.0139999  25.9743996   1.6994306  47.5783157
  68.0175705  15.2633209  36.2386627  68.3460693  14.9382439  37.0769043
  68.2060852  16.2016296  36.2551689  58.5443268  19.4425488   4.8325138
  58.4989548  20.2789612   4.3692760  57.6299744  19.1939011   4.9680243
  66.9396362  44.5467987  54.2997322  66.5743103  44.3160896  53.4455986
  66.9188919  45.5035858  54.3185844  83.9288635  55.7283783  19.8403625
  83.9874115  55.7891235  20.7938385  83.8570786  56.6365128  19.5464687
  43.9876671  53.6520386  39.9856033  44.1554298  53.5945015  40.9262276
  44.7094193  54.1808357  39.6454926  27.1474991  42.4872246  70.0097809
  27.4417324  41.6358719  69.6859741  26.7788124  42.9216385  69.2406387
  63.7901573   6.3513298   7.9733090  62.8901825   6.1029491   7.7621617
  64.3271255   5.8512373   7.3586507  38.4049950  27.0461025   2.6343632
  39.1748428  26.6937943   3.0809608  38.2072449  26.4023933   1.9540957
  82.6391449  12.7909327  63.6785431  81.7210083  12.6126652  63.8821983
  82.9175644  12.0415754  63.1520615   2.9304476  42.9566040   9.9267769
   2.0033970  42.9335251  10.1640034   3.3921688  42.9621048  10.7652369
  56.9299202  48.7374840  50.2430649  56.3432999  48.2127266  49.6983299
  56.8597565  49.6230011  49.8864479  64.9464188  55.2296371  57.5385704
  64.1683121  55.7862549  57.5694847  65.2256699  55.2589493  56.6234779
   2.9448926  45.4161758  62.5100708   2.6743906  45.8260498  63.3316956
   3.0655982  44.4927750  62.7314224  11.1596403  69.4855347  39.2593880
  11.4877768  68.6235199  39.5153084  11.2924852  69.5208282  38.3121071
  68.6574707  57.3271446  71.9198532  68.5533218  56.4511337  72.2913284
  69.3658142  57.2344780  71.2827606  33.5830879  64.5684738  69.5512009
  34.2434006  63.8873100  69.6786270  34.0501289  65.2740860  69.1037369
  49.0866470  31.4812298  45.6855774  48.2394409  31.8754253  45.8931389
  49.5180244  31.3799896  46.5340462  11.2161989  30.0001202  78.8537445
  12.0209827  29.6426048  78.4785919  10.9275179  30.6566944  78.2198639
  43.5967369  45.4143524  49.6790810  43.6458168  44.9764366  50.5288200
  42.8839912  44.9690056  49.2209396  27.3661728  70.8787994   8.6494417
  26.8792934  71.4418869   8.0476809  26.6903687  70.3981171   9.1274195
  62.6178055  46.1904984  13.0920153  61.7554550  46.5297279  12.8522072
  63.0637474  46.0570259  12.2556229  78.1996994  49.1254196   8.2521677
  77.5552444  49.0579567   7.5476394  79.0305481  48.8881836   7.8402915
  59.5140877   3.1022682  28.9590130  58.8355331   3.1544826  29.6321163
  59.1507607   3.5823927  28.2148972  61.0305443   3.2552414  32.4198494
  60.4402580   3.9666944  32.1715965  61.8307266   3.6964049  32.7050095
  35.3131905  60.7788010  58.4256020  36.2008286  60.6163979  58.1062965
  34.8762703  59.9295959  58.3609123  23.2544060   9.1682053   1.4837600
  22.9269829  10.0267372   1.2155282  23.7411137   9.3387280   2.2901528
   6.5033774  21.1159897   7.9844360   5.9166884  21.0301952   7.2329926
   6.7841916  22.0308838   7.9658284  73.7311172  60.0514526   5.0202990
  72.8795547  59.9003906   5.4304819  74.2946396  59.3657417   5.3787432
  27.7147636  10.4484262  82.6381531  28.6273727  10.6409044  82.8533936
  27.2197704  11.1696444  83.0268173  14.8989325  36.4761505  67.9463196
  14.6905680  35.9686508  68.7306976  15.1263876  35.8185654  67.2889938
  15.5545988   4.9171820  56.4519844  16.2737026   5.4957461  56.7057266
  15.9808741   4.1900897  55.9982681  20.9340267  70.9895096  14.8739452
  21.4136333  71.6054993  15.4278164  20.2691517  70.6152649  15.4519672
  43.1951485  16.4889526   7.0006142  42.8815460  17.0870533   7.6789660
  43.4571838  15.7017021   7.4779034  61.3664169  26.8301125  80.6618042
  61.7217941  26.0570393  80.2232895  61.2459183  27.4695110  79.9597549
  44.9023438  18.3270931  18.2476463  44.1719170  18.1376915  18.8365765
  45.3720665  19.0451622  18.6718731  79.2482758  30.1641312  86.0337524
  78.7187500  30.9377613  85.8405380  78.6202545  29.4419422  86.0498428
  76.3317947  29.6019459  33.0938416  75.8907166  29.5182438  32.2484589
  77.2637863  29.5384674  32.8850441  85.4280624  43.6571770   5.8788533
  84.6695633  43.1979485   5.5182772  85.7922211  44.1383438   5.1358199
  41.0389786  27.6519432  78.2909393  40.8133469  26.7738037  77.9840317
  41.7642860  27.5137596  78.9000854  61.9034615  63.7920532  44.1372643
  62.7103958  63.7607918  44.6511803  61.5403671  64.6598892  44.3140640
  57.6631126  51.7670326  65.4953232  57.9697609  52.1029816  66.3375397
  58.1524887  50.9541130  65.3691940  81.3847122  49.0362587  18.6268387
  81.9782257  48.4014816  18.2255516  81.0276260  48.5813599  19.3895893
  64.3345490  22.1460724   1.3781753  63.8268776  22.2830315   2.1780171
  64.8187408  21.3359070   1.5375944  81.7541733  56.6231422  78.1709366
  82.1385422  57.4655991  77.9285431  82.4967346  56.0196838  78.1968994
  78.1775284  41.9970360  43.3851395  77.6456909  41.6786575  44.1145325
  79.0311661  42.1849670  43.7752838  22.8392220   5.1080542  24.0729008
  23.1303844   4.3648472  23.5446014  23.2201481   5.8726983  23.6411037
  44.8602905  34.6694336  25.4646206  45.7848892  34.7388840  25.7023792
  44.8506660  34.0810432  24.7096767   1.6063430  39.4551086  39.1497459
   2.2867551  39.6421661  38.5030022   1.0921434  38.7486420  38.7589302
  16.7676373  58.9503059  85.2421265  17.5827579  59.1778030  85.6893997
  16.8008041  59.4397240  84.4201813  50.1062431  69.7271194  49.7371559
  49.8884087  68.8684921  49.3744850  49.6557350  70.3495407  49.1663094
  78.1375351  24.8133297  53.7965889  78.7107849  24.1074047  53.4977837
  78.5348282  25.6097946  53.4444046   2.6718144  31.4455795  82.3058853
   2.9618142  31.5133152  81.3961945   2.1272538  32.2209167  82.4420395
  83.1403580  66.2584229  15.4324865  83.1008148  65.6043396  14.7347441
  83.8850250  65.9898605  15.9706182  69.1090775  46.2539101  61.5430679
  69.2416000  46.6969299  60.7049713  68.4385300  46.7742386  61.9856339
  10.1146593  67.0176163  21.6261940  10.9270964  66.5446320  21.8063679
  10.0880117  67.7086563  22.2880001  51.8774757  55.8370552  25.9259167
  52.3880463  56.5426254  26.3230572  51.0236092  56.2308311  25.7467899
  31.8610268  42.8611794  16.8370972  32.0168648  42.4991913  15.9647942
  32.2578239  42.2268105  17.4340572  11.7272854   5.3196993  88.1203918
  12.5496073   5.0951419  87.6849670  11.1540613   5.6140175  87.4125595
  34.5409355  27.4849091   4.3988681  35.0772896  27.8369789   3.6885145
  34.2334862  28.2577915   4.8725333  76.9768066  31.1689816   4.5494103
  77.3194580  31.4383793   3.6972084  76.0641785  31.4575920   4.5427213
  61.5694427  39.7608261  33.7807922  60.6254082  39.7471161  33.6231842
  61.9468117  40.0497932  32.9499359  29.5116959  19.4945469  82.9238739
  30.0702286  20.0949364  83.4176407  30.1240406  18.9487801  82.4305191
  59.4572868   6.7780404  71.0283356  59.8263206   5.9025240  70.9120789
  59.6036682   6.9788523  71.9527130  17.7506714   6.8604860  87.3830261
  16.9479694   6.7914743  87.8998795  17.5707874   6.3520832  86.5922012
   9.5326309  22.9426727  83.1674576   9.7439175  22.6194992  84.0433273
  10.3813400  23.1563244  82.7798004  29.4277496  66.5480804  20.3909264
  30.3338394  66.2438889  20.3389435  29.4215546  67.1571274  21.1293411
   7.4987974  60.3071823  81.1803818   7.1036453  59.4532356  81.3560638
   6.8264871  60.9391441  81.4350433  30.7779408   3.1784074  56.1040268
  30.6325054   3.6676073  56.9138184  31.6851044   3.3713653  55.8672714
  82.1191254  36.0841026  35.8883705  81.5060806  35.6217842  36.4599228
  81.5759583  36.4170876  35.1739998  40.6935692  37.6755829   7.4727316
  41.0817413  37.5613556   6.6052613  40.5976295  38.6230507   7.5693274
  47.6844254  50.1608391  74.6280289  48.4708633  50.7054024  74.5933456
  47.5075874  49.9370308  73.7143173   6.8760247  23.5954380  59.8618011
   7.6472802  24.0107136  59.4758682   6.7280850  22.8178787  59.3235245
  86.6269455  44.5653267  65.4208450  87.4656525  45.0260582  65.4439392
  86.2120285  44.8636055  64.6114578  38.6946716  64.1439819  83.9501343
  38.5309372  64.0012360  84.8823624  39.2393799  64.9305191  83.9203186
  30.8306122  57.9845695  11.5115681  30.5792694  57.3196945  10.8704786
  29.9997787  58.3476334  11.8183794  52.6738701   6.3035088   1.3126340
  53.2083740   5.9359140   2.0164874  51.8046112   5.9271827   1.4504844
  67.7197189  46.5201149   7.0287819  67.3646240  47.3048210   6.6111965
  68.4473419  46.8407936   7.5616589  64.2524109  29.2494736   5.8290768
  64.6349869  30.0866852   5.5665102  64.1106033  29.3360748   6.7717452
   3.1893139  40.3249283  65.2882156   3.8493936  40.6172867  65.9167480
   2.4174907  40.8548241  65.4875488  48.6598473  34.1921349  63.6523552
  48.2825661  34.5502739  62.8488464  47.9206734  33.7831535  64.1024628
   6.2266445  47.2548065  47.6399879   6.3460164  46.3267632  47.4382095
   6.8746305  47.4372368  48.3204803   1.4738015  53.4701424  38.0593147
   1.0676171  53.2772980  38.9043312   0.7666960  53.3616142  37.4233437
   8.3008614   7.1663041   4.1540856   7.7716737   7.6311860   4.8022194
   7.6615667   6.7235217   3.5959830  48.5105972  25.2710934  86.7215042
  48.1628647  24.7394314  86.0055084  47.7351341  25.5695076  87.1967316
  83.6513977  20.7406597  64.6611938  83.0486984  20.9645309  65.3703156
  83.1151657  20.7812119  63.8693314  32.7271919  66.1605148  78.3451767
  32.9714088  65.6549911  77.5699158  33.3913269  65.9356003  78.9967651
  24.4162579   9.4654884  13.4224463  24.9698315   9.6811152  12.6719170
  23.5242786   9.6326103  13.1180220  60.8331718   0.2852383  82.0587311
  59.9971619   0.6400927  82.3610458  61.1985321   0.9735172  81.5028381
  71.8842697  25.7857628  70.9932175  71.2958450  26.0737438  71.6911163
  71.6335983  26.3140316  70.2353745   5.8046522   5.5622768  34.4117584
   6.1572804   6.3499355  34.8258591   5.4329691   5.0573554  35.1350403
  36.8150482  69.7862625  35.5500870  36.6432381  70.3451004  36.3079910
  36.1507683  70.0405273  34.9095268  74.7549667   4.2034168  21.9036293
  74.2278519   3.6730261  21.3060799  74.2553864   4.2123423  22.7200680
  68.1874924  53.6393318  16.2858105  67.3609924  53.9401131  15.9081030
  68.7988510  54.3587265  16.1278954  68.1665192  42.8872948  40.6108665
  69.0993958  42.7062798  40.4959679  67.8905258  43.2623367  39.7745628
  86.2737350  36.0395317  86.1294479  85.6040802  35.3564224  86.0954590
  86.4728088  36.1336441  87.0609741  61.6735229  21.9193954  10.7513590
  62.1174049  22.1108246  11.5775280  62.0426483  22.5470982  10.1300955
  16.9757099   1.4665635  66.7791214  17.3354282   1.5521206  65.8962173
  16.0914097   1.8270227  66.7134247  67.2732925  41.3593102  79.5454330
  67.9896393  41.1682091  80.1508713  66.9529495  40.4990311  79.2742538
  41.8430405  69.9653015  38.5266876  41.4506187  70.3056335  37.7226906
  41.5343475  70.5569077  39.2129364  39.2263374  65.4996796  39.0363541
  39.1423607  65.5072098  38.0828743  38.4162140  65.0938416  39.3449440
  43.3689156  70.9258499  54.5332184  43.4549751  71.6639786  55.1365280
  43.9629707  70.2611237  54.8817444  19.8662605  15.6302195  82.1482697
  20.5801964  16.1784172  81.8226852  19.1859360  16.2517929  82.4071884
  54.8229828  39.2468452  84.5127258  54.5489655  40.0048752  85.0289993
  54.5561905  38.4913101  85.0363846   2.4988492  19.5121155  45.5260963
   3.2270777  20.1327915  45.5520782   2.7360735  18.8377666  46.1626587
  40.5320053  16.7138252  79.0002441  39.6306305  16.6834316  79.3209152
  40.5721130  16.0285873  78.3331070  56.8979797  47.3357162   2.1627007
  56.0049248  47.6802139   2.1617870  57.1889076  47.4268150   3.0700560
  51.3719749  50.6893158  40.8087921  50.6047516  51.1141434  41.1923523
  51.1494331  49.7584190  40.7969856  27.8756866  31.2285595   8.4595051
  28.3262920  30.4785957   8.0712471  28.5154972  31.9393845   8.4195051
  67.2583160  29.4190121  17.4464760  66.3748169  29.3007889  17.7953167
  67.8027954  28.8297729  17.9685612  31.2489204  20.0298729   8.4412937
  30.7726288  19.3161564   8.0170441  30.5668907  20.5649948   8.8471403
  41.2747383  11.8141012  70.3436584  41.7477341  12.4184809  69.7716141
  40.3842430  12.1635504  70.3773270  74.2915115  22.4626102  58.8530426
  74.4942169  21.5622940  59.1071587  73.5785904  22.3780479  58.2199402
  69.3726273  15.6860867  39.9755898  69.3064651  15.5071220  40.9135818
  68.8869934  14.9730625  39.5608788  73.3712692  28.9541321   9.4028664
  73.7160263  28.1165409   9.7124071  72.5052109  29.0200405   9.8051577
   7.9381008  51.4982376  73.4420700   8.2589455  51.1152916  72.6255875
   7.7319298  50.7447548  73.9952316  77.6066971  16.3404636  48.2766418
  77.0454788  15.5959167  48.4932480  78.2633743  15.9800367  47.6807442
  20.3365784  11.0655861  14.8419218  20.9790039  11.6985588  15.1626520
  19.7706490  10.8961430  15.5950785  16.4045887   7.2925496  19.5746479
  15.6481190   6.9608874  19.0909290  16.1622753   7.1936312  20.4953709
  66.6257019  14.0761099  29.7444515  66.2775040  14.3327932  30.5983276
  65.9240646  13.5625343  29.3442287  43.9708099  26.5018806   0.0563969
  43.1248322  26.9466820   0.0043756  43.8265839  25.7842941   0.6732427
  60.7320480  15.2846384  28.5207596  61.4372559  15.0589819  29.1273842
  59.9771729  15.4555292  29.0839558  77.3783340  51.5122032   9.6593943
  77.9414597  52.2671890   9.4887581  77.8196182  50.7815094   9.2262764
  74.1954651  33.8021202  86.4612732  74.9846268  34.3005257  86.2490234
  74.5162430  33.0386772  86.9413605  31.2901363  46.2807159  23.1013241
  31.2332592  46.3145561  22.1464157  30.4699039  46.6703262  23.4040718
  51.1154785  61.6340942  43.8416595  51.6799469  61.6714859  43.0695152
  50.6522408  62.4717369  43.8404922  32.3483810   3.1263802  68.8543625
  32.7147865   3.8114526  68.2952042  32.0432549   3.5909729  69.6336441
  13.0576382  47.5091629  20.1426773  13.6169367  46.7570229  20.3368511
  12.5421829  47.2348633  19.3841934  72.1599808  39.6164169  26.6189957
  72.7645035  40.2751503  26.9608288  72.0092621  39.8780556  25.7106667
  38.2384911  40.4292984  28.8684349  37.4883156  40.4768524  28.2758045
  39.0011673  40.4314079  28.2900314  47.2585144  11.5922718  54.7880936
  48.0659447  12.0934706  54.9024811  47.5524025  10.6899195  54.6631050
  79.8366470  20.5213776   8.0839472  79.4525223  21.2219753   7.5568419
  80.7674789  20.5370350   7.8613582  53.9966316  13.4091244  75.4117355
  53.7973518  12.7884235  76.1126328  53.8973427  14.2698259  75.8186340
   7.0166559  59.7069550  23.3353233   7.5951171  59.4666977  24.0591259
   7.1474977  59.0169258  22.6849613  37.6863403  18.2819538  13.3482075
  37.6269073  19.2372189  13.3351974  37.7702332  18.0598049  14.2754850
   3.3272469  38.4677887  45.0949097   3.6768186  39.1325722  44.5015297
   3.9064686  37.7146378  44.9787254  83.0210648  61.9482841  41.0636864
  82.4594116  61.8068695  41.8257713  82.5365982  62.5706367  40.5212860
  51.1963959  27.0000420  22.5270443  50.4011993  27.1714821  23.0315266
  51.0961342  26.0986900  22.2208691  26.4986725  53.0820236  10.6255236
  26.9920902  53.1937065  11.4381113  26.0481853  52.2442055  10.7320814
  34.6756172  34.2338181  64.2057266  34.2791901  33.3675041  64.1130905
  35.6183472  34.0688858  64.1886597  65.2421341  28.9570408  24.0920029
  65.7356262  29.3897572  23.3952560  65.4401398  28.0268402  23.9835873
  83.7853165  42.3684273  38.7793045  83.8555298  42.9141960  39.5625267
  84.4941940  41.7312241  38.8670692  81.4091873  17.9036312  53.3463287
  81.8196030  17.3379612  52.6922607  80.5329819  18.0732746  53.0003242
   6.4158287  56.5729218  41.2829056   6.7129951  55.6668053  41.1999626
   6.6135559  56.9684906  40.4339867   7.2328191  23.2179184  -0.1353333
   7.7675319  24.0077591  -0.0549244   6.7647343  23.1597500   0.6975802
  21.6496449   0.4264219  31.8926983  21.5747204   0.4762869  32.8456573
  22.1796227  -0.3548479  31.7346706   7.4618006  38.0504150  19.4013157
   7.3785543  39.0039864  19.4000397   6.6201534  37.7369614  19.7323875
   5.6897378   9.5674553  54.8231277   5.3166709   8.8881645  54.2613297
   6.6347098   9.4209061  54.7808914  12.2937689  46.5554695  83.3841934
  11.8443756  46.9928322  84.1073761  11.6124582  46.4202271  82.7255936
   5.9662056  20.3989201  23.6098118   6.0030823  21.1632175  23.0347290
   6.1766748  20.7422028  24.4781952  12.8496246  31.2384701   7.7895098
  12.1838512  31.4646835   7.1400433  12.6507397  30.3339272   8.0313301
  84.3620453  18.4773808   2.7262490  84.2654266  18.6553078   3.6617904
  83.4644394  18.4358826   2.3963785  77.5163498  70.2169800  32.2836914
  76.9925461  70.5504379  33.0121651  78.3837891  70.0690994  32.6603928
  55.8030815  15.9484110  40.9822006  55.1906967  16.1532097  40.2756081
  55.3186607  15.3527775  41.5538559  24.1329613  62.5628891   7.5324979
  24.6826839  61.8872833   7.1355124  23.9260273  62.2224388   8.4028444
  44.9155922  45.5942459  14.9977512  45.0480003  45.0778160  15.7927341
  44.0771408  46.0350380  15.1353588  17.4548130  61.5629311   0.2778349
  18.0024948  60.8850670   0.6737835  16.5626488  61.2244644   0.3534131
  44.5887413  23.3584480  75.9437714  44.7555161  22.4234371  75.8247147
  45.4556847  23.7410870  76.0787811  75.2423935  31.1312828  78.7538757
  75.4433441  32.0025368  79.0955887  74.6615982  31.2936420  78.0105362
  65.1780014  70.6179962  70.2048035  65.7428970  71.3728104  70.0393219
  65.7230530  70.0179443  70.7138138   8.1687994  53.6533470  45.9192772
   8.7097769  52.8715134  45.8083382   8.6861238  54.2238808  46.4876938
  22.1590443  26.1492767  19.4178219  21.7423115  26.9756851  19.1736584
  22.1576672  25.6330185  18.6117764  82.0909882   8.1932173  79.5414276
  81.2129364   7.9388809  79.8252640  82.6595612   7.9453535  80.2704773
  50.2677002  45.6529007   2.7328694  51.0179520  46.1097755   3.1131542
  50.0602837  44.9651413   3.3654845  61.4729919  20.1768055   4.2417727
  60.8988571  20.9020653   3.9956048  61.2824287  19.4921875   3.6005108
  62.1122093   7.1369028  17.1363583  62.1735039   7.0923352  18.0905533
  61.1865616   6.9818234  16.9483089  86.0442429  11.9708767   3.3466163
  86.0686646  12.6150494   4.0542016  86.9556808  11.6991510   3.2385297
  12.4525814  18.7648830  72.6904449  12.6396570  18.2496223  71.9057541
  11.5228186  18.6135254  72.8603363  82.2064819  19.9262905  32.7857132
  81.2610474  19.8930054  32.9315414  82.5872345  19.8164520  33.6570320
   5.9365902  42.2495346  39.1508942   5.8846221  42.9046516  38.4549408
   5.2763138  42.5234604  39.7874718  72.2318878  54.0154076  83.1724167
  71.8896713  54.1286316  82.2856827  71.8555450  54.7420616  83.6689835
  14.2164001  46.7878799  16.5548725  14.7595987  46.7392120  17.3415108
  14.0297480  45.8749657  16.3358364  24.3754864  46.8763313  20.2421894
  24.9881382  46.4362030  20.8314056  24.6505871  46.6069603  19.3658390
  47.9635277  42.5019226  30.4020424  47.0542107  42.7893944  30.3200092
  48.0942268  41.9071083  29.6635647  47.0281487   3.1811006  73.5199738
  46.8553162   2.4712985  74.1384735  47.5583153   3.8060024  74.0146027
   2.6141148  28.9896660  40.5634041   1.7545855  28.8406696  40.9574089
   3.0982010  29.4843121  41.2246284  43.1602745  26.5726776  70.5119095
  42.5512276  27.2922344  70.6778336  43.4267235  26.2787209  71.3830185
  12.8372154   6.2501287  32.7524681  13.6258001   5.7637734  32.9929352
  13.1183062   7.1647768  32.7271843  85.6613235  23.4947109  11.5949726
  85.2706528  22.8856678  12.2216082  85.0838013  24.2578907  11.6108084
  10.7216177  63.6200485   9.7672138  10.1598072  63.2499390  10.4481106
  11.5022640  63.0661659   9.7735567  13.9326935  54.7548065  39.0374489
  14.0048370  54.5617561  39.9721985  14.8340855  54.7260399  38.7166748
  40.7271385  15.6987801   9.4689217  39.8213234  15.8934193   9.7094288
  40.9388351  14.9030275   9.9569740  46.4922829   0.7861539  42.7675896
  46.8726311   1.6644758  42.7784691  47.2254562   0.2051303  42.9703255
  30.0097332  63.8246689  64.7484207  29.7141953  64.0452042  63.8651009
  30.1176891  62.8736801  64.7344131  62.7800598  15.8805685  72.1251450
  62.6602516  16.8295650  72.1609421  62.2805824  15.6049223  71.3565216
  35.7751465  13.4804354  10.5316553  35.0331612  13.4881458   9.9269838
  35.3994484  13.7329836  11.3750420  76.2237778  16.0913467  80.0481644
  77.0408173  15.6026039  80.1471939  76.4112320  16.9504375  80.4263916
  57.8547096  36.9633751  76.1642609  57.5314407  36.7363281  77.0361404
  58.7440605  37.2838593  76.3145142  58.0581131  64.2740250  10.9134731
  57.7137527  63.6719933  10.2537737  57.4789467  65.0348282  10.8690176
  39.7543297  12.4762192  19.9907990  39.4722290  12.4118452  19.0783806
  40.6943092  12.6494579  19.9392204  81.2393265  69.3555603  64.7736130
  80.6729813  69.5177612  64.0191650  81.1970520  70.1647415  65.2831879
  11.8840504  48.4840813   3.0672324  12.6034918  48.7583961   2.4985607
  12.1762486  47.6515999   3.4384773  45.3603592  40.3332024  89.3762512
  45.2736168  40.9540939  88.6529236  46.0504799  39.7325516  89.0948563
  57.5452805  38.6286278  70.2281265  58.1855659  38.4607315  70.9195557
  56.8747940  39.1673126  70.6482468  70.1574326  55.2148323  30.4928684
  71.0936203  55.3325348  30.6539173  69.7306747  55.7785683  31.1380882
  54.3457489  24.9227009  37.7038612  54.1618767  25.1698074  38.6101494
  53.6229515  25.2989769  37.2016563  86.2372742  39.2934914  60.2465286
  85.9186630  39.4590530  59.3592262  85.5890427  39.7089767  60.8152046
  56.4729576  36.2510185  64.6438828  55.9018707  35.6957970  64.1130142
  57.2579727  36.3680687  64.1088257  83.5506744   9.4071293  23.5947361
  83.6733704   9.2906055  24.5368614  83.6261902   8.5243912  23.2323799
  43.0154572  50.9794731  23.5086269  43.6414986  51.6842995  23.6745224
  42.9359245  50.5271721  24.3484669  72.1624832  65.6412354  63.7991638
  72.4180527  65.9358521  64.6733017  71.8612061  66.4351501  63.3573990
  86.2037888  34.1955757  31.4646511  86.5531921  34.4092445  30.5994911
  86.3036804  35.0027657  31.9693317   5.9788761  58.2700882  11.7401409
   5.6359568  57.5265350  12.2358894   6.2407107  57.8965874  10.8986101
  38.2083168   3.7209148  59.5030594  38.4532318   3.2301362  58.7185936
  37.5584793   4.3534422  59.1967049  22.1703854   8.1047678  59.1836205
  22.6749001   8.8511887  58.8602791  22.6471443   7.3378549  58.8661652
  68.4760208  41.5610962  11.1775789  68.4092102  41.4183922  10.2334375
  67.6507950  41.2271042  11.5292778  78.4358521  19.0224342  34.6634789
  78.5356750  18.0819740  34.8111343  78.7822418  19.4277840  35.4584236
  79.1792297  65.0713882  38.3204308  78.3159943  64.6603928  38.3666458
  79.7499008  64.4866791  38.8190994  76.4021683  66.9422531   0.2139203
  76.4489059  65.9964676   0.0741215  77.3111572  67.2094269   0.3502333
  47.9090996  64.9665680  52.6757164  47.3223610  64.3884201  53.1632767
  47.3454933  65.6773071  52.3700409  21.4265957  48.7867584   6.1810212
  21.9143219  49.3039284   5.5400167  21.7565899  49.0834503   7.0291419
  59.3339081  64.4495697  70.5235901  58.6350212  64.3046494  71.1613846
  59.1575508  63.8170242  69.8271561   3.7567406  35.9754868  68.7226105
   3.9874208  35.0489578  68.6550598   2.9102399  36.0443573  68.2811050
  15.7770386  19.0423203  18.0853405  15.7095642  19.8267689  18.6296902
  15.1997356  19.2162914  17.3419094  32.1357040  46.1078339  10.1310406
  32.9065628  45.5959053   9.8862190  31.6945877  46.2884178   9.3009577
  69.6604996  40.9787903  26.9901333  70.2577209  40.4469376  26.4641190
  68.8923492  41.0993958  26.4318981  76.8699722  48.3234482  12.5255709
  76.4797592  48.2343826  13.3950729  77.6054153  48.9226418  12.6533289
  87.0774994   8.1556120  38.5530624  86.7459259   8.9080772  38.0630760
  86.2971802   7.6404819  38.7579269  46.1183434  26.0509357  11.3223677
  45.5980682  26.4022236  12.0449619  47.0170937  26.3093624  11.5265656
  55.5418472  63.3187828  89.0301132  55.4332695  63.6618805  88.1431351
  56.4090576  62.9136200  89.0257034  17.5366631   1.5745687  64.1847992
  17.0986309   1.9796348  63.4362793  18.4065838   1.3452178  63.8578911
  66.4858398   6.8388853  49.6390076  66.2140198   7.5179629  49.0215950
  65.7292175   6.2560105  49.7023544  34.1421967   5.8407869  81.6672058
  34.4777336   6.7370462  81.6862946  33.3781090   5.8832903  81.0922318
  68.7198486   2.1724651  44.1552773  68.6017227   1.3787934  43.6333923
  69.5007782   2.5865893  43.7880173  63.7785568  12.5336857  57.4878540
  63.7415848  11.6339855  57.8125153  64.6839371  12.6468983  57.1985321
   5.1784210  48.3645096   6.1507130   4.6613555  48.1565781   6.9289412
   4.6779284  47.9929314   5.4243050   6.4175286  52.4947243  25.0450287
   5.9863734  51.6405525  25.0181026   7.1577611  52.3707581  25.6390991
  26.9885006  15.4470015  36.1920319  27.5237637  15.3678741  35.4024353
  27.2456932  16.2868061  36.5725708  23.4143906  51.2678299  -0.1567943
  23.4661064  52.1018906   0.3100028  22.4835587  51.0449409  -0.1465590
  33.5030441  13.1803951  70.9417953  33.9818535  13.8823643  71.3824921
  33.1546326  12.6442547  71.6541138  75.4250946   4.9195013  84.8485489
  74.5516739   4.5451756  84.7334366  75.7113876   5.1367669  83.9613800
  31.2157230   2.4812958  38.8132019  31.6869717   2.8994777  39.5338135
  30.3628807   2.2548661  39.1841774  73.7850342  64.5193176  80.9313431
  74.4564514  64.3318405  80.2753830  73.3176880  63.6909599  81.0392303
  72.4652786   2.3829606  50.9688721  72.3604736   2.0744386  51.8689079
  71.8554916   1.8486948  50.4600029  38.9842033  51.4208946  87.9017487
  38.9171028  50.4937019  88.1298752  39.1712227  51.8589134  88.7320480
  33.2767601   7.3973260  61.0976601  32.5506401   7.1741052  60.5152931
  33.6293831   6.5519896  61.3756828  84.9557419  47.1037025   4.3476300
  84.5837250  46.9249725   5.2112794  85.8491669  46.7636719   4.3966527
  21.2792912  71.4247284  34.7688217  21.1238670  71.0226822  35.6234741
  21.8382893  72.1786423  34.9568863  11.8204660  69.6492157  69.2025070
  12.1277733  68.7992325  68.8873520  11.8346729  69.5704117  70.1563492
  78.3004990  30.1450005  70.9900894  78.8013992  30.2386112  70.1797943
  78.1873779  29.2001991  71.0939407  85.1490173   5.8680153  32.8016319
  85.9811401   6.2232180  33.1141014  84.6279221   6.6393900  32.5787506
  11.8625412  45.8957138  41.0200272  11.7925520  45.3184471  40.2596970
  12.6032228  46.4677582  40.8190575   4.4450412  64.9645920  64.9297104
   4.5123987  65.4043808  65.7772217   3.5231071  65.0514755  64.6873856
  71.2527313  67.3228989  24.9571209  70.5186081  66.8703156  25.3723984
  71.3962021  68.0967026  25.5019913  10.4090853  56.6640396  11.5490923
   9.6102057  56.2011490  11.2965946  10.1242352  57.5638084  11.7088099
  68.3971558  43.0681229  77.6042480  68.8129349  43.8541374  77.9585648
  68.2989655  42.4880371  78.3592911  15.2935944  59.3999710  59.2630768
  15.5028400  59.3327522  58.3314476  16.1192799  59.6522217  59.6764107
  79.1739502   0.1604169   8.9200869  79.7077560  -0.6050963   9.1328764
  79.7642288   0.7364801   8.4343290  49.9570351   6.8356338  43.3876686
  49.1428146   6.4323916  43.6887932  50.6376610   6.4321170  43.9263268
  36.4565086  68.7975235  54.8521500  36.4330215  67.9552307  55.3062744
  37.3472099  69.1195450  54.9906502  43.9079361   3.0480409  67.8200912
  43.6663322   2.3958209  67.1624680  44.1635056   2.5331554  68.5854721
  55.6909409  21.7163143  13.7360077  55.2945442  20.8581753  13.5853472
  55.2037239  22.0786152  14.4759998  38.6201744  61.6843452  73.1406784
  38.2550354  62.5523300  73.3124542  39.4423294  61.8568764  72.6818542
   7.1237578  42.1213417  23.7159500   6.7235866  42.9903564  23.6857376
   6.3832054  41.5155258  23.6876755  83.3710785  43.0237579  36.2662773
  83.7359314  43.9020729  36.1581955  83.5786743  42.7877579  37.1704025
  19.4764843  12.1427851  12.4441805  20.0074120  11.6957769  13.1033716
  18.5857372  11.8296375  12.6014662  17.9591694  63.9495277  85.3986435
  17.5141563  63.8049507  86.2336807  18.7009487  64.5136871  85.6170807
  81.6664581  16.3196602   5.1732283  81.2493439  16.0117779   5.9778719
  80.9455338  16.4138832   4.5506377  13.2516041  45.6851883   7.0287490
  12.4338026  45.2240486   7.2152462  13.0562334  46.6037445   7.2139988
  63.5238609  16.3046780  86.7791367  64.0549698  17.0702782  86.9982605
  63.0293083  16.1197929  87.5775528   4.2559161   3.2915721  69.3572769
   3.9351656   2.3939407  69.4445038   5.1424694   3.2651649  69.7172165
  68.1050415  20.6244984  17.8534698  68.1948700  19.6992836  18.0818119
  67.3855667  20.6467190  17.2225189   4.9219484  63.6193619  47.0362396
   5.8285780  63.9242859  47.0719681   4.7276998  63.3402252  47.9309921
   3.2950609   7.8972101   4.7600069   2.3725801   8.1467190   4.8148351
   3.3406267   7.0496111   5.2024226  51.6850548   5.0137157  84.6623230
  51.3328323   4.5279727  83.9165192  52.2379799   5.6887975  84.2689133
  35.4107780  56.9424553   6.9548578  35.1974068  57.8754044   6.9371676
  35.4598923  56.6904640   6.0327291  85.0404739  11.0010166  55.1860657
  85.7453079  11.4657707  55.6371193  85.1666946  11.2137413  54.2613754
  23.5707188  53.6897240  49.6592636  23.4836960  54.6387711  49.7485352
  23.6545200  53.3712959  50.5580482  65.4934158  21.3331776  74.3042145
  66.4235992  21.2135601  74.4957199  65.4750824  21.6780415  73.4114838
  13.9563065  60.0917206   8.1659822  14.3774137  59.2403641   8.0472822
  13.9901857  60.4984818   7.3001709  75.4611053  23.6101627  49.9090881
  76.0287170  23.7639961  49.1538544  75.9817810  23.0568161  50.4912682
  53.7351570  55.4884529  84.7715759  54.3485756  55.7296295  84.0774689
  54.2139626  55.6561203  85.5832748  69.7863617  49.5774155  31.0846043
  70.2710953  49.7731857  31.8864403  70.3980484  49.7849960  30.3782196
  44.2630615  37.3910255   6.3237815  43.8995094  38.2001038   6.6835804
  44.4678993  37.6045303   5.4134579  74.1512909  28.9202919  17.9937477
  74.9962769  28.4723263  18.0331326  74.0062103  29.0763664  17.0605679
  82.3750839  27.1167297  63.1440353  82.3276443  26.2006111  62.8707047
  83.0733719  27.1355724  63.7984619  11.3578625   1.9994298  87.6657867
  11.2141905   2.4420412  86.8293152  10.4927425   1.6762034  87.9174271
  34.7716293  20.3314133  79.5091095  33.8348007  20.5179615  79.4475937
  34.8190804  19.3847389  79.6424789  62.9690132  34.3136559  59.2062378
  62.1641541  34.7875290  59.4157295  63.3690491  34.8214035  58.5002670
  36.5038376  66.6428986  70.9307785  36.9370270  66.7023926  70.0792847
  37.2190666  66.6747894  71.5661240  19.2564449  37.5804482  13.0781403
  19.6020641  37.1196480  12.3136530  19.9346886  38.2183571  13.3001518
  56.1856651   1.7639490  18.0928993  56.7921791   1.0240135  18.0634003
  55.3849335   1.4336824  17.6854935  44.0850182  71.6364212  28.3708763
  43.8425446  72.0016937  29.2217655  44.4002075  70.7547531  28.5697422
  41.0787659  31.7696762   5.1833730  40.3812752  31.6798782   4.5340085
  40.6191483  31.8465443   6.0194793  20.4236565  13.9829826  85.1847000
  20.1934872  13.0710011  85.0070953  20.4940777  14.3851967  84.3189621
  11.9716997  66.1620789   8.9784374  11.4649487  65.3864822   9.2190418
  12.8706350  65.9476929   9.2278118   6.0739632   3.7942207  72.1011353
   5.9182410   4.6685343  71.7439880   6.9224319   3.5360253  71.7410431
  37.9827232  40.5315895  10.0570345  38.3304100  39.6962967  10.3694925
  38.5242729  40.7474899   9.2978621  35.8305054  51.0578880  75.9898834
  36.3329849  50.2481422  75.9001389  36.0427704  51.3754578  76.8675690
  12.4546003  18.6422501  23.6464901  12.0905428  19.5139446  23.8009014
  12.1257648  18.3950062  22.7822151  11.9994097   2.0286083  57.8432961
  12.7144117   1.7760441  58.4274330  12.2891426   1.7485021  56.9750671
  51.5815353  21.3576870  32.5057945  51.0238113  21.0172939  31.8062878
  51.8023491  22.2458267  32.2252960  22.9666462  63.3118935  50.7613983
  22.8512001  63.0988426  49.8353767  23.7516422  62.8301048  51.0219574
  29.6731892  57.3039398  69.5914688  30.2181454  58.0873528  69.5171738
  29.3433723  57.1566620  68.7050323  53.3740654  22.6288662  85.9528427
  53.5556221  23.2274876  86.6773529  53.2502632  21.7769394  86.3713226
  42.6707382  62.5499420   8.4024191  43.2661324  62.9715233   9.0221052
  42.9337807  61.6296005   8.4058475  28.6581554  38.4228363  20.1497555
  28.9968185  37.6905632  19.6346645  28.2659016  38.0124130  20.9204178
  56.5847244  12.9556084  74.2837601  57.1336517  12.7945986  75.0512161
  55.6917000  12.9748373  74.6278076  65.5225296  33.2307243  83.2217102
  65.1694412  34.0566597  82.8909607  65.8019028  33.4303780  84.1151962
  39.2615662  15.0091429  76.0511475  38.5472260  14.3737078  76.0045319
  39.8820076  14.7215824  75.3813858  42.2450714  43.3302269  75.4971008
  42.8264236  43.4447136  76.2488632  41.6239433  44.0556374  75.5619888
  24.7913284  63.5536766  67.7870026  24.8697224  63.6614914  68.7348709
  24.6102886  64.4348373  67.4598770  85.2280884  16.0794277  87.5970535
  84.6565857  16.5460796  88.2068558  85.9588089  15.7777710  88.1367569
  71.6640244  69.3423538   4.9262538  71.3231888  70.2361679   4.8922729
  72.5992661  69.4356003   4.7449603  59.3217201  49.4457512  65.1968384
  59.4630089  48.8580246  64.4546509  59.9106979  49.1187172  65.8768311
   6.3308325  70.8046799   4.3529320   6.3519421  69.8723450   4.5686836
   5.5057049  71.1176834   4.7236395  31.7688026   9.2689581  77.7019272
  31.3617649   9.1393223  78.5585175  31.3080845   8.6612835  77.1233902
  86.2009277  28.6002426  53.2677155  87.0817490  28.3076954  53.5018082
  85.9386215  28.0213776  52.5519333   5.8721809  58.1248322  82.3711395
   5.8126116  57.8063278  81.4704514   5.7668824  57.3407059  82.9099274
  60.5171928  18.9613647   9.8593664  61.1628914  19.4792709  10.3400707
  60.0636864  19.5974789   9.3062639  61.8604507  57.8492966  82.7450333
  61.6566467  57.5417786  83.6282883  61.1364670  58.4344444  82.5221405
  40.3515625  48.8395271  70.1003494  39.9547691  49.5884361  70.5452271
  41.1172600  48.6230316  70.6323929  44.1901779  49.9764595  14.6338844
  44.8735123  49.3490829  14.3979130  43.3836174  49.5928993  14.2895412
  30.2184448  34.9016151  84.0804977  31.1021595  34.5778542  83.9059753
  29.9967155  34.5416069  84.9392548  25.8973026  67.0709305   4.6497035
  25.3628311  67.6996384   4.1646328  25.3287754  66.3089676   4.7611718
  65.4993591  45.6097450  46.6308899  65.6144180  45.9842606  47.5042343
  66.2415009  45.9440918  46.1272316  18.8925896  21.9880352  27.3777657
  19.7232971  21.5135384  27.3459759  19.1442261  22.9115639  27.3804169
  66.5527115  65.2556229  40.2560463  66.4974213  64.4165649  39.7987061
  65.6442413  65.4773483  40.4603844  20.2869225  43.9324570  27.7047596
  20.2213402  42.9852982  27.8265114  19.5534058  44.1514282  27.1300983
  56.8099365  58.2425423  87.9011002  56.9350090  57.8474464  88.7639389
  57.3332443  59.0436325  87.9263611  60.6494293  23.2502136  15.5195475
  60.0844688  22.7817974  14.9050283  60.3143349  23.0103798  16.3835049
  72.8897858  61.1488953  55.5415840  72.2483139  60.4392548  55.5754814
  73.5500107  60.9061661  56.1907539  59.8750343  22.9930897  87.4758148
  58.9790535  22.9910717  87.1389923  60.3507004  22.3995552  86.8947067
  57.5698242   5.1767783   5.6507521  56.7258377   5.6241374   5.7123027
  57.4722214   4.5825362   4.9067211  37.3154831  38.1798401  72.0489044
  37.8567924  38.3364944  72.8226471  37.7039070  37.4079514  71.6371384
  73.0896149   4.3563414  24.0222397  72.1467438   4.4896870  23.9250507
  73.3719025   5.0594234  24.6072388  44.7117195  42.5016937  87.4523087
  44.8154755  42.4752502  86.5011139  45.1156158  43.3289833  87.7143936
  46.0344925  38.7346230  34.6936226  45.4040947  38.8749313  33.9871216
  45.7447166  37.9260674  35.1161118  39.1723595  58.3564224  58.7093468
  39.4654236  58.3294601  59.6201820  38.7044945  57.5308571  58.5837402
  68.3596725   6.5265160  38.9199257  68.1477737   7.4595532  38.9477272
  67.7033615   6.1492043  38.3341560  34.7609062  11.8661480  85.9619598
  34.1315689  12.5121622  86.2826309  34.7313805  11.1613388  86.6089554
  30.7556839  58.5169907  46.2686539  31.6844215  58.7478104  46.2886429
  30.7263260  57.6823807  45.8008957   2.4674284  11.5795460  24.1562595
   2.7403347  11.1029568  23.3722839   3.0780361  11.2930069  24.8354397
  76.7120590  10.6841192  56.4812737  77.1232605  10.8293715  55.6291885
  77.3026810  10.0809908  56.9325409  60.0485992  54.9856262  42.3562584
  59.9902840  54.5013542  41.5326614  59.1609497  55.3109360  42.5061951
  36.5338860  47.7763901  25.7728443  35.6803169  48.0800781  25.4639359
  36.4785042  46.8217735  25.7295475  21.2042255  22.9979095   8.6784678
  21.2078800  23.2772713   9.5939875  20.5237198  22.3261070   8.6357622
  75.8618240  65.9234238  41.9914474  74.9519501  65.7635803  42.2420654
  76.3684235  65.3118820  42.5258636  84.5770416  56.3609238  51.4485588
  84.5625610  56.5492897  52.3869286  84.0444107  55.5711784  51.3545532
  75.5360947  41.3044052  50.2856712  76.0359268  40.9517326  51.0218925
  75.6744232  40.6743088  49.5785141  69.0971832  26.2582836  62.9008369
  68.1425552  26.1979351  62.8652802  69.2698517  26.9489689  63.5406570
  57.6962280  46.6477318  28.4749889  57.8572044  47.0777588  29.3148670
  58.4893494  46.1374435  28.3112831  33.5921135  57.3123703  68.4376602
  33.0072975  58.0701218  68.4315262  34.4557724  57.6779251  68.6292343
  26.2424469  47.5221558  85.6600494  26.4492855  48.0346680  86.4415741
  25.5494041  46.9250069  85.9417191  72.2832870  21.6929302  37.9119110
  72.9687958  22.3310108  37.7140236  71.7826767  21.6194649  37.0993729
   6.3033113  48.9079132  79.3599167   6.4463329  48.2803917  78.6514053
   7.0672035  49.4838104  79.3276367  49.9023285  65.9335175  47.0361977
  50.7202225  65.9271393  46.5389633  50.1764069  66.0436478  47.9466858
  13.3846836  41.1705513   6.2950711  13.8112726  41.9612350   5.9648080
  12.7842598  41.4865570   6.9702482  85.3291626  42.6350861  79.6344528
  86.0460358  42.1945610  80.0908051  85.3877411  43.5467834  79.9201279
   0.8642610   7.7555532  11.8502588   0.2088895   7.0963979  12.0788069
   0.4385437   8.5919333  12.0385809  28.3595142  51.9805756  69.5753555
  27.7247524  51.9014053  70.2874222  28.7359657  51.1045074  69.4915695
  43.2133141  45.2388229  23.1416454  43.2917442  45.3984642  24.0821743
  42.5473518  45.8604660  22.8479061  76.8352051  69.5537491  16.3027802
  77.2621613  70.2039337  15.7449255  76.9592896  69.8833313  17.1928444
  57.7077980  38.8205376  58.5043488  57.2676773  39.0594521  59.3200989
  57.1950760  39.2514305  57.8204765  71.8047333  13.6336536  55.1040764
  70.8827744  13.8452463  54.9576111  71.8097839  12.6923447  55.2776985
  78.8227692  16.8975315   3.4378169  78.2596130  16.2839165   2.9660490
  78.2389297  17.3254604   4.0641112  34.2138786   1.5968096   0.0856624
  34.1434097   1.3317051   1.0027152  34.4509773   0.7938133  -0.3782486
  15.5972929  52.2281990  11.7282362  15.6016741  52.5184746  10.8161230
  16.1332893  52.8744965  12.1878443   7.5766931  46.6257629  35.4180946
   7.9021783  45.7374191  35.2727203   7.5776210  47.0264397  34.5487938
  69.5815582  39.0680656  77.5491180  69.7550659  38.1301956  77.6298904
  69.3320007  39.1874237  76.6327591  37.6172371  25.4571476   0.7922962
  36.9046211  24.8180790   0.7913374  38.2185364  25.1464024   0.1154613
  50.9631538  36.1234856  32.7834778  51.4329147  36.5961838  33.4705811
  50.1809807  36.6509857  32.6216736  58.8841476  19.4311295  74.3086243
  58.6905785  19.8441315  73.4670792  59.6965179  19.8464890  74.5980377
  69.4310989  43.5798187  12.8754053  69.2073059  42.9215736  12.2174835
  68.7567139  43.4850731  13.5480547  64.7436295  23.4401627  18.7624893
  64.8383331  22.6084747  19.2267704  64.0109100  23.2978573  18.1632347
  50.4518280  43.1388054  34.4411469  50.7522736  42.7964592  33.5992661
  49.8038597  43.8048248  34.2113914   3.0073855   2.6919241  34.7884789
   3.6281564   2.5331402  35.4995766   3.2237151   2.0318964  34.1298447
  79.7985001  17.8941135  29.4804020  80.6506805  17.6826687  29.0992050
  79.7421494  17.3434410  30.2613087  20.7490273  50.9583244  33.6070633
  21.7056522  50.9340439  33.6296616  20.5281448  51.8709335  33.7930412
  47.0579147  55.7288437  57.9983292  47.8244286  55.3690147  58.4446602
  46.8764076  56.5488777  58.4574928  32.6700058  55.6780472  22.5608120
  33.5404129  55.6591797  22.9586353  32.4191322  54.7570457  22.4897366
  74.5066528  10.1980648  33.1320229  74.1703033  10.3101349  32.2428970
  74.7631683  11.0792637  33.4039040  40.2180061  40.4659119  27.0410805
  41.0770149  40.1002846  26.8297615  39.7237473  40.4041443  26.2236919
  66.9378967  29.8150024  22.1258297  67.7270203  29.3133678  21.9211769
  67.2095795  30.4166336  22.8189793  30.1217270  51.2661552  82.9973984
  29.2626457  51.4313698  83.3858795  30.7300797  51.3067474  83.7352982
  79.4749908  66.6072083  88.0447845  80.1622162  66.9387512  87.4668274
  79.0934372  65.8715515  87.5657654  32.1770287  37.6587448  85.6791763
  31.6447182  38.4114532  85.9366837  32.2831421  37.7530479  84.7325668
  38.5587425  64.3795853  42.2708397  38.0249405  63.6901398  41.8759270
  38.9661331  63.9620094  43.0297165  31.4842186  37.3155289   1.6740568
  32.1271667  37.5484123   1.0042711  31.4793663  36.3583527   1.6788753
  81.8005142  40.8276978  42.8548126  82.2834702  41.5783958  43.2004013
  81.2246246  40.5626373  43.5719833  63.3908577  48.1676331   1.7348673
  63.5303383  47.5587082   1.0096173  62.5055733  48.5047874   1.5976412
  23.4062481  12.3220453  56.8506737  23.6439037  13.1212873  57.3207397
  24.2425804  11.9549599  56.5642700  44.4835548  41.0990906  58.5383987
  43.5483093  41.1733932  58.3485832  44.9092216  41.1950531  57.6864395
   8.8084068  21.3376427  28.0953617   9.1410627  21.3378372  28.9928970
   8.1834145  20.6130333  28.0717278  43.4428673   8.1116409  74.4173279
  42.5548706   8.3277550  74.1327515  43.9827461   8.8273087  74.0817947
  29.1893501  46.1746597  81.1158905  29.1535282  45.4603462  81.7520523
  29.4391308  46.9418182  81.6309814  82.6879272   4.8772235  52.9365425
  81.9427338   4.4846082  53.3912697  82.4131317   4.9220181  52.0207291
  22.7917137  66.5407791  28.5233574  23.3282356  65.7799149  28.3009682
  22.0749054  66.1834412  29.0475025  57.3319283  50.7380791  84.6737442
  57.5959930  51.2774696  83.9283829  56.4790535  51.0875244  84.9320526
   5.3890166  54.7470932  65.0093765   4.5518074  54.6930656  64.5485153
   5.6738768  53.8373756  65.0960007   5.1490283  59.2030869  35.8863525
   5.5935559  59.0575218  35.0512276   4.2984700  58.7764778  35.7824936
   0.9554371  18.6646194  37.0205917   1.0866476  18.5727196  36.0768929
   1.3391566  19.5151653  37.2340546  30.8875713  35.7514839  12.6075840
  31.3242149  36.5730019  12.8327074  31.5087929  35.0710945  12.8671703
  58.4613228  25.9593716  23.4937077  58.6035538  26.2853184  24.3823929
  59.0860710  25.2403183  23.3994713   3.6757967  17.2192230  87.8937607
   3.1934812  17.9582653  87.5230560   3.4748974  16.4861050  87.3120346
  68.0589981  15.4604368  83.8117218  68.5775681  15.8640232  83.1157074
  67.5634384  16.1855431  84.1923447  40.6912766  53.4024925  25.2099762
  40.2601662  53.5204659  24.3635387  41.5304146  53.8533783  25.1162777
  69.7597504  68.6306534  58.7120590  70.2977600  68.3929291  57.9568977
  70.0271835  68.0195618  59.3985558  38.0598259  58.9855690  28.5292149
  37.2900887  59.2095604  28.0061798  38.8026466  59.2643738  27.9937534
  57.6316757  11.6082392  17.9691315  57.4652214  10.7487497  18.3561726
  58.0345421  12.1145945  18.6744957  39.7959175  49.2958107  36.1624107
  40.5979996  49.6690102  36.5279541  39.2749367  49.0518456  36.9274521
  22.7613106  70.4275589  61.6818352  23.4849911  69.9615021  61.2631340
  22.1530266  69.7374039  61.9462433   4.4141278  49.7268486  76.9388733
   5.0429072  50.3796234  77.2466965   4.8971224  48.9006996  76.9594498
  24.0364113  50.3044815  73.1449966  24.7886581  50.3847961  73.7314301
  23.3822880  49.8300591  73.6581039  30.1216297  60.3828278  83.4754181
  30.3431168  59.4516182  83.4703598  29.1734562  60.4027977  83.6050262
  37.4643745  65.6164322  26.9339428  36.8472633  66.3414688  27.0325699
  38.1693459  65.9737167  26.3939495  83.5543900  54.7116318  34.3304710
  82.8860321  54.3442459  34.9088898  83.4574127  55.6593018  34.4239807
  63.0001564   8.4104748  87.9389801  62.3941193   8.2828455  87.2091370
  62.4612427   8.2925682  88.7212219  73.0205612  33.5035706   1.0292760
  72.7319336  34.1497841   0.3848082  73.9080353  33.7768288   1.2615530
  23.2356606  47.0082092  75.9963608  23.0608501  46.4776764  75.2190475
  22.7236938  46.5925407  76.6901474  45.6834488  57.7395744  61.5333366
  45.1098061  58.4765587  61.7431488  45.5003014  57.0921211  62.2141418
  57.5661049  43.3973808   5.0621643  56.6156693  43.4118080   4.9494901
  57.8654556  42.6972351   4.4821506  56.9812546  67.6900482   0.8459533
  57.7910347  67.1798935   0.8307304  57.2727547  68.6010971   0.8813186
   1.1507925  69.7538605  61.1767387   1.7505714  70.3833542  60.7764435
   1.3346649  69.8107224  62.1143875  17.6562786  37.9249306  59.6270714
  18.5965595  37.7867508  59.7411346  17.5873051  38.8004532  59.2463646
  51.4082565  36.7421646  62.8483620  51.6865883  36.0519028  63.4502716
  52.1535568  37.3415871  62.8102455  38.2419395  14.5073032  16.1675129
  37.6801376  14.1293097  15.4909534  38.6119576  13.7504721  16.6219635
  82.7105484  71.5991898  11.7940531  81.7981033  71.8883514  11.8023701
  82.8104324  71.1455917  10.9570942  72.4985809  52.7308121  17.7079773
  71.8593063  52.8187599  18.4149590  72.6850510  53.6307259  17.4403667
   3.9883163  41.1290703  20.2085361   3.2093632  40.9115715  19.6965218
   3.9219487  42.0724258  20.3565426  78.7558441  27.3215218  16.5983276
  79.0742493  27.4112701  15.7001104  79.3768005  27.8257504  17.1240673
  50.4578896  51.9021339  86.6889191  50.8226624  52.7229691  86.3581543
  51.1748161  51.5027771  87.1816330   3.2806523  15.9198599  85.6458969
   2.3703444  15.8696947  85.3542557   3.7928302  15.6734438  84.8757095
  13.7875309  36.9797897  73.3636932  13.7076244  36.0300369  73.2752991
  14.5113001  37.2143440  72.7828522   5.2114511  70.2169724  47.4189491
   5.3645201  69.6464996  46.6657143   4.3205395  70.5441132  47.2945061
  18.2806149  50.7336731  67.3391647  18.9018669  50.2487030  67.8823776
  17.4259300  50.5462608  67.7272644  37.9658546   2.5422056   7.3345914
  38.7245216   2.3793986   7.8950830  37.3406906   2.9925375   7.9025712
   1.4461807  62.3771439  39.9645042   2.0222375  62.5891876  40.6989594
   1.8656930  61.6292152  39.5392494  28.2630386  24.9538403  59.4536247
  28.1937542  24.1185265  58.9913673  27.9718895  25.6054420  58.8157539
  18.2832470  52.1952248  88.5699158  18.4730091  51.4315338  88.0249405
  17.7222347  51.8577232  89.2681961  53.5105362  59.2334976  76.4546127
  54.1205444  58.7176094  76.9818573  52.8050461  59.4621696  77.0597763
  82.6027374  13.1322546  38.1493912  83.4554062  12.9801044  38.5568733
  82.3175812  12.2656002  37.8598557  75.2273254  53.3579865  83.9743729
  75.1000519  53.3272247  84.9225693  74.6319351  54.0450783  83.6749649
  47.9026184  14.5855656  85.4238892  47.8578606  13.6294508  85.4152374
  47.2113419  14.8631477  84.8227921  38.5487137  64.1378479  46.7730446
  37.8028488  63.5443459  46.8606224  39.2592812  63.5835457  46.4504433
  57.1361580   7.1936393  36.1391487  57.3825531   8.0846043  36.3875504
  57.6982117   6.6320615  36.6729622  83.0277252  28.0919456  85.5161133
  83.5048828  27.2670002  85.6056747  83.4606476  28.5414715  84.7903519
  29.8801155  37.3634338  82.8390045  30.7604523  37.7090034  82.9867249
  29.8336887  36.5825043  83.3905792  53.6676178  15.9911156  63.2555084
  54.5928459  15.7506437  63.2069740  53.2454414  15.4557552  62.5836563
  66.8380814   8.8592815  39.2284889  67.3047562   9.3599501  39.8976517
  66.2754440   8.2639380  39.7237015  51.2965546  65.1210022  35.8284187
  51.6045074  64.4604645  35.2078667  51.0097847  65.8505096  35.2790375
  18.1184025  39.5229683  86.1385422  18.6964321  39.5753975  85.3773804
  17.6374054  40.3505096  86.1314774  64.6431503  68.0722122  47.1712990
  64.3912201  68.4914551  46.3484993  65.2832184  68.6695099  47.5582962
  68.2325211   8.1895800  47.3298492  69.1132736   7.9013124  47.5694237
  68.2871857   9.1451836  47.3217392  75.5357208  33.1356049  17.5566311
  75.9174118  32.2615128  17.6372604  76.2821198  33.7304916  17.6289291
  54.4521255  29.9562187  38.9272194  55.1468468  30.3576126  38.4052238
  54.7635078  29.0671864  39.0972023  28.1616516  45.0881081  34.7815323
  27.3486214  44.8027496  34.3646545  28.4919853  45.7827110  34.2117653
  70.7182312  50.4857101  83.8281250  71.2057190  51.3090019  83.8560257
  71.2088318  49.8973007  84.4019852  11.2014818  26.8584366  70.4416046
  10.8242998  27.6297417  70.0184555  12.1417446  26.9310951  70.2777176
  41.4895287  68.1608353  73.3468704  42.3741493  68.5160751  73.2603531
  40.9142113  68.9065018  73.1759415   5.6530519  70.9028244  84.4574051
   5.1098485  70.4456177  85.0993729   5.0541620  71.1075058  83.7393112
  64.7961655  13.1870861   1.5443124  64.2167740  12.7263508   0.9374698
  64.7422791  12.6830254   2.3562546  22.1098385  56.9103050  15.5043392
  21.5517979  56.3829727  14.9327230  22.5489597  56.2715759  16.0659676
   4.8567190   3.0780752   0.7407590   5.2731586   2.4630957   1.3445885
   5.5533481   3.6904976   0.5043722  34.4977531  53.6638374  59.7740707
  35.2415504  53.8050880  60.3597755  33.8312531  53.2564583  60.3272934
  55.4461250  13.3075562   7.3854241  55.6783943  13.8927364   8.1064272
  56.0114441  13.5813227   6.6631370  67.7938385   0.3952928  37.8822098
  67.2097702  -0.2321138  37.4562263  67.6899414   0.2221506  38.8178673
  33.7588387   0.7292950  39.4758186  33.1214981   1.4114350  39.2643623
  34.3026505   1.1143299  40.1630211  81.5939026  54.5532227  55.6058311
  82.0142441  53.7733612  55.9682617  81.0466232  54.2214279  54.8940468
  23.4845619  51.5158615  65.6139603  24.1216946  51.5338402  66.3280792
  24.0092716  51.3600273  64.8287048   8.6348686  15.0407963  55.5587463
   9.1920414  15.0754089  54.7811890   8.0153208  15.7609997  55.4417038
  84.7590179  69.9496002  48.6322479  84.8115082  70.5635986  49.3646965
  84.1743622  70.3747025  48.0047913  44.5728912  21.5957985  80.1743164
  43.8888664  21.0778599  79.7499619  44.4968109  22.4637184  79.7778854
   3.4906425  36.7686539  78.0013123   3.2178404  37.3639908  77.3031845
   2.8282540  36.0776634  77.9992905  20.9342194  21.9802227  15.7740269
  21.3381481  21.1170063  15.8630686  20.9911518  22.1759815  14.8387890
  55.3923454  26.6649780  68.7005081  54.5720787  26.8020191  69.1744461
  55.7634010  27.5421848  68.6053391  75.2362061  49.1743011  80.6129761
  74.6951752  49.8451576  81.0294647  75.9913025  49.6534309  80.2716599
  72.8149338   2.3747091  15.1599894  72.7700806   1.5422655  15.6303692
  71.9175186   2.7073278  15.1756668  26.2409439  39.5029106  21.6775589
  26.2245045  40.3326492  22.1545238  26.8662796  38.9618530  22.1596832
  41.0602264  36.6205978  62.1292763  41.9831352  36.7964554  61.9461174
  40.7604446  36.1081772  61.3784218  81.9180145  28.2786255  30.2079430
  82.0341339  29.2285309  30.2285881  81.3315735  28.1250648  29.4671707
  69.2618484  34.0675163  85.7892838  69.8976059  34.7028694  85.4600830
  69.5514832  33.2297211  85.4281082  84.0342102  12.2569227  68.7746429
  84.5025787  11.5574598  68.3189926  83.4464493  12.6219950  68.1132126
  82.6657944  20.6726627  56.1003571  82.0069733  20.6660290  55.4059944
  82.8993149  19.7518387  56.2177582  37.8034210  62.6064453  31.3363380
  36.8985481  62.8464584  31.1367664  37.7321701  61.9852600  32.0611000
  57.7518806  28.1020889   5.5139384  57.4963799  28.0310230   6.4336672
  58.3478394  27.3663521   5.3733783   3.2992685   9.9180307  37.1169777
   3.9072139  10.2157516  37.7937317   3.1598229  10.6874962  36.5649719
   4.6182466  27.2118015  74.3151855   4.7422228  26.3385086  74.6869659
   5.2285705  27.7673779  74.8000259   5.0706582  42.0113106  70.4751892
   4.4339266  41.3079033  70.6017761   5.8958998  41.6480484  70.7965088
  55.8193855   0.3944431  25.0013752  56.1912994   0.1422697  25.8465500
  55.3206215  -0.3728077  24.7206707  25.4588509  21.6023426  80.7203064
  24.7030716  22.0694866  80.3642120  25.3346729  21.6337662  81.6688995
  76.3760223   6.7656956  82.4511719  77.0590973   7.0616245  83.0528946
  76.5250244   7.2714667  81.6522827   2.5880520   9.0077238  82.6896515
   2.1263607   8.8174324  81.8730316   2.0325863   8.6311293  83.3721924
  48.5669098  32.8248520  27.2203579  48.6982765  32.3036423  26.4283237
  48.1078033  33.6084557  26.9180088  32.7145004  59.5329170  26.9055748
  33.4488411  58.9807243  27.1740246  32.0918427  58.9256973  26.5058022
  68.3043900  38.4304199   1.2771859  67.8822403  38.5528946   0.4268800
  68.0548401  39.2043343   1.7821729  84.5422668  18.7956200  50.2250481
  84.2786560  19.1054153  51.0915184  85.4437714  18.4958496  50.3418999
   9.6738520  62.6790352  66.1956863   9.2583876  63.5130043  66.4150391
   9.7469683  62.2204056  67.0326691   6.2188277  70.3206863  73.9077530
   5.4942822  70.0805206  74.4853210   6.9968824  69.9695740  74.3408585
  37.1530495  11.8996391   8.5402107  36.5252037  11.3314323   8.9865112
  36.8788948  12.7872486   8.7709074   7.1836739  42.9649010  77.8351974
   7.4710340  42.0625839  77.6956100   6.2639604  42.9671135  77.5699539
   4.6780486  51.2844887  19.4401798   4.7590265  51.8550911  20.2044353
   5.4044290  50.6668243  19.5243912  27.8549461  48.5517426   9.5675144
  27.4596500  48.8207970   8.7383099  28.3829327  49.3035698   9.8362455
  49.4541321  38.6845512  74.4662552  48.7364807  38.2275162  74.0277023
  50.1448364  38.0264969  74.5445328  14.5923061  68.1939163  29.9810047
  15.2714586  68.0969467  30.6485233  14.5191488  67.3251953  29.5857811
  21.8392010  36.8299675  15.3415880  21.9786644  36.8881836  14.3963928
  22.6213989  37.2276154  15.7240467  26.9619846  30.1202850  17.7804356
  27.1286945  29.1821976  17.6886063  26.9017010  30.4420147  16.8809414
   5.3197250  30.4585934  86.3805161   5.2905798  31.3645611  86.0729370
   5.6717954  29.9653187  85.6396027  41.8505516  50.8886185  26.0146809
  41.6282463  51.8144302  26.1130905  41.0829353  50.4215889  26.3446503
  59.6424179   8.2627974  56.9430199  59.1113930   8.9521122  57.3418770
  59.8105927   7.6470304  57.6563072   2.3837633  50.1721535  57.9517555
   2.8411744  49.4075317  58.3015594   1.9119533  50.5331116  58.7023125
  63.1024399   2.1239419   8.9465933  62.7169113   2.2045925   8.0741863
  62.4920006   2.5851915   9.5217857  41.6338882  38.3942566   4.8329954
  42.4657860  38.8285484   4.6443915  41.6610107  37.5895844   4.3153057
  67.5624161  68.6417084  84.1465607  68.2738037  68.7559128  83.5163879
  67.6770859  69.3590851  84.7698212  15.9075527  53.8385315  25.1603813
  16.4992905  53.5752106  24.4555836  15.4725132  53.0274963  25.4234276
   9.3728113  11.7635670   9.9031048   8.7586231  11.7203999   9.1702051
  10.1776943  12.1132059   9.5208120  28.8883724  55.3161888  31.5440025
  29.0558605  56.2286339  31.3081665  29.1670589  54.8155861  30.7772141
  45.8221359  51.2299805  70.7754288  46.7706413  51.3582497  70.7645264
  45.6690483  50.5215454  70.1501999  50.8499374  31.2893600   6.8219981
  50.7314453  31.7250614   7.6660089  50.7014427  30.3622456   7.0081215
  29.2324753  21.0002003  80.2138519  29.8028259  21.7687149  80.1960220
  29.1405926  20.7916451  81.1435242  36.0441513  52.8036461  44.0585670
  36.1098900  52.8267059  45.0132294  35.3216019  53.3971443  43.8538361
  17.8147964  37.3099899  48.7327766  18.6721592  37.6519127  48.4793015
  17.5950966  36.6809349  48.0455704  66.0375824  33.0355911  22.0842686
  66.1074905  33.5681648  21.2919865  65.1000824  33.0136948  22.2761993
  62.0899925  38.4157906  20.9860401  62.2007408  38.8602104  20.1455307
  62.2680626  37.4948387  20.7953148  49.5932961  34.9349899  88.5429077
  50.4695816  35.2690964  88.3512650  49.5284691  34.9663124  89.4973907
  62.0306931  66.7593384  85.5553207  61.1548729  67.1430740  85.5991287
  62.4648628  67.2337646  84.8463440  55.0368195  67.5936966  33.7212372
  55.2127800  68.5122147  33.9251785  54.4694023  67.6238327  32.9509392
  76.8289337  14.3671694  62.5599403  76.5158615  15.1197147  62.0580521
  77.5161591  13.9845963  62.0144196  41.9425278  51.4607353  44.6775436
  41.6179161  51.7525253  45.5294380  42.4309540  50.6600494  44.8687859
  85.2375259  19.2154503  83.3259430  85.5320587  19.4729595  84.1995392
  84.6011963  18.5179977  83.4836349   9.4664230  22.8461018  23.6585388
   8.7123184  22.3150139  23.4026012  10.2201862  22.3846455  23.2909355
  12.2996855   0.6238302  62.9079056  11.5422735   0.8710069  63.4384346
  12.0451803  -0.2026079  62.4974670   5.1440277  65.6690750  37.6268768
   5.5247951  65.2656784  36.8468018   4.6829600  64.9540405  38.0654793
  60.7023315  37.8120689  38.8964806  59.9290619  38.2316818  38.5193748
  60.7677956  36.9743462  38.4380417  37.5603676   8.2501106   4.3635960
  38.2683220   7.9377713   4.9270453  37.4589958   7.5640926   3.7037971
   2.5680933  69.7507935  49.7656174   2.1872990  70.2653809  49.0539818
   2.7457159  68.8955002  49.3742638  55.6815567  28.5092926  13.6674156
  56.2905197  29.1934338  13.9455309  55.3040123  28.1788616  14.4825878
  59.5705948  29.6872272   8.1515455  60.2078133  29.0836468   7.7696066
  58.8571129  29.1240158   8.4514952  62.9841537   0.7046157  21.5983868
  63.2477531   0.2701428  22.4095478  63.6364059   1.3938704  21.4729729
  23.1561794  10.8921423  61.9512062  22.3184986  10.4304533  61.9881706
  23.3538570  10.9552374  61.0167694  74.9923401  55.8793678  88.5660172
  74.9666443  56.1547432  89.4823914  75.9237061  55.7674141  88.3755951
  31.5606022  67.2124710  68.1019745  32.3699265  67.1492157  68.6091461
  31.4358215  66.3353195  67.7396622   0.5164372  42.4115410  24.8852234
   1.4348434  42.4280472  24.6159840   0.5452965  42.2258835  25.8238010
  81.7598495  38.5734749  12.4678555  81.8443451  37.7801971  11.9388914
  81.6863785  39.2814293  11.8278284  75.6833954  66.2350922  29.7238808
  75.6941376  66.9062958  29.0415344  76.2755356  66.5690765  30.3977203
   3.4960637  43.7075005  31.2658939   2.9876552  42.9627914  31.5870838
   3.6322408  44.2556839  32.0386696  19.7928371  11.2883730  77.0028381
  19.5633602  10.5134859  77.5157928  19.5802784  12.0258389  77.5748520
  14.3906136  14.8737326  26.3325844  13.5126410  14.6399078  26.0313835
  14.5542421  15.7349567  25.9482002  52.5900383  26.5814190  85.9827194
  52.2697105  25.6919651  85.8327408  53.4085464  26.6277103  85.4886169
  84.2313156  45.1722336  15.7853985  83.9709015  44.6652069  16.5543842
  83.6545181  44.8619576  15.0873547  67.2892380  54.3408318   5.4444256
  66.4819565  54.3480911   4.9301586  67.8346863  53.6756516   5.0246029
  49.2245598   9.1501551  45.1798859  50.0438499   8.8285332  45.5561295
  49.2257042   8.8164024  44.2827568  31.3614693  15.7799330   2.6933892
  31.2145767  14.8391094   2.7908807  32.2851791  15.9021120   2.9126353
  81.5312805   9.4067516  34.3927193  81.4738693   9.4594469  33.4386978
  82.1813202  10.0679388  34.6304321  35.0330238   0.2092191  10.2137098
  34.5031166   0.8923886  10.6244507  34.6643600   0.1158001   9.3353062
  26.9050903  32.8962288  63.6517334  26.0012646  32.5818710  63.6292038
  26.9580841  33.5247574  62.9317513  24.0760593  22.9154854   0.5594054
  23.6585121  22.1733875   0.1221646  23.3696041  23.3301601   1.0545781
  19.4838409  34.3264961   3.2813971  18.9007702  33.6748199   2.8920684
  18.9163532  34.8456116   3.8512273  66.9917603  34.5787468  24.9646873
  66.1570740  34.7767143  25.3893490  67.4740448  34.0647926  25.6123657
  34.8520355  68.3194351   8.1706553  35.5050430  68.6256866   8.7999573
  34.1848831  69.0057983   8.1646042  72.3651657  48.3711052   7.8412476
  73.0845718  47.8730621   7.4531302  72.1970215  47.9368477   8.6775370
  57.9699974  48.1916466  70.5686340  58.2570648  47.2928772  70.7299805
  57.8055992  48.2250443  69.6262512  58.3781090   5.5801473  40.3819389
  58.2416267   4.6964073  40.0404625  59.2523041   5.5542378  40.7709694
  71.3407974  23.1555710  26.0654354  70.4964447  23.0887451  26.5113487
  71.9514999  23.4312878  26.7489967  60.3446350  35.5553589  15.7696705
  59.7295380  34.8220711  15.7830706  60.5096817  35.7125702  14.8400068
   0.5177635   9.7334566  25.0889225   1.0064396  10.4458799  24.6767578
   0.1377726   9.2484865  24.3563633  66.5384064  44.1420555  29.8947659
  66.7079849  43.2445984  30.1812019  66.3425903  44.6180840  30.7017899
   8.5987453   6.1163688  22.5789413   8.1603251   6.2274208  21.7353268
   9.0926542   6.9271994  22.7007580  13.5953169  49.9663544  81.8318634
  14.2338285  50.6294060  81.5693741  13.9994650  49.1341553  81.5862198
  80.2604065  69.9219971   6.4473500  80.3238449  68.9766235   6.5832453
  79.5889511  70.2084503   7.0664835  82.7532425  43.7604790  64.0276642
  83.0829315  42.8623390  64.0573883  83.2540359  44.1763496  63.3258858
   5.4014630  38.5190315  72.5498962   5.0719376  37.6618195  72.8197708
   4.6442542  38.9542274  72.1581421  71.5695648  28.0478210  55.1387177
  70.8253250  28.2716160  55.6975136  71.9788361  28.8891697  54.9365730
  44.2855034  54.7150192  80.9904785  44.3284492  54.4797325  80.0636368
  44.0933304  55.6527290  80.9908829  55.0222130  26.8329182   0.8126107
  54.3565941  26.1539898   0.7019829  54.9948425  27.3305912  -0.0045827
  80.2289810   9.2549448  63.5349350  81.1630630   9.2302494  63.3273010
  80.0094910  10.1866217  63.5408516   8.7457266   6.4483590  71.2317047
   9.1898146   7.1094246  70.7006607   8.8901463   5.6270456  70.7617874
  64.8459396  39.7757149  33.9939117  64.4080353  40.6185341  34.1127739
  65.0554733  39.4872856  34.8822441  43.5099792  47.5687599  79.8386002
  44.2853584  47.8134575  79.3334808  42.8488922  48.2151299  79.5907974
  66.4509430  57.7258873  56.7362785  66.1111221  58.2729912  56.0281563
  67.0249557  58.3079147  57.2342529  17.1897659  36.6932030  20.5617886
  16.5618553  36.7251968  19.8400307  17.2940445  37.6063614  20.8291874
  82.8804855  56.0930824   1.8405474  83.0006104  55.1566086   1.9981067
  82.3279114  56.1357117   1.0601155  28.2077389   3.9401777  59.7109184
  29.1514206   3.9370072  59.5506439  28.0620022   4.7046924  60.2681541
  36.5505409  40.1388626  65.9083939  37.3392906  40.4326363  65.4525375
  36.6734695  39.1957359  66.0162201  47.9044533  29.4164906   6.0859380
  47.7517586  30.1526585   5.4935093  47.5439072  28.6591549   5.6247654
  18.1663837  48.6753120  79.0653229  18.3948765  48.5940590  79.9912949
  18.8927345  49.1666527  78.6816101  53.8595810  18.5398445  32.3082085
  53.5277290  18.3082523  33.1756592  53.2746773  19.2345085  32.0056190
   1.2524996  37.3288574  59.2750435   2.1920707  37.4634209  59.3988609
   0.8441554  38.0795441  59.7062683  19.3481655   2.1275792  54.5109558
  19.0817184   1.9737840  53.6045418  19.4885540   3.0730405  54.5621986
  84.0623245   1.4710357  52.2695045  84.9741821   1.6435995  52.5039444
  83.9765854   0.5193341  52.3255844   7.8467312  66.6275330  34.0396576
   8.5449352  65.9791412  33.9483719   7.0586643  66.1747894  33.7393150
  23.4861984  27.8810883   6.8847013  22.9651203  28.2424335   6.1676669
  22.9953175  28.1067104   7.6748672  45.4849396  21.3715763  69.6912079
  45.5604858  21.5095329  70.6353989  45.9234734  22.1285343  69.3027115
   4.5403528  24.5836525  75.7204514   4.5956378  24.2804356  76.6266708
   3.8384717  24.0593357  75.3348541  59.7996521  42.5234795  14.4630127
  59.5971069  42.9922638  13.6534157  60.0622826  43.2089157  15.0773735
  30.0286484  58.3029480  48.9303780  30.2055016  58.4464111  48.0006599
  30.1955853  59.1519432  49.3397331  48.4022522  17.8417358  78.2465439
  48.7011833  16.9480877  78.0784225  49.0735550  18.3973484  77.8504639
  60.6379814  14.7551222  53.4665489  60.9612007  14.0392609  52.9194641
  61.4133339  15.0707264  53.9307213  17.5656338  68.4330978  57.1262665
  17.1937981  68.9769821  57.8206444  18.1253338  69.0293350  56.6288033
  62.6571617  14.2847662  88.6487350  62.2719307  14.7896442  89.3649216
  61.9162292  14.0682411  88.0827179  55.6439705  50.8311691  39.3843079
  55.5715561  49.9482117  39.7467651  54.9574547  51.3292503  39.8279762
  35.1155891  64.8852310  10.0613880  35.8911057  64.9934311   9.5108423
  34.4700928  65.4842758   9.6862774   9.9632807  47.4997673  55.8339882
   9.4321404  48.2753067  55.6532631  10.3733873  47.6820450  56.6794586
  41.4104004  42.9509659  55.8243446  40.6705818  42.4383049  55.4986458
  41.6236610  42.5539169  56.6688004  75.8493271  12.3831511  52.9959946
  76.4692917  11.7769213  53.4013977  75.6064301  12.9839954  53.7004204
   1.1412196  70.1669464  69.8834534   0.2005949  69.9935913  69.8459702
   1.2070764  71.0576553  70.2277298  53.6643906   2.4758351  24.2478638
  53.5240059   2.1375895  23.3634911  54.0870743   1.7555028  24.7155094
  71.1651154   2.0548084  62.1787453  70.5701370   1.6672019  61.5368729
  71.6996765   1.3214909  62.4832382   4.2245874  55.0275764  10.3091431
   3.6301012  54.4408798   9.8415909   3.8651071  55.0767021  11.1949148
  67.9472198  19.8797264  26.5268669  68.8595428  20.1548729  26.6173382
  67.7112885  20.1231365  25.6317005  39.5669746  45.0056992  75.9523315
  39.0468102  45.7628975  75.6834183  39.8283234  45.2019691  76.8519974
  41.8862190  34.8659744  18.0376472  42.0825539  34.0224953  18.4453621
  41.2399902  35.2679710  18.6181793  58.4137115  57.0699577  43.1511459
  57.8124733  57.8060722  43.2646370  58.6864319  56.8441544  44.0404549
  68.1776352  38.0175056  41.3044281  67.2210236  38.0410995  41.2805214
  68.4487534  38.5048523  40.5264664   6.5566397  45.3083649  54.5595779
   6.8048868  45.2539291  53.6367340   6.0580287  44.5074120  54.7211189
  20.6469936   0.4015597  64.8836517  21.5971317   0.4838077  64.8017807
  20.5153408  -0.4499150  65.3006516  46.1244545   1.5108463  47.4389381
  45.8923378   0.8813217  46.7562599  46.9252281   1.9264975  47.1192055
  40.7020988  68.3048477   0.7782568  40.4041176  67.9733963   1.6253564
  40.3709831  69.2022324   0.7422660  29.4010658  30.1522789  19.8878727
  29.4521179  29.7735481  19.0102692  30.1573811  30.7365761  19.9409504
  78.9267349  46.9710121  87.2259521  78.9569168  46.3623810  87.9641190
  78.9369736  47.8385696  87.6302719  60.8689880  34.2137260  19.3981400
  59.9280281  34.3047295  19.2480030  61.0875549  33.3554420  19.0350838
  52.6875420   2.9923491  66.0986633  52.7644844   2.8601553  67.0435638
  53.4133224   2.4911437  65.7268219  48.3850594  46.3992844  85.5178833
  47.5472412  46.6796265  85.1495056  48.7823677  45.8651123  84.8301010
  21.0181007  21.6678524  82.2619858  21.2068481  21.4562263  81.3477554
  20.3957920  22.3937130  82.2162552  61.0600357   0.3701341  47.0568199
  61.7307663   0.5473267  46.3973083  60.6601257   1.2230037  47.2268753
   6.1214042  11.6323328  14.7241430   5.9747467  12.5265522  14.4157677
   5.8274264  11.6418619  15.6350317  14.3458576  50.2847214  18.4148350
  15.1582088  50.1752853  18.9091434  14.0217876  49.3932762  18.2862549
  86.4147644  54.0007401  78.3175125  86.4179306  53.6533546  79.2094421
  86.3853760  53.2244759  77.7582397  14.6571074  41.2004547  16.1614685
  15.5788908  41.4504585  16.0978718  14.3008671  41.3753319  15.2904091
  82.5713577  70.6766434  21.4588737  81.8371277  70.3124771  20.9643860
  82.4691925  70.3161545  22.3396912  30.0819569  57.4414406  75.1624985
  30.0950832  58.0432396  74.4182587  30.9837799  57.1285248  75.2334290
   1.1018808   6.0677710  78.6768341   0.9191740   5.2088718  78.2958603
   1.3369268   5.8814950  79.5858383   6.0101943  68.4410095  55.6173859
   6.5185475  69.2378922  55.7683716   6.6076431  67.7288971  55.8458214
  48.7224808   1.2031113  59.1637383  48.9585266   2.1296370  59.1183052
  48.4596710   1.0672646  60.0740738  10.5559978  51.8063545  54.2971497
  10.4044209  51.1134720  53.6543694  11.1638823  52.4058075  53.8642883
   5.2119765  16.6543159  16.2970619   6.1053572  16.6644211  16.6405735
   4.6640944  16.8832836  17.0478153   9.9873543  22.8661270   7.6950831
  10.2980661  23.0618858   8.5790339   9.8605633  21.9173737   7.6904011
  46.9081650  12.1096544  57.4833488  46.6833229  11.7173071  56.6397018
  47.6221466  12.7149963  57.2832947  27.7986774   5.9189553  66.7059784
  26.9378815   5.5197096  66.8319397  27.6793594   6.8324375  66.9658813
  54.8402596  34.9875908  62.8214531  55.1831207  35.3181877  61.9911613
  54.0949402  34.4411392  62.5722198  29.5169373  68.4635162  27.8217220
  30.0653934  67.6821060  27.8912296  29.0300674  68.4884567  28.6454735
  74.9487762  48.4651604  20.9208241  74.5176010  49.2780304  21.1845856
  74.7656631  48.3898735  19.9843235  50.8860130  35.9086380  60.3458099
  51.0983543  36.0818291  61.2629509  50.6926193  34.9716034  60.3175621
  14.2496767  39.0467873  79.6772385  13.5659094  38.6787109  80.2368927
  15.0367823  39.0354881  80.2218170  54.6390610  29.2713432  84.9060059
  54.2119446  29.6939030  84.1608582  55.1840668  28.5888863  84.5142746
  31.2345333  23.4199886   7.4170513  31.9364071  23.5277061   8.0589266
  31.5284653  22.6997108   6.8593464  64.3419495  35.6177559  44.0652771
  63.7857132  36.2953606  43.6809807  65.0086136  35.4490509  43.3994408
  72.1633453  67.4882584  18.3656864  72.1271820  68.1784821  19.0278873
  72.2391281  67.9572906  17.5347271   4.3897657  44.8265953  79.3323898
   4.9401078  44.1990776  79.8009720   3.8270710  44.2851105  78.7788544
  55.2551003   9.4194536   4.8369584  55.0575142   9.3640394   3.9020140
  56.1297684   9.0395603   4.9198399  26.1569977  67.9686432  24.4186382
  26.5379028  68.7997894  24.1351891  26.8231030  67.5811768  24.9864464
   5.8647156  35.8957977  53.6560745   6.4451618  35.7692757  54.4066124
   6.4561391  35.9969902  52.9102821  16.8984280   6.3475280  15.8021555
  17.5574379   6.7097511  16.3943825  16.2251320   5.9915648  16.3819790
  82.9054642  24.1538525  19.7082272  82.1927872  23.6126842  19.3684406
  83.0561066  23.8231068  20.5937481  71.6590881  43.9256592  14.6930180
  70.8630981  43.8631859  14.1650686  72.3561935  43.6205864  14.1123304
  39.0141296  58.7414932   5.7981319  39.9114761  58.4396133   5.6571822
  38.5505257  58.4968033   4.9972386  68.1865997   2.8983979  37.0067596
  67.4705811   3.3839064  37.4164314  68.1851730   2.0500345  37.4500542
  59.1589737  29.8082409  39.7502708  59.3371849  28.8881359  39.5556412
  58.7270584  30.1402397  38.9632149  58.0313911  34.4381905  61.5276108
  57.9236908  33.8693504  62.2898788  57.6404076  33.9469872  60.8050537
  83.2867432  18.9181271  80.6949158  84.0954666  18.7398148  81.1749268
  82.7208862  18.1720753  80.8935089  47.6673584  27.9793034  22.4121666
  46.8136749  28.3960629  22.5295048  47.5555000  27.4155903  21.6466942
  16.6654987  44.4071922  27.9433136  17.4582977  44.9270935  27.8113823
  16.6806946  44.1789131  28.8727684  82.4501419  26.7573757  39.8613396
  82.5277863  26.1181545  40.5695763  82.8836136  26.3424187  39.1155930
  58.9048653   2.1177356  21.2057838  58.2615509   1.5529133  20.7775822
  58.4561501   2.4430604  21.9862003  71.6864243  69.3820801  20.2108498
  70.8617401  69.2030182  20.6625843  72.1467209  69.9933319  20.7859459
  23.0157166  30.2624187  11.7153988  23.7166290  30.9086952  11.8007250
  22.2092876  30.7712116  11.7992516  48.2778740  71.5771408  27.8110046
  47.8957367  71.9969406  28.5817013  48.8648148  70.9104385  28.1677074
  66.7638245  17.7767181  83.8518372  66.0060730  18.3433666  83.7071152
  67.4728317  18.1956425  83.3639450  24.1779766   7.3081880   6.2013755
  24.3830509   6.7197251   6.9279346  23.9547768   6.7246394   5.4761972
  51.1296120  19.3574905   9.3429337  51.7929039  19.1922836  10.0129948
  51.0323982  20.3096752   9.3317833  53.8774567  14.1108036   3.6039865
  53.1632538  13.4783640   3.5254707  54.6568832  13.5748949   3.7507052
  48.2124405   6.6816387  87.2957993  47.7040367   6.5196939  86.5011063
  49.1203194   6.7221575  86.9952164  55.9953308   7.3139081  56.4114151
  55.3280106   7.8460608  56.8446884  56.7977867   7.8307304  56.4834404
  19.9065380  50.6031761  42.4201584  20.7407970  50.6325760  42.8885345
  19.5650616  49.7260132  42.5939636  42.4571953  46.9310417  28.4439754
  42.7654114  47.5452003  29.1103420  43.2365456  46.4320259  28.1993713
  63.5671082  14.0486202   9.3974514  63.3216515  14.6290789  10.1179028
  62.9048615  14.2082396   8.7250051  13.9687958   9.3652315  60.3559303
  14.7262135   9.6697979  60.8557205  13.3039789   9.1781998  61.0187035
  30.7227173  36.1517944   4.7855983  31.3909588  36.7647247   4.4789934
  30.0002384  36.2556686   4.1663518  56.8456841  29.2848034  63.6347198
  56.6979790  28.4943733  63.1154556  56.2319069  29.2095509  64.3653641
  72.8355026  68.2560577  60.5612106  73.2641830  67.6515045  59.9554214
  72.1861038  67.7194138  61.0156670  16.3707428  38.6397629  67.1067505
  17.2808189  38.3431549  67.1025238  15.8628950  37.8517303  67.2999573
  64.2284470  23.7225933  50.7829628  64.9039688  24.3910561  50.6686821
  64.2994766  23.1742668  50.0016022  26.2414665   9.9290943   8.1837015
  26.3851261  10.7947712   8.5660582  25.5651474   9.5336037   8.7336206
  21.1320534  14.5535936  16.2588062  20.8159809  13.7527084  16.6770325
  21.0809975  14.3701382  15.3207397  68.7063065  57.1286697   9.8107262
  68.6814880  58.0844040   9.7638931  68.1354752  56.8390961   9.0990162
  33.4737930  51.2061844  39.2447395  33.8528023  50.4287682  39.6548767
  33.2117500  51.7609444  39.9794540  64.5428162   1.6582731   4.1190381
  64.7072220   1.7299182   3.1787891  64.1074753   2.4790633   4.3492880
  82.6797180  65.5451736  87.0719833  83.2766418  65.0788727  86.4867630
  81.8063660  65.3282089  86.7457886  55.4902496  37.7013741  39.4911232
  55.1750374  38.5887527  39.6626892  54.7198486  37.1461372  39.6112366
  50.1155090  23.5629940   4.2372417  49.5932465  24.1832466   4.7459264
  49.8529282  22.7030430   4.5655212  16.7641277  16.7061214  22.5093765
  17.4671497  16.2947388  22.0066299  17.0597019  16.6575050  23.4184990
  57.8448219  44.9527245  38.9240685  57.3874130  44.7723541  39.7453346
  58.7231293  44.5956650  39.0556717   0.9067204   5.3475404   0.6315798
   0.2506585   5.9097590   1.0435562   1.0545661   5.7420864  -0.2279009
  35.0273399  53.5170097  81.8325195  34.6095810  52.9504204  82.4811249
  34.3445435  54.1398544  81.5833588  65.0302353  65.0990753  81.6105499
  65.7979126  65.5902863  81.3179321  65.2531052  64.8114471  82.4958878
  17.7973118  35.9522324   4.8064332  18.0203896  36.7841530   5.2240114
  18.0489197  35.2874146   5.4474816  77.9344330  32.7685738  62.0259628
  77.7117767  33.4849625  61.4314537  77.4550781  32.9670944  62.8303490
  10.5558033  30.6450520  64.8525238  11.3370438  30.6724586  64.3001251
  10.2321587  31.5458736  64.8545227  73.4806595   7.8957839  46.1330643
  74.1847992   8.3567801  46.5890312  73.6479187   6.9697323  46.3082352
  61.8522644   7.2146106  85.7092285  61.9925499   6.2915068  85.9200134
  60.9877968   7.4137006  86.0687943   9.6193008  35.3687782  66.3175430
   9.4529514  35.6799889  67.2073212   9.1380558  35.9774284  65.7570267
  72.7745056  15.1342640  67.5557632  72.7198029  15.5658493  66.7031326
  72.4146652  14.2601376  67.4052658   3.4506650  57.5105209  45.9339447
   4.3484435  57.2325897  45.7523422   2.9430978  56.6989899  45.9291458
  34.4028511  58.1903801  29.3359623  34.9658699  57.8233032  30.0174999
  33.6073570  57.6591339  29.3706036  70.4683838  43.0368805   6.3657370
  70.1786728  42.9967728   5.4543161  71.2879562  42.5425377   6.3785148
  61.4327927  51.9776268   6.9844003  62.1712723  51.5156555   6.5875916
  60.6810722  51.4058151   6.8288865  64.4879303   4.3476577   5.1440721
  64.1566086   5.2453737   5.1202440  65.0896378   4.3341017   5.8883801
  33.4503937  12.7185688   1.1876477  34.2541313  12.6728392   0.6698225
  33.0753479  13.5726366   0.9728401  34.8119431  26.3987675   7.2907696
  35.5233574  26.3415489   6.6529231  34.4235420  27.2604828   7.1396985
  54.4707108  38.4533882  10.9873610  55.3461456  38.6255379  11.3340712
  54.4343605  37.5018082  10.8903770  62.1297760  12.9471598  64.7658539
  62.6158257  12.1837835  64.4540100  61.2821770  12.5962076  65.0390549
  64.8260956   9.8831053  75.5370178  65.3699341  10.5387449  75.1004410
  65.2800369   9.7054281  76.3607864  80.7493896  32.2035751  13.6221733
  80.4820557  31.2884254  13.7073889  81.0316849  32.4535522  14.5019760
  42.5157356  12.0889139   3.0591509  42.4345360  12.4915438   3.9237473
  41.6738625  11.6563807   2.9163435  79.8374710   6.9570765  32.6875420
  79.9274979   6.8312216  31.7429314  79.4218750   7.8147616  32.7763596
  49.4483643  27.8776226  10.3021078  49.0485268  27.0139008  10.4038029
  49.4111977  28.2633171  11.1773739  82.6106873  56.6741753  75.1737747
  83.5237427  56.7925873  74.9119644  82.6582184  56.3891907  76.0863266
  60.6357346  35.3451004  22.4696426  60.8537560  35.3129921  21.5381546
  59.8475189  34.8079567  22.5497932  11.2378807  12.6853991   7.7517829
  11.2633228  12.4363499   6.8279004  11.7819605  13.4712601   7.8030729
  83.0739365  60.0282211  68.5721588  83.9837112  59.9316635  68.2907028
  82.6056061  59.3318253  68.1118011  51.0279274  41.5869827  18.3102245
  50.8147316  42.2045212  17.6106339  51.7366829  41.0533409  17.9508877
  49.9910393   8.1066570  18.1233101  50.6086655   8.2243423  18.8450584
  50.4619713   7.5636005  17.4912167  66.3036652  55.5672607  69.8543320
  65.4855499  55.4824944  70.3439560  66.0580292  55.3937149  68.9456100
  22.9030685   0.0727310  41.7155380  22.0423698   0.3897058  41.4417572
  23.2263794   0.7452141  42.3150940  54.5929260  42.7905464  54.8827972
  54.6494522  43.7044373  54.6038017  55.3798561  42.3811913  54.5230789
  15.3185062  42.2159462  82.4138489  15.6339321  43.1191826  82.4438934
  15.5104017  41.9247627  81.5224380  68.0357285  51.6585579  30.9657440
  68.5708389  50.8655624  30.9334240  67.2098694  51.3744164  31.3574791
  23.1912746  64.7789307  78.2136841  22.9185181  64.2754745  77.4466324
  22.5382843  64.5702438  78.8817368  16.6741581  59.4177399  72.6715851
  16.9710941  59.0361519  73.4976883  16.4699421  58.6633110  72.1189880
  18.5056610  15.5914478  60.8519592  19.3506432  16.0242214  60.9742012
  18.0057373  16.1934948  60.3007355  60.2674599  41.1196632   5.6594028
  60.3502312  40.2307549   6.0046945  59.7357559  41.0212593   4.8695674
  28.4417953  46.4727211  11.4394531  28.3129978  46.9310112  12.2698803
  28.1797829  47.1073532  10.7725019  83.9153900  40.2766991   0.6751260
  84.7842560  39.9622765   0.9250162  83.8019867  39.9759064  -0.2264807
   0.2578318  71.1374664  81.3256912   0.9908093  71.4184799  81.8734207
   0.2724080  70.1818008  81.3779221  65.0505753  46.2202148  20.7999363
  64.9103699  46.9599648  20.2088833  65.1962204  46.6221695  21.6563530
  41.8618469  56.2077866  42.8510780  42.5941353  55.9004631  43.3854332
  41.7520027  57.1254158  43.1003189  40.7613945   2.0170269   8.2155962
  40.8764191   2.3334095   7.3195481  41.6465187   2.0016985   8.5796671
  26.0673370  69.1946259   0.6270257  26.7349892  69.4202957   1.2747496
  26.2385368  69.7829514  -0.1083626  38.1037369  35.8065758  61.6450310
  38.7184639  35.7623901  60.9126434  38.3405952  35.0647316  62.2016258
   5.0431595  54.4473686   1.5386363   5.9195137  54.2331085   1.2187504
   4.4511628  54.0415726   0.9053115  59.4967575  67.5395813  66.7553101
  59.8816109  68.0799255  67.4453506  59.5285606  68.0909882  65.9735413
  73.2291641  54.6032677   9.0742579  72.8139267  54.8271332   9.9071417
  74.0230942  54.1295090   9.3221531  73.7903824  54.4305725  20.6959953
  73.8859711  55.3771553  20.8012390  72.8927155  54.3136101  20.3849468
   1.2117051  41.6295509  36.8758087   1.6591092  41.1313210  37.5597916
   1.8101383  41.6021843  36.1292458  38.1241379  45.0975342  37.9337387
  38.9947243  44.7080421  38.0150604  38.2388687  45.8116951  37.3068123
  10.6313314  21.9819546  64.8092346  10.0554056  22.1281986  65.5596695
  10.9074297  21.0693188  64.8934784  65.6148758  38.8053932  36.3941574
  66.1444778  39.4846001  36.8118095  65.0779953  38.4507141  37.1028137
  48.7670822  45.4324455  71.3341675  48.4985199  44.5522346  71.5974808
  48.1667213  45.6641006  70.6255569  24.0617027  23.0832157  59.7502174
  24.9848728  23.2267075  59.9585419  23.7684383  23.9143581  59.3768120
  16.7956562  54.2952995  27.7702942  16.7224789  53.9787445  26.8699226
  16.2816086  53.6734390  28.2853394  55.6350861  69.4401474  13.8139505
  56.0987473  68.6699753  13.4851837  55.9634094  70.1634674  13.2798700
   5.5600672  46.5112991  20.3703880   5.1042762  45.6705513  20.4107285
   5.0491371  47.0882149  20.9381466   8.1298046  46.6803436  84.6924438
   8.1252003  47.5086823  84.2127914   8.5508089  46.0608177  84.0964813
  50.3162422   7.0983505  21.3812771  50.4929352   8.0315199  21.2620888
  49.6802940   7.0643554  22.0958691  50.1513519   1.3057643   2.0906708
  50.7265587   1.9400892   2.5184581  50.7453079   0.6415435   1.7410187
  83.0612869   5.7099171  88.0729218  83.2953033   4.7837725  88.1339493
  82.1440659   5.7076602  87.7991791  85.3569946  16.1050186  44.1528244
  85.1936951  16.6640892  43.3932190  85.1575165  16.6605320  44.9063797
  42.4758568   6.4656878  15.5331326  42.6009064   5.7522545  16.1589184
  43.1925621   7.0731964  15.7161531  10.6463223   0.3118296  59.7711411
  11.0212593   1.1748240  59.5953712   9.8655348   0.2728952  59.2187920
  58.7401733  69.4927673  22.0420341  59.6872177  69.4712143  22.1794262
  58.6194420  70.0829697  21.2981815  28.6545506  13.4564209  14.5430574
  29.3514977  14.0933552  14.3855419  28.1373367  13.8378553  15.2524443
  80.2595139  35.3358574  13.2758389  79.3276672  35.4872093  13.1177607
  80.3050461  34.4344749  13.5946884  54.6425056  69.3291016   8.2269955
  55.5119209  69.0048752   7.9919958  54.6167450  70.2200546   7.8780203
  29.4997292   3.9038270  74.6641083  29.9428253   3.8482575  73.8174667
  28.7844887   3.2707233  74.6021271  68.8643875  20.0179062  59.5774994
  69.8058395  19.8747482  59.4805183  68.6721191  20.7510319  58.9928703
  38.1810760  17.3035545  10.5568647  37.8076591  17.8029556   9.8306494
  38.1554375  17.9061527  11.3001337  39.5715714  13.4026318   7.3636370
  38.7730827  12.9159021   7.5679407  40.2818413  12.8299408   7.6530805
  66.5901031  63.7355881   0.2885654  66.0103226  64.4829788   0.4351625
  66.4432755  63.1667137   1.0442485  68.4513702  60.1176910  72.0679016
  68.3076096  59.4365540  71.4109192  67.5736923  60.4363632  72.2785263
   3.7600114  35.3337860  47.7785950   4.7044406  35.4391098  47.6637383
   3.4131680  35.2951889  46.8872795   5.1520367  68.9550476  22.8133564
   5.1232347  68.2130585  23.4173965   5.4152408  69.6970291  23.3577938
  43.5861855  70.2494583  74.2184372  43.2511444  69.9722977  75.0711670
  43.3141136  71.1638107  74.1398697  45.9812469  25.8512630  77.2262268
  45.0827942  26.1298103  77.0489502  46.5254822  26.4952602  76.7731247
  86.2759247  55.2612038  18.2336636  85.5854263  55.3309669  18.8928928
  86.2789383  54.3363533  17.9869232  23.9207039  -0.2534263  36.6325455
  24.1471443  -0.0229107  35.7315331  24.2776203   0.4614618  37.1595917
  47.6092072  35.2649574  76.0531082  46.9312897  35.7943115  75.6330490
  47.1362114  34.5193024  76.4225769  84.2491760  66.0503006  82.0650940
  84.9090500  66.7224579  82.2354126  83.5606461  66.5075073  81.5822754
  46.1954918   4.7490072  10.9042902  45.4965858   5.3078237  11.2441225
  45.8080139   4.3170757  10.1430244  72.1192856  68.0669861   1.7289138
  72.0196686  67.7744904   0.8229579  72.3965836  68.9802780   1.6566190
  78.9527359  29.9340954  74.3822403  78.2684174  30.4264393  73.9288788
  78.5751953  29.0642986  74.5132065  28.4890594  54.1174965  21.2281342
  28.9152374  54.8634529  21.6502190  28.0206604  53.6766624  21.9370060
  50.9555435  17.4991989  21.7100410  51.0176430  17.8716717  22.5896091
  50.2228699  16.8853436  21.7610683  57.6992569  43.0651207  18.0569534
  57.6751251  43.0607529  19.0138397  58.3744316  42.4251785  17.8314686
  30.4584694  42.8071404  56.3275032  29.9558620  42.3766632  57.0191002
  30.1797161  42.3713188  55.5221558  46.9393501  25.7417049  65.5943604
  46.6609879  25.5081234  66.4799042  46.4689064  25.1313343  65.0265884
  48.1343040  53.2290039  56.9818954  48.3323250  54.1587906  56.8700256
  47.1994896  53.1582680  56.7886353  64.9564209  13.5902109  15.4625978
  64.6589890  12.7526693  15.8179741  65.9089127  13.5643797  15.5537806
  61.6904488  23.0664616  69.0216827  61.4276199  22.8403664  69.9138870
  60.8670502  23.1257496  68.5371933  60.8043861  36.2200012  67.0999298
  60.9666710  36.8352432  66.3848190  60.1304245  36.6432877  67.6317520
   8.9971457  33.6629906  18.3287373   9.0647507  34.5052261  17.8789558
   8.4022493  33.8290558  19.0600033  79.5955582  12.6741238   1.2613509
  79.7774124  13.5216446   1.6673919  78.8483276  12.8394032   0.6864069
  56.7834511  39.1146164  61.1712837  56.2508545  39.4319229  61.9005928
  57.3609161  38.4597244  61.5635643  73.4308853  60.4389572  66.8598633
  74.0175323  61.1738396  66.6808929  72.9280167  60.7150307  67.6261063
  70.2519302  30.8163719  42.7760429  70.2610245  30.7078209  41.8250618
  70.7048035  30.0419598  43.1098442  71.1526947   9.2984896  83.6786423
  70.8887939   8.4309845  83.3720093  71.7483826   9.6206579  83.0021896
  22.2682838   1.6055830  61.4788017  22.5868816   0.7301586  61.2588921
  21.8150597   1.9008955  60.6891136  77.7182388  56.4927521  35.6426201
  77.6998367  55.8413582  36.3437500  76.8552017  56.9053802  35.6763382
  62.3540802  46.1681595  33.4171944  62.5656242  45.3820572  33.9207115
  62.0401993  46.7936363  34.0702553  46.1238327  38.1361122  87.6289749
  46.2729912  37.4461823  86.9824600  45.1784630  38.2845154  87.6071091
  51.1372986  44.8016434  24.8924046  51.3163376  44.7222939  23.9554520
  50.1960564  44.9681396  24.9431343  20.6117783  14.6053638  23.9266796
  20.1211796  14.6905394  24.7441692  21.3165855  15.2486191  24.0021858
  75.8311996  35.5745468  88.1368484  75.1691971  35.5906754  88.8280182
  76.6642838  35.6557579  88.6011887  26.5738297  48.9218559  32.3973885
  26.5000591  48.9245110  31.4430389  26.0785084  48.1508141  32.6737595
  26.7596111  61.9030418  53.2743721  27.5517464  62.2644615  53.6720238
  26.1468468  61.8092499  54.0037231  61.2912254  51.6782036  48.0941162
  60.7257423  51.5553551  47.3316422  62.0782890  52.0954323  47.7438545
  10.2899694   5.8449244   6.2203660  10.2113361   4.8951626   6.1309166
   9.7328768   6.0620360   6.9678564  79.9506989  67.2964706   6.5873218
  79.9611740  66.9858856   7.4926710  80.4624786  66.6468735   6.1053209
   6.5658479  35.2959061  65.6060791   6.9234600  36.1620483  65.4107819
   5.6173482  35.4244652  65.6133347   3.8620431  44.6308479  34.0779762
   4.0222645  45.1613770  34.8584251   4.7254076  44.2975502  33.8335457
  77.8523254  34.9007912   0.5698668  78.5219955  35.4924049   0.9130411
  78.3323212  34.3014641  -0.0016570  66.3899536  26.7324963  77.0914230
  66.8188171  25.9922962  76.6619949  66.5680771  27.4780331  76.5181198
  25.2050705  55.5939674   9.5425386  26.0124168  55.0950279   9.6669779
  25.0583954  56.0259933  10.3840084  76.6516647  68.2187576   9.5966892
  76.5203400  68.4467468  10.5170202  77.5717621  67.9603882   9.5428791
  27.5268745  53.8058624  16.3336678  27.0096626  53.0091934  16.2151852
  27.9192333  53.7098503  17.2014618  19.9754162  13.6681643  59.6219597
  20.7978859  14.1565266  59.6577377  19.3889751  14.1432295  60.2107124
   5.8271132  49.7109566   2.8103716   5.0706897  50.2024193   3.1305571
   5.4485455  48.9818993   2.3190517   8.9131413  11.8734989  47.0821877
   8.5304861  12.4955711  47.7009239   9.7421846  12.2745066  46.8212051
  69.0347214  60.4721985  23.0993004  68.2024536  60.3321228  22.6477051
  68.7857361  60.7886772  23.9676762  19.8473110  68.1200943  79.7660522
  19.3069248  67.7917099  79.0474548  19.2221127  68.3268890  80.4607468
  60.5134583  10.8481998   0.9433349  59.8771057  10.2335806   0.5779213
  60.2220573  11.7062445   0.6349903  39.2616310  45.3594894  80.1789932
  38.4268723  45.3706207  79.7107162  39.3505821  46.2451363  80.5310669
  74.7750397   0.5102209  18.1647568  73.9961548   0.3818061  18.7061253
  75.2142181   1.2671140  18.5526638  66.2425842  31.6773434  62.5327225
  65.5064774  31.3400726  63.0432320  65.8711166  32.3982735  62.0242958
  52.6539078  32.2924538  87.0870056  51.8633080  31.8739643  87.4276657
  53.3487473  32.0127449  87.6829834  31.7177448  49.7007599  54.7148666
  32.3327675  48.9689369  54.7639885  31.3137627  49.7327347  55.5820503
  82.9975052  27.6531086  77.0487823  82.7713089  28.4891529  76.6412277
  83.9375992  27.7155876  77.2177200  56.6717987  68.5603943  83.1227493
  56.8709259  67.6498260  82.9049301  56.6798286  69.0153656  82.2806320
   6.1971269   8.7144613   6.1104326   5.5308127   8.8296127   5.4329391
   5.7024951   8.6781206   6.9291210  27.3312359  15.2521000  89.4656525
  27.0541878  15.4351511  88.5678940  28.2092838  14.8820028  89.3745956
  64.8045883  36.3588676  85.8440247  64.7612228  35.8288956  86.6399384
  64.4805069  37.2190361  86.1110687   1.8471287  25.4464741  81.9636002
   0.8926728  25.4377956  82.0355072   2.0267398  25.0492744  81.1114273
  29.7470589  45.0926666  40.8854408  29.2233944  45.8052063  40.5189781
  30.6065426  45.4835052  41.0428085   7.8313928  11.8760281  78.3175125
   8.6424961  11.4273891  78.0786285   7.6695518  11.6121540  79.2232742
  73.7903976  59.9449005  46.1232872  74.6721954  60.0771637  46.4713860
  73.8521194  60.2129822  45.2064667  30.8757172   4.8346882  58.8318672
  31.4814548   4.2061486  59.2246132  30.7800159   5.5202894  59.4929466
  70.5534210  46.3713570  71.3184814  70.8254776  45.9166489  70.5213242
  70.0207214  45.7307205  71.7897034   0.7627331  51.1523094  41.8401489
   1.6405765  50.9169846  42.1405563   0.5496094  50.4910088  41.1817436
  74.0809555  68.7821732  80.3070984  73.4487305  68.9158325  79.6009445
  74.8903809  69.1760406  79.9816284  14.1513948  11.3408813  87.6227036
  13.8131447  11.0678473  88.4755096  14.9615126  10.8424139  87.5156021
  78.6196518  19.0907917  66.2797623  78.5794373  18.1408348  66.1693115
  78.6901550  19.4327679  65.3885193  16.1013699  44.8701706  84.1567307
  16.0886822  44.8678017  85.1138458  15.5317326  45.5992699  83.9114532
  35.7441597  42.4884834  18.5738430  35.5739555  41.7441597  17.9965706
  36.0890770  42.0957184  19.3757153  19.8597031  34.4588280  63.0182991
  19.8469429  33.8688087  63.7719193  20.1894054  35.2866974  63.3678131
  44.5579376  34.6091957  72.8487091  43.6827812  34.3462868  72.5637436
  44.6422729  35.5168877  72.5567856  86.3759613  11.1695642  52.8680115
  87.2113037  11.3766708  52.4490395  85.8581696  10.7549734  52.1779099
   5.7896914  41.4504700  35.8528709   5.3909369  40.9277802  36.5485878
   5.6359339  42.3576355  36.1167641   6.5139418  45.0530586  73.0954437
   7.2683644  44.5266380  73.3599472   6.4041104  44.8630295  72.1637497
  61.0056305  24.2798138  23.4433727  61.4599533  25.0551624  23.1137409
  61.4980545  24.0276775  24.2245102  77.0421982  63.5836220  59.6050835
  77.8967133  63.2677574  59.8987846  76.7283325  64.1301956  60.3254852
   5.4547205  69.2474365  29.3830414   4.7325568  69.2347717  30.0111732
   5.1181159  69.7500229  28.6411953   2.0667605  21.9349194  30.1498394
   2.6722386  21.2133579  30.3200684   2.6239729  22.6450939  29.8314075
  12.2785912  56.6467819  29.1331673  12.4710979  57.1121750  29.9471588
  12.4892330  57.2751045  28.4424629  48.5981598  66.9417038  50.0816269
  48.0909233  66.6066132  50.8209877  47.9683380  67.4486542  49.5692215
  40.7475243  54.5507278  15.8094530  40.1662521  54.7731285  15.0822020
  40.2284546  53.9648476  16.3604031   5.5928330  62.2024231  82.2013626
   5.3569078  61.9642334  83.0979309   4.7579174  62.2337723  81.7342834
  11.4560022  45.5498772  60.6572762  11.0944824  45.0985031  61.4200325
  12.3666039  45.7270699  60.8931580  37.6269493  64.8740921  49.6018028
  38.2073784  64.5577698  48.9095039  37.0075493  64.1577072  49.7409744
  39.9888878  14.2165079  73.2684555  40.4923973  15.0282431  73.3300858
  40.1263580  13.9170313  72.3697662  54.2755356  64.5697632  58.2413292
  54.9933052  64.2472610  57.6963234  53.5035362  64.1028748  57.9215469
  58.7224197  68.9857864  13.1643200  59.3629456  69.6669312  13.3692551
  58.7407722  68.4034500  13.9237804  52.6603661  47.6050148  13.7200165
  52.5866966  46.6512718  13.6857052  51.7935257  47.9024086  13.9963856
  63.5063934  14.0794859  69.9336166  64.0956573  14.7632790  70.2520905
  63.2048492  14.3999815  69.0835648  44.1520157  59.0161285  34.3878021
  44.4876251  59.5996437  33.7072830  44.6559830  58.2093239  34.2814331
   6.7058887  14.2337618  79.0833969   6.3409457  14.7987642  78.4023514
   7.1334710  13.5249138  78.6028290  18.8774319  38.0422859  82.8573990
  18.0618019  38.4691887  83.1195679  19.2733250  38.6470184  82.2298660
  62.0259056  11.0769825  85.4739304  61.2495613  10.5177631  85.5021210
  61.6914520  11.9593592  85.6344986  68.7156982  60.2178421  29.7619724
  69.4340591  60.0167961  29.1621647  68.9138336  61.0960464  30.0871372
  54.8985405  45.6522369  27.9676399  54.9156570  44.7223816  28.1941528
  55.7516174  45.9829979  28.2488670  38.2962875  46.8106956  19.0001583
  38.6127129  47.0578003  19.8690929  38.1398735  45.8683395  19.0612583
  43.1995621  20.5923309   0.6061432  43.5768738  20.2009068  -0.1816726
  43.4337692  19.9872990   1.3099296  61.4518967  56.8889084  37.3178596
  61.6686668  56.0231171  36.9719505  61.7216110  56.8545570  38.2356339
  73.6474075  13.0368967  62.7537155  73.0517120  12.4144068  63.1707039
  74.2287445  13.3213081  63.4589729  44.6690140   8.3423595  15.6779013
  44.7349358   8.0339766  14.7741394  45.4930496   8.8035908  15.8343000
   3.7566080  53.7326813  25.9518967   3.2706895  53.0208664  25.5354385
   4.6169591  53.7126312  25.5328197   2.2486913  63.5947075  71.7151794
   3.1048107  63.5694695  72.1425629   2.3293390  62.9855766  70.9812241
  61.4029579  54.5335388  51.7861595  62.1932831  54.7301941  51.2832222
  61.3192177  55.2659035  52.3967819  50.0804939  11.6205626  31.9269848
  49.5176964  12.2773743  31.5170021  49.5885811  11.3292055  32.6946869
  79.6781540   5.1846361  72.4670639  79.9773254   4.3943534  72.0174103
  80.4029160   5.8027496  72.3727722   7.0686784  22.1264954  39.2671509
   6.2484727  21.7883911  39.6265678   7.0504632  23.0622196  39.4679489
  74.0613251  45.0042534  83.3766632  74.2320709  45.0160408  82.4348907
  74.8679352  45.3366890  83.7705002  57.2864647  45.9272156  51.6123009
  57.6462631  46.5118179  52.2793961  57.4073219  46.4002037  50.7889481
  48.8203850  31.7950439  24.7134857  49.3386269  32.3151016  24.0993195
  48.2729836  31.2417240  24.1563320  10.4696999  27.8171921  88.4080811
   9.9370174  28.1709900  89.1203384  10.4393768  28.4909534  87.7288513
  42.8200378   0.4677835   2.1556718  42.9652634  -0.1873310   1.4730537
  42.6243057   1.2732087   1.6769122  43.2243500  31.1060333  73.6541138
  44.0296669  30.9945736  74.1593628  42.6344872  30.4320793  73.9918671
   1.4406046  33.1973419  64.0765076   2.0948153  33.5373077  63.4660416
   1.8514265  33.2780838  64.9372864  39.8767014  21.2347927  69.0943298
  39.0046082  21.4964638  69.3896561  39.7609596  21.0166397  68.1695404
  80.9331818  43.7988358   3.8170686  81.2350998  44.6651993   3.5441411
  80.4627914  43.9560471   4.6357589  60.9182701  29.0739517  10.8051882
  61.5370560  28.6147690  11.3730650  61.4148254  29.8161774  10.4605627
  52.1187592   8.9833527  64.8870010  52.1009674   9.8000565  65.3859177
  51.3926811   8.4702110  65.2415848  67.0654373   5.7677989  36.7994995
  66.8610001   6.4090409  36.1188774  66.3024139   5.1902556  36.8213921
  59.1076813   9.4767303  53.2697983  58.7367134   8.6701365  52.9119987
  59.3195496  10.0049295  52.5001564  30.5898476   2.8593004  44.2052956
  30.9641724   3.6518059  43.8205261  30.0659389   3.1749477  44.9415817
  83.0450439  33.5304260  46.3631897  82.2039871  33.9491425  46.1800728
  83.4815140  34.1259918  46.9723053  15.9740696  33.8855629  84.8677139
  15.1168194  33.5655174  84.5867844  16.3432941  34.2982712  84.0869598
  23.5076904  56.4008904  86.5524979  24.3684540  56.7060661  86.2658157
  23.0215645  57.2024612  86.7458878  53.5255013  25.8010368  30.1174297
  53.9099503  25.3246861  29.3815498  53.3896904  26.6879215  29.7839260
  17.5084076  22.1233177  80.1651154  16.7614689  21.6694832  79.7747955
  17.5066681  21.8439445  81.0806351  72.6001205   0.8074595  67.9416046
  71.8010864   1.2563838  68.2177200  73.2771606   1.4834439  67.9715042
  81.5873108  39.0077934   8.2030191  81.7891159  39.3151131   7.3192406
  81.4044876  38.0743217   8.0960827  57.2406731   3.1439347  30.7273350
  56.8751755   4.0216107  30.6162949  56.5170898   2.6260242  31.0800819
  62.8945351   8.1842508  42.5173988  62.1154404   7.7778955  42.8970299
  63.2019196   8.7895346  43.1922150  70.7719345  53.6189232  66.2040634
  70.9358978  53.1950493  67.0464859  71.6336517  53.9195480  65.9154587
  75.6597519   0.6837223  72.1668091  75.5252457   0.0110004  72.8343277
  74.9137344   1.2747440  72.2686539  60.6479607  15.8924131  64.6987991
  61.1875038  15.1257639  64.5054779  59.7977409  15.6917648  64.3075104
  45.8732605  41.3436279  56.2332535  46.3723526  41.2158318  55.4265251
  46.5355225  41.5388260  56.8962326  60.8792000  58.6630669  32.3977890
  60.9630318  59.4589272  31.8726120  59.9358749  58.5534172  32.5175858
  61.3909950  60.5297928  11.4270573  61.8493805  61.1709290  11.9702473
  61.1880608  59.8105507  12.0251751   4.2854486   0.3192165  65.1819458
   4.6715508  -0.5561596  65.2115021   4.3075800   0.5596016  64.2556915
  68.7828522  51.1184769  66.0391159  68.4824753  50.7815781  66.8832169
  69.4716644  51.7444801  66.2624741  28.7484150  12.1065865  67.1123734
  29.6956482  12.2439938  67.1225357  28.5073528  12.1682682  66.1880798
  27.9303226  58.7252464  66.7157822  27.4922466  58.5020523  67.5370636
  28.5027275  57.9786835  66.5390701  40.8965263  66.5540543  67.9490662
  41.6602402  66.3631973  67.4045105  41.2486610  66.6353760  68.8354187
  30.0407829  51.5179710  72.0433426  30.7675724  52.1157494  72.2184830
  29.5727291  51.9182091  71.3105621  24.7514515  56.8682251  52.7229118
  25.4533100  56.5896072  52.1346931  24.6300468  57.7974052  52.5276909
  73.3601456  55.7879105  17.1736984  74.0166473  55.9796829  17.8433666
  73.8438797  55.8187218  16.3482990   7.1082644  44.7032623  14.4318171
   7.3677311  45.1156883  13.6079149   7.7926073  44.9553490  15.0517836
  41.0134087  14.4554338  15.5352945  40.0918846  14.6212931  15.7340736
  41.0475998  14.4081993  14.5798721  19.7805748  17.0724697  19.7000351
  19.4479733  16.4439774  19.0592518  19.4575596  16.7502613  20.5415077
  58.0870590   2.9880888  86.7561951  57.7862244   2.2226343  86.2664948
  58.8201485   3.3278186  86.2429733   8.0710411  28.1597176  62.1287346
   7.6730738  29.0072231  62.3276978   7.4463058  27.5169868  62.4646416
  14.6220655   2.1589565  84.8021164  14.2105350   1.3523201  84.4919357
  15.0845032   1.9006625  85.5994034  29.1123104  50.3909492   1.9775465
  28.5538197  50.6832962   2.6978612  29.2806702  51.1836281   1.4680877
  11.5446987  61.2529716  43.7407417  11.9698486  61.4843178  42.9149323
  11.8773985  60.3789558  43.9447937  53.6908264  60.3112831  18.6070023
  54.2678947  59.6011734  18.3259869  53.1087723  60.4563179  17.8610744
  53.8455734   0.3733623  38.4202652  54.2140846   0.8310120  39.1759033
  53.5418739  -0.4635342  38.7718353  83.4655533   7.0729651  21.0680408
  82.7891922   6.8086972  21.6916828  83.9384995   6.2644868  20.8707523
  59.0274773  20.5744438  45.1376381  58.4869843  21.3636990  45.1033707
  59.3865280  20.5683708  46.0249214   8.8954506  66.7081070  68.0208588
   9.6712408  66.2594986  68.3572083   8.8607006  67.5282288  68.5132217
  57.9080887   2.3284986  44.5108566  58.8437767   2.2468977  44.6954269
  57.4848099   2.2066529  45.3606911   9.9263115  39.6009178  77.4748154
   9.8182001  39.3985443  78.4041138  10.3727627  38.8352585  77.1133118
  82.6962509  46.2250481  53.0982323  82.1265945  45.5039253  53.3660126
  82.5751266  46.8902512  53.7757721   1.6186126  20.1756153  22.9214706
   1.4094043  21.0015564  23.3576870   2.0407739  20.4371529  22.1031742
  70.8884506   4.5948367  29.7731876  71.0272217   4.1099749  28.9596252
  71.1148758   3.9726248  30.4644318  74.8129044  54.2551651  48.6720009
  75.0600204  53.9229698  49.5350266  73.8999252  53.9882088  48.5650177
   2.9685574   0.9914638  78.9212799   2.0216260   0.9950330  79.0610657
   3.3183267   0.4980425  79.6631927  41.0608444  52.4680748  47.0906868
  41.0407410  51.9404755  47.8891029  40.3807373  53.1285439  47.2228622
  14.4612274  14.0059853  84.5904999  14.5917625  13.1402578  84.2035828
  14.9779530  13.9886837  85.3960648  27.1535130  60.6138458   3.2868164
  27.1993198  61.0548782   4.1351228  27.0530548  61.3239098   2.6528225
  60.8946152  65.0735245  24.4506645  61.8381195  64.9197693  24.4995899
  60.5097542  64.1972809  24.4329510  68.0969925  60.4619446  41.9069595
  67.1531219  60.3065910  41.9416008  68.4591827  59.8876152  42.5816460
  65.9696045  50.4137115  75.2551880  65.1640701  50.8683586  75.0089340
  66.5051651  51.0862694  75.6759949  12.4986687  44.8413048  30.9613228
  12.2286234  44.5613365  30.0867214  13.4547386  44.7991142  30.9417591
  49.9148865  20.0623055  20.2263603  50.7938347  20.0781212  20.6050816
  49.5619049  19.2082710  20.4758778  78.9294662  48.6631317  69.1111374
  78.5853958  49.4895172  69.4501572  79.7194214  48.9115639  68.6310577
  59.3231316  25.9238968   2.2036579  59.1701050  25.8394794   3.1447685
  60.0960960  25.3843632   2.0373394  65.4208908  38.1097450  15.7770395
  66.1255569  37.9716148  16.4099636  64.9095535  37.3011513  15.8076477
  15.4579191  38.5695419  77.2537613  15.4871740  38.5095978  78.2086334
  16.2003880  38.0428429  76.9578476  47.1303673  35.7667046   1.1836050
  46.7766075  35.2429466   0.4647419  46.7879295  35.3502159   1.9744936
  60.9140244  70.0577087  44.6129456  60.4947433  70.5331345  45.3301697
  60.2565804  70.0450363  43.9173622  39.8423233  24.8436680   7.8525167
  40.6639824  24.6488705   7.4017835  39.9815483  25.7069530   8.2418604
  10.1516294  64.9070816  39.3065338   9.6507721  64.9025574  38.4908447
  10.0327587  64.0277252  39.6654663  57.6383324  27.4043846  76.2550201
  58.4825211  27.7992859  76.0367813  57.7479477  27.0843487  77.1504517
  69.4015274   0.4846992  42.0728111  69.8399658  -0.2389248  41.6251831
  69.6031647   1.2535803  41.5395203  27.2250595  59.6621361  19.6173134
  27.8788147  58.9980278  19.8359299  27.7014828  60.4911346  19.6622314
  51.3971901  44.1490059   0.7842655  51.7798767  43.5718460   1.4450735
  50.6708870  44.5802193   1.2345688  55.9690857  49.5445747  74.0035553
  56.4029579  48.6915665  73.9845428  56.6123009  50.1487694  73.6328049
  49.3837166  57.9382286  75.7714005  49.9347954  58.2646332  75.0600586
  48.5493317  58.3928642  75.6559067  40.3934479  33.9286842  69.4101944
  40.4857368  34.7064247  68.8598938  40.9683037  33.2792015  69.0053024
  82.7307510  25.1380291  87.3284683  83.3421707  25.3810787  88.0236816
  83.0361252  25.6217575  86.5610123  24.3159981  32.8097725  51.0731468
  23.7193241  32.2728653  50.5516663  24.0923100  32.6038284  51.9807701
   6.8781562  34.4217949  70.7802658   7.6860628  34.6940727  70.3450775
   6.3550344  34.0217438  70.0856171  65.4834747  61.3382072   1.2397585
  65.0223923  60.6737747   1.7517823  66.1118851  60.8425636   0.7147183
  75.3640900  46.9277115  58.3307190  75.0808334  46.3739815  57.6031342
  75.9969101  46.3910065  58.8079147  29.3218555  48.6560287  47.1726570
  28.7025700  49.2879372  47.5379066  28.7838650  47.8979683  46.9443054
  75.7948990  44.2343292  80.9561310  75.9335785  44.4312553  80.0297318
  76.6669312  44.2925186  81.3465195  48.3291130  37.9968071   0.0573001
  47.4110527  37.9756126  -0.2127979  48.4193268  37.2566719   0.6575434
  85.1645355   5.8851838  11.5230999  85.1772079   5.7995062  12.4763737
  84.2415848   5.7931886  11.2866001  68.7418823  27.0104141  84.8692169
  68.3527069  26.4171391  84.2267227  67.9929352  27.3943386  85.3251877
  58.1904831  37.0591660  62.5502853  58.2199631  36.2775307  61.9985542
  58.9734497  37.5533829  62.3074913  23.7205849   0.7925268  56.6932945
  23.4256744   1.5836436  57.1442871  24.3094501   1.1119915  56.0096207
  36.3878937  48.7626266  87.4105835  35.7280426  48.0723686  87.4767303
  36.7763252  48.6404305  86.5443192  63.9995995  48.7348709  56.6255035
  64.6394882  49.3232765  56.2248116  63.4415131  49.3092041  57.1498260
  64.6914444  38.9515114  50.8732491  65.2935333  38.7064400  50.1706429
  64.9855042  38.4429054  51.6289482  45.1155548  11.4990492  67.3408890
  44.7790260  11.3940239  68.2308044  44.5018082  11.0093737  66.7933884
  84.9266052  33.5117607  16.4513302  84.0121918  33.5822945  16.1772804
  84.8835831  33.1629028  17.3416557  54.2271194  55.7727928  80.0123901
  54.7566490  55.0048676  80.2271500  53.9808998  56.1390877  80.8617630
  67.3674088  25.2053375  38.7934380  67.4933472  25.8713245  39.4693336
  67.4496307  24.3730469  39.2590141  42.9079056   5.2889400  68.9515076
  42.3317604   5.5718384  68.2414017  43.2630997   4.4518194  68.6526794
  54.6889000   0.9633772  69.9661789  54.9345169   0.2923633  69.3292694
  54.6167526   0.4912623  70.7957153  54.5305214  56.6314926  31.1672955
  55.4580994  56.6893387  31.3963871  54.4145470  55.7312393  30.8634415
  63.0689545   9.7613344  52.4637871  63.7995605   9.1717196  52.6503334
  62.4864044   9.6667423  53.2173920  54.4366531   2.2868686  40.7252312
  55.2270584   2.7970459  40.9018822  53.7483101   2.7331631  41.2184258
  32.4019127  14.9008522  83.2412033  33.2777405  14.7604218  83.6009750
  31.8666325  15.1363783  83.9989853  83.0653305  12.7172260  15.3984976
  83.1196594  11.8089943  15.6958132  82.8758087  12.6519165  14.4625235
  10.9422464  34.4404678  35.3190880  10.8062897  33.5403824  35.6150475
  10.1103735  34.8793144  35.4969482  20.3920116  63.7582397  73.7658081
  20.8840179  63.2127647  73.1521225  19.5450096  63.8928223  73.3407135
  48.0640144  54.3923378  39.9743347  47.9406738  55.3398781  40.0307693
  47.3342247  54.0874977  39.4351616  73.5569534   2.5543842  72.1912689
  73.9193497   3.3507540  71.8030777  72.6670837   2.7964582  72.4477234
  73.3534241  18.1000309  76.1264725  73.6939392  17.4683743  76.7599487
  74.0740509  18.2341022  75.5108871  24.5147800  21.9651871  28.4095898
  23.6945095  22.1805668  28.8534374  24.3851280  21.0737057  28.0860443
  74.8960571  36.8294754  33.0248070  75.4027863  36.6157875  32.2413521
  75.2929459  36.3020248  33.7179947  38.6815834  66.6680679  88.8351746
  39.3047523  67.2579880  89.2593002  39.2290802  66.0260925  88.3831177
  29.2907887  54.2368088  73.8582840  29.6156540  54.8313751  73.1821289
  28.6996193  53.6450272  73.3929443  44.1426888  71.5392075  10.6503754
  43.1979370  71.6909409  10.6759024  44.2353935  70.6717148  10.2565708
  82.1821365   4.8933964  28.6086922  81.6483078   4.3249407  28.0536098
  82.7416534   4.2917295  29.0997829   4.8061633  65.3895187  23.8379631
   5.7532315  65.5274963  23.8539696   4.4388127  66.2117996  24.1622200
  79.4289703   9.3029366  41.3945961  79.0692062  10.0163260  40.8674583
  78.6689301   8.9255152  41.8374557  51.4454689  15.3584957  69.8181076
  52.0299339  16.1149330  69.8674469  51.2794456  15.1241369  70.7312012
  14.4484720  32.2270241  69.3569794  14.1377459  31.5266304  68.7832794
  14.3507023  31.8735199  70.2411270  47.8174210  38.4846001  25.3712673
  47.2770119  38.2423325  24.6192703  47.5202522  39.3635635  25.6065178
  16.7995129  49.1129494  40.9990082  17.4627075  49.7839279  41.1608391
  15.9812069  49.5072784  41.3008537  29.3724041  67.6365128  35.4432564
  28.6012363  67.1141357  35.6638222  29.1032200  68.5408325  35.6044464
  51.2144928  53.8573341  16.1091766  51.0354958  53.8647537  17.0494614
  51.1941109  54.7797203  15.8541937  54.9303894  61.3265915  57.8960991
  55.1980247  61.9329910  57.2055321  54.2413025  60.7965317  57.4955711
  25.4431477  59.8431206  61.1920776  24.6985779  60.4424858  61.2431526
  25.0572071  59.0020142  60.9474945  12.0890636  37.4541283  29.1438122
  12.9812784  37.7333832  28.9383850  11.6370831  37.4565315  28.3000469
  73.1548843  58.5939331  62.4625740  72.6256638  59.3388786  62.7475662
  73.6648865  58.3526726  63.2358246  46.2694283  65.0752716  22.9134693
  46.2564545  64.1212158  22.9899292  46.7424545  65.2438354  22.0985699
  34.2355995  41.7346992  65.9920120  34.9708328  41.1395569  65.8454971
  34.5349426  42.3180351  66.6893997  31.0911865   0.7659271  13.3483200
  32.0057526   0.6141182  13.1100960  30.7083607  -0.1099130  13.3991137
  86.1967697  17.8021126  17.1709518  85.3317108  17.4498978  17.3803635
  86.8097916  17.1570072  17.5234833  53.0135536  49.9595680  29.3337231
  53.3381577  49.9242859  30.2335110  53.7722168  49.7318611  28.7963085
  81.5176468  25.1063251  15.9732018  80.9051590  25.6395493  15.4664812
  82.0748444  24.6909275  15.3150167  80.5398560  20.4478912  60.4376068
  81.0360184  19.9442081  59.7923470  80.0378647  19.7908344  60.9197998
  63.5743141  52.7768173  45.1183739  63.9254341  51.8882141  45.0606613
  63.7166443  53.0318565  46.0299263  40.9386749  35.9827881  67.9471436
  41.6424370  36.0927010  67.3077164  40.2547493  36.5861969  67.6566772
  65.0100937  51.9078865  82.7004166  65.8430328  52.1316605  83.1155853
  65.2306976  51.7717400  81.7789917  79.7684174  54.9827232  84.2354355
  79.1110153  54.8603210  83.5505447  80.6035385  54.8160973  83.7983551
  14.3748007  23.4849815  23.5890236  14.9820585  24.2228909  23.6434155
  14.8798752  22.7897205  23.1674252   8.8305922   4.5615182   9.7054558
   8.6991539   5.0108056   8.8705330   8.4307175   5.1403823  10.3544931
   5.5512571   1.4624795  23.4442768   6.0943036   1.9848413  24.0345917
   4.6627126   1.5606220  23.7864590  82.6092682  10.9929514  70.9503250
  83.2009659  11.3090458  70.2675323  83.1565781  10.9347820  71.7334595
  35.9997787  65.8004303  85.7476196  36.1820526  65.2142258  86.4820404
  36.3485718  66.6475449  86.0250473  60.8433189  69.2720795  68.3646469
  61.7004509  69.4833221  68.7346954  60.3181953  68.9994354  69.1170731
   8.1803017   7.9212670  68.0330658   8.9411926   7.3819942  67.8175201
   7.6288438   7.3532548  68.5711060  12.3956614  41.2568016  32.5966835
  11.8358946  40.5020790  32.4142380  12.9509535  41.3362160  31.8210697
  75.1580048  22.9919815  12.5984173  74.6220474  23.0168228  11.8057251
  75.0171356  22.1150837  12.9554033  65.7821884  39.2128296   7.5422149
  65.5711288  40.0658913   7.9216475  66.0335617  38.6729546   8.2915993
  66.6045074  16.3572407  27.0721264  65.7182922  16.4838047  27.4110126
  66.7514420  15.4133072  27.1323948  13.4160519  -0.1308568  77.8279724
  13.1953812   0.7308055  78.1816330  12.5852442  -0.4751537  77.5001755
  59.4910774  35.9677887  33.8080711  60.1138153  36.5669518  33.3964539
  58.8607292  35.7653732  33.1167526  38.7551079  24.3711300  85.0807800
  37.8029327  24.4555607  85.0311279  38.9491234  23.5637608  84.6046066
  73.3629608  54.2562752  65.8135300  73.8277817  53.5010719  65.4532013
  73.8921585  54.5277252  66.5635223  79.0645676  51.2394333  55.0994911
  78.5464172  51.6412621  55.7968369  78.9292831  50.2985840  55.2123566
  34.5169640  17.2942581   5.2799492  35.3683014  17.1571293   5.6954679
  34.2810440  18.1933861   5.5082960  60.9254074  20.2961884  47.6825981
  61.6524086  19.7599621  47.9990807  61.2263565  21.1979084  47.7946892
  20.9197216  59.0649757  82.6937180  21.5300426  59.8021812  82.7102127
  20.3381310  59.2188187  83.4382401  46.3466148  33.9646950  70.9854584
  45.8153992  34.0829391  71.7728958  46.4644012  33.0173073  70.9160309
  44.5990868  40.3923035  38.8058929  45.5180626  40.3134613  38.5499573
  44.5214653  41.2826385  39.1486893  13.5645523  42.4796906  23.7588177
  14.3527403  42.3898582  24.2944679  13.5427179  43.4059181  23.5182800
  72.4287262  31.4858170  25.0018692  73.0797043  30.9309464  24.5722408
  71.6205292  30.9737854  24.9722042  19.0634689  66.9084549  72.4795532
  18.4638824  67.4864426  72.0076828  19.0431805  66.0882416  71.9865265
  81.5379486  41.3934402  54.4951553  82.0865707  41.6939125  55.2196960
  80.6571808  41.3430443  54.8665504   8.4584389  32.8497849  72.2278442
   7.9587541  33.4564972  71.6815338   8.0771885  31.9914684  72.0429916
   0.9761294  32.9570427  40.2386818   0.6431983  32.0988197  39.9762993
   0.6065865  33.1012001  41.1098251  75.9767914   7.6501484   0.9424583
  76.7672119   7.3100080   0.5232062  75.7523346   6.9919024   1.6001527
  22.3883038  24.4690495  76.0585861  21.8741531  24.5424843  76.8626251
  23.0785522  25.1251850  76.1549072  29.1940613  38.9006653  12.6604996
  28.7316151  39.7164879  12.4686480  28.9330215  38.3062630  11.9570961
  81.1308975   1.7205824  35.8056183  82.0542603   1.6811830  35.5564613
  80.7700119   2.4314957  35.2759056  10.0962267  46.6921539  81.3703232
   9.2892990  47.2069244  81.3598938   9.9677753  46.0597649  82.0773010
  73.9989471  27.4204483  86.3724060  73.2735977  27.3105164  85.7575684
  74.7159500  26.9147072  85.9898300   6.6228147  18.1012955  78.3684387
   7.1806026  18.6906261  78.8761749   5.8392000  18.6172791  78.1788559
  55.5168152   3.3943884  69.2916946  56.0029335   3.0109575  68.5616913
  55.1308517   2.6436856  69.7430344  20.5005398  31.4145679  88.4846420
  20.4417076  30.5629635  88.9177017  19.7924023  31.9294395  88.8715286
  63.8524857  18.8497467  47.6204071  64.1027603  18.6633987  46.7154922
  64.2332077  18.1322250  48.1268120  43.0726089  30.5117645   8.2027540
  43.4459572  29.7026272   8.5522394  43.7950439  30.9237537   7.7288456
   2.6944265  65.7630234  80.5963364   1.7936008  65.8323975  80.2802124
   3.1627216  65.3186798  79.8895874  35.9295273   1.9303911  70.6135178
  36.2108803   2.4954059  71.3331223  36.7324333   1.7452207  70.1263962
  59.4724617  13.2520342  89.1301346  59.6963768  13.2433128  88.1995316
  59.2573929  14.1660175  89.3161774  33.9316978  44.8786736  19.1994553
  33.6879692  44.1010437  19.7015724  34.8034210  44.6796684  18.8578033
  77.4788818  36.0252724  68.0365295  76.5578308  36.2132187  67.8560333
  77.4691772  35.5625534  68.8744049  68.2584686  69.3946381  24.7692013
  68.2948151  68.4468842  24.8983307  68.6929474  69.7583084  25.5406933
  13.0511293   6.1807213  49.1498375  13.3120193   7.0407891  48.8205185
  12.1139078   6.1268740  48.9628983  62.0191307  23.3658943  55.1383820
  62.0525246  22.6875916  54.4638290  62.7664375  23.9321804  54.9458160
  47.9168358  56.4468536   9.5127220  48.8002243  56.8149300   9.5321655
  47.9712830  55.6643410  10.0613031  52.0219345  42.4915085  53.6255150
  52.9102058  42.5476723  53.9777222  52.1248131  42.0417633  52.7868423
  78.6365128  58.7869225  32.1537666  78.2590485  59.2558365  32.8979912
  78.2868729  59.2370529  31.3847618  20.0308266  66.3115387  57.4093056
  20.8345566  66.5856934  57.8509941  19.3354378  66.7945099  57.8558502
   2.2622406  66.9628296  55.0890427   1.8844205  66.6439362  55.9086723
   1.5251412  66.9867020  54.4788437  26.2632771  43.4105415  67.4621658
  26.9982910  43.0247688  66.9855423  25.9633179  44.1260185  66.9014969
  47.0899391  57.7776260  83.0932541  47.0799942  57.0485992  83.7134552
  47.1203079  57.3595886  82.2326965  56.1909103   3.5834186  20.3099594
  56.2687798   3.0053406  19.5510159  55.7349892   3.0567253  20.9664345
  82.3214874  57.5487518   9.6674166  81.9875793  58.3784714   9.3263893
  81.9292603  57.4720802  10.5371904  81.5233917  26.3384819  74.6238937
  81.7683868  26.6795902  75.4840469  82.2538300  25.7727222  74.3736725
  60.1697922  50.7978973  58.2122040  59.8317261  49.9385567  57.9602547
  59.4262810  51.3901558  58.0997314  11.9543171  28.2960396  15.9057779
  11.7293653  28.4507790  16.8232117  11.1697884  27.8956299  15.5310555
  85.0931931  63.5288963  58.0887337  84.7272110  64.2748413  58.5639763
  85.5857620  63.0421944  58.7495880  66.1636200  16.5868664  77.7770691
  65.8547211  15.7019577  77.9713669  67.0263367  16.4582386  77.3828506
  59.2404823   8.6645851  20.2885056  59.0234222   8.7319584  21.2183323
  58.4137878   8.8339233  19.8366890  71.5701981  67.2358398  46.0627136
  71.8664551  68.0568619  45.6697998  72.3686447  66.7182541  46.1666946
  84.8272934  33.8256264  87.2281342  85.2961578  33.0211716  87.0062027
  83.9029770  33.5777969  87.2067337  14.9899664  43.5162163  51.7737274
  14.4793768  44.3216209  51.8565063  15.8433847  43.8057480  51.4511108
  16.2299919  57.8015289  17.3932285  16.8209305  58.5433464  17.5225658
  15.9089832  57.5951424  18.2710609  16.1393299  47.8513603  45.6294250
  16.4399624  47.0190010  45.9941597  16.8361645  48.4719582  45.8427544
  70.1358109  47.8814049  16.5785904  69.2365494  47.5542946  16.5549603
  70.1619568  48.4550743  17.3443928  60.0456238  40.5227242  67.9161758
  60.1310730  40.7418671  68.8440247  60.5696106  41.1843262  67.4645691
  77.2652206  29.3506489   6.7727900  77.1010284  29.8799362   5.9923239
  76.8570786  29.8420467   7.4856544  60.8411980  15.8735418  70.0986176
  60.3385010  16.6711082  69.9330444  60.2244720  15.1618214  69.9273376
  83.3292770  68.3725510  75.5820541  83.0456238  67.7170639  76.2193298
  84.0020752  67.9289703  75.0655212  68.1357117  67.3530502  81.0867767
  68.1474915  66.6244278  81.7074203  69.0592346  67.5313644  80.9091949
  12.2113171  35.3427505   9.4087372  12.4205189  36.1129799   9.9371443
  12.8346586  34.6767769   9.6988325  73.8923111  36.6296883  81.6600571
  74.3920975  36.0267525  82.2104340  74.5042496  37.3395386  81.4654465
  55.7301941  60.4618797  29.4357109  56.1340332  59.5960121  29.3772526
  56.0282364  60.9187698  28.6491642  30.1425819  11.7543049   1.1486441
  30.7249603  11.0510998   0.8612939  29.6730366  11.3856993   1.8969008
  60.0565491  24.8067322  77.8992233  60.8779259  24.5188713  78.2976074
  59.5126648  25.0757790  78.6395187  57.8457108  31.8991680  78.3529205
  58.2065773  31.4271355  79.1033783  58.5808487  31.9809647  77.7453766
  24.0967102  61.8304024  18.6005192  23.2152004  61.5229950  18.8118801
  24.6336021  61.0379524  18.6024570   3.9620960  31.2808418  34.4564743
   3.3881252  32.0023613  34.1991806   3.3640890  30.5742302  34.7000313
  74.5891876  26.0087147  71.7088089  73.6644211  26.1141605  71.4853897
  74.6068573  26.0171680  72.6658096  74.9738846  52.6469955   1.1233358
  74.1019897  52.5904961   1.5142777  75.2789993  53.5268898   1.3445376
  61.3083229  20.0915356  16.8405552  62.2461700  20.0732098  16.6499233
  60.8895950  20.1214275  15.9803190   8.8315163  13.9417553   8.3159590
   9.6321211  13.5454235   7.9721775   8.5988741  14.6097002   7.6710095
  71.5580902  43.9197388  60.0573883  70.7471771  43.4845161  59.7942848
  71.3183212  44.4227676  60.8356590  84.9469299  32.3258553  77.0509872
  84.4137955  31.8096142  76.4464340  85.8497849  32.1373978  76.7949448
  16.5311565  68.8280258   2.1843555  16.8881416  68.2796478   1.4857339
  16.5547104  69.7159424   1.8275882  58.6310959  42.4042854  80.9944916
  59.3921013  42.0164566  80.5624161  58.4511986  41.8209839  81.7318115
  62.6384201  32.2477875  86.4148483  62.8156281  31.8838615  85.5474396
  63.4944382  32.2758751  86.8422470  51.4920006  58.9483261  23.0135403
  51.7163200  59.5813637  22.3315010  51.9894562  59.2350464  23.7794132
  42.2214279  53.4164658  56.8232918  42.6134720  52.8088417  56.1961365
  41.3237267  53.5349236  56.5129128  46.4163780  18.0840969  67.5481339
  46.5700493  17.2728119  67.0639496  46.4977913  18.7746849  66.8903351
   3.2089698  35.1523590  14.8961401   3.9811449  34.6698189  14.6009598
   2.8509922  34.6200409  15.6065750  64.5031586   6.1355643  47.2184944
  64.9295578   5.7613821  46.4475212  64.9822464   6.9469171  47.3870506
  78.4332657  27.0801907  81.2192459  78.2842865  27.8769512  81.7283707
  79.3510818  27.1342468  80.9529190  60.0774727  14.2617817  56.1389160
  60.3745766  13.3519573  56.1522827  59.9514313  14.4589691  55.2107658
  30.6218109  30.8983231  12.8952179  30.8291988  30.9214458  11.9610405
  30.8718338  30.0175209  13.1743364  52.2252693   2.0151894  68.6400909
  51.5849648   2.7060602  68.8102036  52.8678894   2.1056828  69.3437119
  85.2813339  11.4499846  22.7310486  85.0338669  11.6402302  21.8261738
  84.8853912  10.5978327  22.9135323  18.2981796  69.3018112  30.3266010
  18.3489170  70.1266861  30.8095455  17.8686504  68.6964493  30.9309788
  16.0568256  20.6628532  24.5041332  16.2275505  20.9355431  23.6026192
  16.3293896  21.4104252  25.0361824  33.4949722  58.3370667  23.7811375
  32.9772758  57.8286209  24.4054050  33.0788193  58.1727371  22.9349442
  66.3348007  67.2143021  57.0632896  66.6630630  67.0244675  56.1844063
  66.4039230  68.1655426  57.1445007   7.9101992   6.7342763  62.9263306
   8.3606548   5.9856577  62.5353165   7.9719605   7.4232521  62.2647209
  82.6977921  44.3268204  32.7261620  82.2096863  43.7776718  32.1126328
  82.0629120  44.5470238  33.4078331  73.6368179  23.7604370  14.7570095
  72.7158585  23.6662102  14.5137196  74.1189957  23.3916893  14.0169020
  84.5146713  40.1539574  81.5006332  85.4120407  40.2053185  81.1715240
  84.5499496  40.5756226  82.3592300  14.7413311  66.5369186  77.2891998
  15.2494278  65.8684006  77.7487106  14.9443417  67.3509369  77.7500687
  49.5667801   9.6850204  29.8946209  49.9207878  10.4552250  30.3392525
  48.7241821   9.5285187  30.3209591  78.5600662  31.4108734  65.1998901
  77.8827744  30.7358742  65.2433319  79.3787613  30.9232254  65.1095352
  85.7041702  48.6685028  73.7654495  85.8938675  49.1580734  72.9650955
  84.8400269  48.9782906  74.0365829  13.5438623  70.6609192  16.3046360
  14.1644964  70.5489273  15.5845652  13.7835512  69.9818573  16.9352303
  65.8281708  17.4505634  66.9361191  66.2822495  18.0192413  67.5579300
  66.5300827  17.0302792  66.4392242  27.1921749  64.6147842   7.6825013
  26.5896816  64.0646667   8.1831064  26.8512974  65.5027390   7.7900600
  27.1099358  58.3175926  43.6632462  27.5225773  58.9421463  44.2598114
  27.6078320  58.3985901  42.8497543  64.4277725  59.8672981  50.4207726
  64.2429047  59.5737076  49.5286636  65.3149185  60.2240181  50.3765259
  14.1980438  55.5940514  78.8013000  13.4247780  55.3481255  78.2935486
  14.1102467  56.5386200  78.9290314  41.8871231   0.3729273  26.6558571
  42.5592651   0.2942355  27.3328114  42.2547760  -0.0835491  25.8990917
   1.9959996  16.5714378  65.0144196   1.8700624  15.6439734  64.8139648
   2.8927467  16.7570744  64.7358246   5.5724926  29.8991890  49.3878441
   4.7667236  30.1638222  49.8316231   6.2497959  30.4593010  49.7670097
  84.0424042  10.9486609  73.2705841  84.6212463  10.2040300  73.4339752
  84.3759308  11.6410275  73.8412170  18.7694244  48.1440659  29.0185509
  18.0814342  48.8094368  29.0322361  18.6594028  47.6688042  29.8421097
  47.7306213  23.3222389  62.0597267  47.3435555  23.8540173  62.7551575
  48.0505142  23.9593143  61.4209518  79.6989899  47.6381416  79.2345352
  80.0933304  47.0365105  78.6030502  79.0521698  48.1281357  78.7268372
  47.3922729  64.1333084  11.5460224  46.9487915  64.7343140  10.9474001
  48.1914177  63.8808899  11.0835466  63.7783394  21.4199848  22.3174229
  63.4181595  21.4392834  23.2040634  64.0872345  20.5211391  22.2038975
  75.1801834   2.4444959  38.9159470  74.8952026   3.0776362  38.2570419
  75.6399002   2.9704018  39.5704041  42.6739731  57.7597847  27.3708382
  42.1337433  57.7714386  28.1609306  42.1314926  57.3199692  26.7162323
  15.3234406   5.5041595   2.8087423  16.0209923   5.2599540   3.4170327
  15.5097799   5.0009003   2.0161264  75.4931335  51.7828445  31.7043228
  75.2705154  50.8910904  31.9716244  74.9417572  51.9483528  30.9395866
  70.4865417  11.7784281  79.9500580  70.5812225  12.4612408  80.6141663
  69.8131638  11.1952934  80.3004074  22.5916176  40.0855103  13.9268961
  22.1362667  39.8993073  14.7480030  23.0767555  39.2830467  13.7347469
  53.7794266  21.2840443  27.1536446  54.1399155  20.4568653  27.4731064
  54.4946022  21.9120941  27.2551823  14.4101238  47.9452362  54.1849174
  13.8790770  47.4528084  54.8108063  14.8689251  48.5941505  54.7184410
  74.1172562  50.7639847   9.4297895  74.3158722  49.8305435   9.5037899
  74.9467621  51.1655922   9.1712103  64.0906754  39.2447395  10.6648293
  63.1754684  39.2457504  10.9452229  64.3118362  40.1707535  10.5657301
   0.3965382  35.3228683  25.1307659   1.3060019  35.4240646  24.8499317
   0.4486180  34.7885628  25.9232521  75.7243500  52.1624298  78.9570847
  75.8731384  53.0590630  78.6568527  74.7736206  52.0937424  79.0444260
  75.2196121  18.1333122  49.8337364  74.9453506  17.3702011  49.3251381
  74.5270386  18.7782860  49.6902390  68.8320007  12.8011169  77.9694214
  69.5008240  12.3664389  78.4985352  68.8806610  13.7208271  78.2301788
  51.7178688   5.9703827  53.3145180  52.3182526   6.6961799  53.4847717
  51.8249817   5.3892579  54.0675468  28.5889931  40.8052597  15.7814989
  28.9172249  41.6796875  15.5720463  28.4559708  40.8200340  16.7292957
  75.6541214  50.1269112  58.7736092  75.6489334  50.1052513  59.7305489
  75.3764954  49.2488098  58.5126534  10.1439857  51.8851204  48.9006271
  10.8291187  52.0534019  48.2537041   9.9230309  52.7500610  49.2460022
   0.6958553  22.8703537  37.6781044   0.5326319  23.6877499  37.2075195
   1.1912457  23.1350307  38.4531975   5.7347779   2.0269992  40.6276703
   5.0852084   1.3282782  40.7056465   5.3205895   2.7859917  41.0382919
   3.6432912  48.1956062  47.2448273   4.1001506  48.8417397  47.7833672
   4.2655215  47.4734802  47.1576576  71.8641739  52.7817764   0.9204949
  72.2661591  53.5587158   1.3090887  71.8076248  52.1551514   1.6418657
  81.6052246  14.0598869  23.5390377  81.5436859  13.1718168  23.1872196
  82.5256195  14.2982121  23.4281101  45.0993233  56.2999496  33.7109604
  44.2737732  55.9050751  33.4302940  45.5864983  55.5787773  34.1094589
  37.1964722  46.9403343  83.0005112  36.6308022  46.3539314  83.5028839
  37.7986069  46.3559036  82.5399628  70.3936234   6.1822820  36.9160690
  69.7646942   6.2486677  37.6345901  71.0601501   6.8383789  37.1198006
  16.3981953  20.9259815  13.3250074  17.0839806  21.1876621  12.7106333
  16.7816429  21.0743980  14.1893997  29.7683544  53.2639580  88.2572403
  29.0090733  52.7615433  87.9617691  29.4394188  54.1569748  88.3599625
  17.9348965  65.4061279  29.9987373  18.0451756  64.7217560  30.6588211
  17.8760433  66.2177582  30.5027428  29.3765717   8.1761017  70.6634216
  30.1637726   8.7129354  70.5720062  28.6817799   8.6999512  70.2645798
  77.9554214  19.6289616  37.3096924  77.0626526  19.3716335  37.5398521
  78.0474701  20.5146465  37.6608658  13.9104395  70.6731033  29.2955036
  14.5806856  70.7536240  28.6168880  14.1159792  69.8499527  29.7386742
  77.7154770  26.2621517  37.1617546  78.6570129  26.3445835  37.0102692
  77.6073761  26.4344997  38.0970840  75.8986893   1.5639766  11.0378017
  76.5140991   2.2948420  10.9799738  75.0498199   1.9774851  11.1948547
   4.2233882  58.7931175  49.9568481   4.1359835  58.8762779  50.9064140
   3.4791236  59.2808990  49.6041870   4.8516517  66.5132141  82.0116577
   4.3218942  66.2134857  81.2729034   5.7310514  66.6185684  81.6486282
  35.2748070  37.2388878  85.3721848  35.3048553  38.0444908  85.8882523
  34.3703079  36.9362640  85.4530106  61.0724487  23.5278721   2.4567657
  61.9514427  23.5116539   2.8353646  60.4901085  23.3514633   3.1956785
  82.0893097  15.8686819  41.6387749  81.8146896  14.9595852  41.7586021
  81.4116287  16.2522049  41.0820923  29.2164631  62.6898880  54.4582710
  29.6117249  63.5395241  54.2630272  29.8383389  62.2667961  55.0502968
  38.6330910  68.9371567  74.9351654  39.1363754  69.7438583  74.8248062
  39.0685272  68.4796982  75.6544418  12.7556458  23.2308235  71.4911499
  12.9924459  22.3062630  71.5642548  13.5532246  23.7021103  71.7319641
  46.3813400  53.4738083  82.5037155  45.6583176  53.8098717  81.9740677
  46.1981239  52.5385857  82.5932770  22.4572639  43.9454079  32.9346428
  21.8377380  43.8095398  32.2177315  22.1194706  43.4049034  33.6487732
  48.6630440  71.0200806  85.6475601  49.2637177  70.6263046  86.2803040
  48.5187263  71.9079590  85.9748001  66.5099411  44.5594940  18.8637009
  66.1397629  44.9205284  19.6692142  67.4458923  44.4766197  19.0463543
  48.0022430  69.7096252  81.0654755  48.0511322  68.8556442  81.4950638
  48.1389427  70.3411636  81.7716675  20.7067909  49.0368195  36.8489456
  21.4227638  49.5681000  36.5005836  20.6820488  49.2502594  37.7817192
  79.4863434  40.3494568  18.2228336  78.8564301  39.7343445  18.5984440
  79.1652527  40.5090446  17.3353291  29.6155930  54.1142578  24.0323009
  30.0723286  53.3348427  23.7158527  28.7870579  53.7824364  24.3782158
  70.0159836  15.7197838  11.7976131  69.7228775  16.0512505  12.6464081
  70.9686203  15.6693516  11.8761654  15.4633455   2.2147808  54.7176628
  15.7331638   1.3157188  54.9050560  14.5860596   2.2849529  55.0940628
  33.7901764  23.8975773   8.6451254  33.8284988  24.6104832   8.0075293
  34.6489258  23.9078808   9.0678282  37.7758522  53.3447227  83.4771652
  36.8685722  53.0578346  83.5809479  38.2275009  52.9930611  84.2443542
  77.0231781  18.3692989  31.8197441  76.4877243  18.9689293  32.3393250
  77.8657913  18.8149738  31.7325153  26.0849113  13.6460571  18.2278957
  25.4683838  12.9460735  18.4427128  26.2288990  14.1013489  19.0574799
  52.3815079  16.9959984  54.2182045  52.2141151  17.9085579  54.4536667
  51.9499893  16.8841782  53.3711357   1.0387464  56.9609337  83.4945984
   1.7050246  57.6462784  83.5456543   0.2071126  57.4348679  83.4951401
   5.7800007  23.9106598  34.0282097   5.0138516  24.4298592  33.7839165
   5.9214039  23.3270302  33.2828140   2.5203674  29.6096916  55.8881989
   2.4621580  29.1676350  55.0411835   3.4597132  29.7135010  56.0401344
   0.8576437  12.9547482  68.3190536   0.8095915  12.5440960  69.1823578
   0.1747375  13.6252956  68.3344421  75.3125992  28.2433071  65.0636063
  74.6863708  27.5537949  65.2841797  74.9628067  29.0283146  65.4850769
  67.9619751  60.9225731  33.3983192  67.0790405  60.6780472  33.1210747
  68.3482361  61.3389816  32.6278419  22.9126759   6.7798023  21.8900013
  22.4797249   6.1759462  21.2865582  22.2873821   7.4958220  22.0020409
  78.1830292  27.5772228  78.1145706  77.6614609  28.2246971  77.6402588
  77.5670853  26.8716526  78.3120804  20.8321877  55.3665504  65.4539719
  21.7763596  55.2169533  65.5028763  20.5888233  55.6510582  66.3349152
  18.2343788  15.7130251  17.6396809  18.8540783  15.0115099  17.4394779
  17.8654728  15.9562721  16.7905807  60.9821129  58.7113762  13.8079920
  61.4020195  58.1558456  14.4647255  60.0442734  58.5952492  13.9603090
  60.4830284  23.4519978  47.2665710  61.0776939  23.0914516  46.6088409
  59.7812691  23.8582878  46.7579460  76.5862198  57.2223701  71.8668213
  76.4919510  58.1404839  72.1206207  76.2510681  56.7309456  72.6167603
  78.2769623  46.2408257   4.5054808  78.6856384  45.3856773   4.3715553
  77.6416931  46.0955276   5.2065873   5.8860292  55.0645523  44.9153862
   6.7854786  55.0060844  45.2375717   5.6115050  54.1542282  44.8050003
   3.0234451  68.9162064  64.0442505   2.4676440  68.1426697  63.9496078
   3.5523472  68.7374268  64.8217697  19.1534691  65.4503784  60.6325951
  18.5607929  65.7017670  59.9242363  18.9010544  66.0108490  61.3663445
  13.2906265  48.5378113  86.8652878  13.3353510  47.8040886  87.4783783
  12.4087753  48.4882431  86.4963531  64.4009476   6.3603334  28.6242409
  64.6349945   7.0554299  28.0091839  64.8528519   6.5954289  29.4346390
  23.4351292  50.6481400  54.4286385  23.8116646  50.1923981  55.1814690
  22.4888859  50.5767632  54.5541725  11.9379082  43.3579521  82.4910049
  11.9731073  43.2695045  83.4434586  12.1930485  44.2654877  82.3251419
  31.5583477  30.0181427  16.5341759  31.8972664  30.4177265  17.3352375
  32.0640259  30.4254284  15.8308706  79.7587891  12.5498905  16.1528625
  79.5420761  13.0651922  16.9298630  80.0205154  13.1992645  15.5001421
  45.5759468   5.6263504  68.5288315  46.0107536   5.1928506  69.2631683
  44.6429291   5.5675836  68.7343903  14.1551590  20.4052486  77.0871582
  13.5207138  19.7522621  77.3826523  13.7241964  20.8428249  76.3529663
  16.6365547   9.9773951  86.1419067  16.5048008   9.0344801  86.2408218
  16.8785191  10.2785959  87.0176697  69.7615051  19.3526592  50.1374855
  69.9962311  19.9848461  49.4581642  70.5674667  18.8612499  50.2961426
  20.5672226  32.9419708  64.9698639  20.6574574  33.4813042  65.7554932
  20.9932327  32.1153297  65.1966019  53.1884995   4.3984652   7.1268802
  52.4545212   4.0492697   6.6213393  52.7932358   4.7034907   7.9435544
  74.7474518  48.1554413  17.9634857  75.2807922  47.3705940  17.8377953
  73.8504639  47.8642502  17.7996101  19.9652100  44.7551765  39.5277977
  20.0052185  45.2816620  38.7293930  20.3185215  45.3267059  40.2095299
  23.6292591   5.5476270  11.4068041  23.6135311   4.6906695  11.8329601
  24.1204510   6.1058836  12.0095568  29.2112350  10.9736986  79.5310364
  29.6572094  10.8562088  80.3698044  28.8899021  10.1005154  79.3062515
  67.1845322  30.5902786  59.6821213  67.1400070  31.0175514  58.8267326
  66.6853256  31.1644573  60.2629318  68.6924362  28.2806377  59.7293205
  68.0843201  29.0177650  59.6738930  69.3004150  28.5236874  60.4275475
  68.5306015  60.7715530  56.9372559  68.4510422  61.0889206  57.8367996
  67.6779480  60.9542656  56.5425186  70.4454575  56.6098557  43.5384636
  70.4060287  57.5609207  43.6392288  70.7293549  56.4763832  42.6341286
  47.0153351  32.5658226  43.3617744  46.7600327  33.3874969  42.9423637
  47.5794640  32.8325729  44.0876083  18.0939655  32.0887527  16.9630928
  18.9214401  32.3046188  16.5330696  18.3518353  31.7284889  17.8115883
  64.9276962   6.8871732  80.8786774  64.5692139   7.3053122  80.0958099
  64.1745377   6.7812977  81.4598618  37.1221581   2.8694551  22.9726772
  36.1977119   3.1014779  23.0609951  37.5864410   3.5409882  23.4723911
  34.6441727  49.9961281  53.0889854  34.2408180  50.1590767  52.2363548
  34.4225578  49.0866470  53.2889023  62.2492905  35.7241631  70.5643997
  62.8056297  36.0579796  71.2681656  61.7829285  36.4952126  70.2415695
  74.4220428  46.2149124  15.3331804  73.5318527  46.0649529  15.6514645
  74.8313828  46.7526283  16.0110722  41.7498932  17.3150024  81.2584610
  41.2407112  17.1422844  80.4665451  42.3416023  18.0260410  81.0124283
  29.7028599  49.2546921  39.4843750  30.6362629  49.4651566  39.4580002
  29.2952938  49.9006310  38.9074135  47.2859879  41.1684074  37.6517677
  47.4026794  40.3242302  38.0876312  48.1766167  41.4821548  37.4950027
  36.8979378  51.8632774  80.6727295  36.3728905  52.5779419  81.0330276
  37.5339928  51.6635017  81.3595734  85.1015930  31.7886162  83.0803680
  85.4652863  32.2933884  83.8078003  84.4927979  32.3903732  82.6520157
  20.8288994  65.8256454   8.2650852  21.6859531  65.4940414   8.5329084
  20.2200546  65.4631958   8.9086456  38.9473495  62.3407478   5.9720173
  39.2827835  62.4986992   6.8544950  38.0574799  62.0156441   6.1086588
  21.8303928   2.7506974   8.9670210  21.2809410   2.4177554   8.2574539
  21.8490562   3.6980233   8.8311644   7.3922563  40.6415749  41.1449165
   8.0827103  41.1971283  41.5066681   6.9728460  41.1847000  40.4775772
  10.9845400  55.7216530  44.8468704  11.6636839  55.1550522  45.2128754
  10.5050850  55.1588631  44.2389030   4.4693766  13.7912149  76.7932968
   4.7111850  14.6932716  77.0031891   4.1195083  13.8378763  75.9035568
  85.1187439  45.4794235  83.9162903  85.7613754  46.1883507  83.9424362
  85.5891037  44.7441483  83.5233994  28.3632050  46.8894005  39.6483078
  27.4219627  47.0329285  39.5498390  28.7239933  47.7627716  39.8008842
  52.3223419   1.1615480  26.3247128  52.4097481   1.9611082  25.8057747
  51.4845161   0.7885142  26.0506287   9.4612951  66.7938919  15.4512224
  10.0211782  67.0353088  14.7133322   9.0646391  67.6189346  15.7308769
   1.2182034  64.7879944  58.7884102   1.1523123  64.6163788  59.7277908
   2.1563616  64.7475891  58.6027794  47.0381584  39.1716080  28.9827595
  47.2509041  39.9651947  28.4916420  46.1805191  38.9068375  28.6502190
   2.8534200   2.1762166  56.0365372   3.0956240   1.7980416  55.1912270
   3.4992182   1.8253280  56.6497688  22.6562939  22.4359055  68.9765320
  21.9539452  21.8634071  68.6680145  22.5541191  22.4488754  69.9281769
  37.0845833  16.8718529   5.9328523  37.9389725  16.4425945   5.8883033
  37.2558289  17.7746162   5.6646643  77.7884369  48.7689896  48.3622932
  78.5485153  49.3482323  48.3076401  77.1831512  49.1050835  47.7013130
  78.6513214  67.1387558  71.7020493  79.1653671  67.7865601  71.2200394
  79.0982285  67.0571136  72.5445709  74.5632553  62.2589188  48.3815193
  74.2402039  61.4071312  48.6753387  75.5148849  62.1950455  48.4623871
   5.9416995  11.6264038  85.4623108   5.0830235  11.4536953  85.0762024
   5.7534604  12.1529770  86.2391739  40.3436050  54.7550659  82.9440460
  39.4604607  54.3861160  82.9568634  40.2509270  55.6127167  83.3588638
  24.7654572  20.5591602  86.9796906  25.6068630  20.8991756  86.6753006
  24.9277077  20.2938080  87.8849487  86.9348068  15.6555967  82.9927216
  86.3770905  14.9618769  82.6406784  86.6959686  16.4337120  82.4890060
   3.8358088  37.9730186  52.6760979   4.7588859  38.1679916  52.8377953
   3.4807928  37.7618294  53.5395775  46.2384605  49.3342896   1.2340178
  46.3738556  50.2756462   1.3424119  45.2881317  49.2239227   1.2644875
  35.6948967  10.2919226  10.0142460  35.4046211  10.4793262  10.9069109
  35.0669556   9.6470366   9.6886082  25.3013382  62.0364990  51.0421944
  26.0282612  62.3365707  50.4965096  25.6774654  61.9551239  51.9186325
  19.7042522  51.4652481  14.6984873  20.2082386  52.2376938  14.9545202
  20.3291988  50.9185524  14.2222519  52.9673576  16.1683712  25.4386616
  53.0162735  17.0757351  25.1377792  52.9558830  16.2329826  26.3936100
  58.3013611  18.9584084  82.4996948  59.1490250  19.0613823  82.0671539
  57.7796059  18.4430561  81.8845367  67.8974380  18.6388912  44.8777161
  67.6161270  17.7487526  44.6661797  67.4126740  19.1946602  44.2675095
  50.0590591  32.0972252  88.7288971  49.6501198  32.9601250  88.7952957
  50.2267990  31.8412476  89.6358566  61.3509827  16.5718193  26.2414989
  61.0907631  15.9935160  26.9584961  62.2208481  16.8847160  26.4898186
  74.4289246  46.1256943  74.2576294  74.4707947  45.3303413  74.7885590
  73.5053711  46.2062492  74.0193176  71.7224045   0.7068561   5.6781650
  72.6564636   0.6902530   5.8866897  71.2863235   0.6775202   6.5297551
  42.1522369   3.5738652  20.8491116  41.6252670   3.2081261  21.5595818
  42.9814453   3.0980518  20.8965225  54.4818459  16.7138863  37.4579353
  54.4994583  15.7843256  37.6856117  55.3869171  16.9205589  37.2247658
  54.9145966  13.9578533  38.1702652  54.3389587  13.9327621  38.9346237
  55.1733704  13.0462360  38.0352821  23.2102261  17.4847145  76.7354736
  23.1702061  16.6945877  77.2742920  23.1810246  18.2054462  77.3647003
  39.3709412  41.9292870  43.3077049  38.9994774  41.8374176  44.1850929
  38.7809639  42.5357857  42.8601303  45.5817299   1.5783409  59.3701897
  45.6532631   2.0742059  58.5545731  46.3842201   1.7869037  59.8484612
  46.1197929  69.2396088  36.5752716  45.7241516  68.9246902  35.7625427
  45.6844826  68.7371674  37.2639580  33.2956352  52.1394577  32.2580147
  34.2329369  52.3044357  32.3603706  32.9048119  53.0107880  32.1926384
  62.3508835  43.8006401  51.0191307  62.5028038  43.0062714  51.5311127
  62.4820862  43.5288734  50.1107483  79.5305481  41.2937851  82.2631378
  80.4009399  41.2070808  81.8743744  79.5117722  40.6353645  82.9576645
  33.5682564  23.7140656  89.0388107  33.3820724  24.3859730  88.3829803
  32.9344940  23.8787155  89.7369919  82.1426773   6.6542301  16.1891479
  81.7370529   6.6660414  17.0560741  83.0315933   6.9773784  16.3362083
  68.9626541  39.7104530  60.1254387  68.9344788  39.0863075  59.4002609
  68.1794510  40.2483063  60.0090828  47.8123817  34.9638634  57.6816826
  47.7393341  34.7305336  58.6071281  46.9172249  34.9035416  57.3480835
  68.2212982  10.6087151  40.6506996  68.8118820  10.8669891  39.9430695
  67.8454056  11.4323044  40.9615631   5.9132648  66.5004578  51.6927261
   5.7110872  66.9202957  50.8566093   5.0649538  66.2059021  52.0241432
  61.7085075  43.3680382  12.2656612  60.9078484  43.8804703  12.3778687
  62.2635155  43.6267204  13.0013809  64.4067078   5.2514944  49.6693153
  64.2759628   5.2952743  48.7220993  63.7903252   4.5817208  49.9654732
  81.4037704  44.5559959  17.7493725  81.2779312  43.8882904  17.0751591
  81.4893875  44.0606842  18.5639687  77.2149506  34.8263206  86.0241928
  77.9131699  35.4605598  85.8614883  76.6808929  35.2285080  86.7092209
  32.5068741  55.6776085  41.6101074  31.9231911  56.3971519  41.8505325
  31.9434547  54.9038124  41.6045494  79.3601761  54.8448944  32.1613808
  78.8092041  54.1798668  32.5741844  80.0188980  55.0548134  32.8233871
  21.0644951  52.9319801  80.3798676  20.1948948  52.9191666  79.9800415
  21.5284328  53.6328011  79.9217758  75.9215393  49.4741745   6.6175256
  75.4095154  50.0214958   6.0221233  75.3280945  48.7631149   6.8592811
  61.5148544   3.4177918  17.2606831  60.8303413   3.3025663  17.9197712
  61.2323189   4.1780310  16.7523117  39.6715088  13.7726088   4.1562686
  40.3781662  13.1271858   4.1735487  40.0570526  14.5602112   4.5400290
  83.3153152   8.8331060  45.2632675  83.6413498   9.6904364  45.5369759
  82.3631668   8.9072447  45.3276176  52.3498802  15.7153902  59.1498947
  52.8034172  15.0413036  58.6437874  53.0506363  16.2721233  59.4893379
   1.7727306   0.8833702  83.2214432   1.3065923   1.6771352  83.4839020
   1.6811289   0.2933719  83.9696045   1.1151733   0.3262934  35.7403374
   2.0061877  -0.0031315  35.8578300   1.2301900   1.2390686  35.4760551
  17.3371086  29.8682842  87.4943314  16.9012012  30.4001961  88.1601334
  16.7798996  29.9495163  86.7202835   0.7299594  21.6962547  68.8118820
   0.2586713  21.3806171  68.0408478   0.3518656  22.5578785  68.9876099
  50.3278809  44.1169968  79.6700974  50.7798996  43.2875557  79.8248367
  50.6983566  44.7161903  80.3181305  63.5331230  46.8944283  78.9046402
  63.7700729  47.6795502  78.4110184  62.5844879  46.9582901  79.0152893
  57.7420502  34.6107903  48.3280373  57.3762360  35.2219543  47.6885910
  58.3080368  34.0356903  47.8131104  61.2853928  49.1819801  38.0510483
  60.8153038  49.5185699  37.2881851  61.9943581  49.8095512  38.1915970
  68.0803833  61.4488716  59.6785736  67.7810364  61.9596367  60.4307327
  67.4675522  60.7153130  59.6280060  40.6747856  53.1142540  59.6124802
  41.6223946  53.2373314  59.5566292  40.4281235  52.7625008  58.7571106
  75.3918457  62.9278412  73.7816925  75.4399796  62.5478020  72.9044952
  75.1184082  63.8334618  73.6356964   4.1422315  46.9505844  84.1870117
   3.5659471  47.6865540  83.9809113   4.2600179  46.4974976  83.3521042
  30.7535534  41.6307373   2.2386589  30.8727036  41.8487244   3.1630604
  30.4538307  40.7216873   2.2436459   7.5662689  52.7128181  22.4671364
   7.1755867  51.9182014  22.1035709   7.2217221  52.7627792  23.3587761
  77.1273117  22.7926884  24.0308571  76.7081909  22.9310265  23.1814861
  78.0552063  22.6800709  23.8245621  19.5555134   3.5180366  22.7144737
  19.6236305   4.4727106  22.7007027  19.7299919   3.2785707  23.6246624
  28.9427700  63.5894508  61.2895966  28.0510197  63.4531479  61.6096535
  29.4282875  62.8254242  61.6006699  31.1691704  42.3432541   4.8382382
  31.5348396  41.7967453   5.5338278  30.3377743  42.6580772   5.1930590
  51.4751320  55.2540665  60.1710472  52.3888931  55.4316673  59.9480553
  51.4211998  55.4219398  61.1118698  15.6900988  45.8706322  86.7990723
  16.3498611  45.5666962  87.4224243  15.6245155  46.8119774  86.9596863
  12.0026169   8.3034630  85.1192017  11.7851782   9.1960936  85.3878326
  11.1627121   7.9162922  84.8724365  69.1338577   5.9986868  65.1678543
  68.2710724   5.7811666  64.8149948  69.7021942   5.2908154  64.8642960
  66.3433228  57.3731270   4.5597086  65.4196930  57.3494186   4.8098807
  66.4257202  56.7004204   3.8837621  81.1001740  64.5118103  33.7249451
  80.5615082  63.7230453  33.6623344  81.1754456  64.8226776  32.8227654
  21.4167538  10.3236923  74.6409836  20.6809883  10.6964998  75.1266785
  21.0619640   9.5298014  74.2408676  66.6995468  41.3672409  59.6918335
  66.2584305  40.5966568  60.0493889  66.2495270  41.5385208  58.8645668
  85.1440811  17.6199665  28.4706745  85.9840927  18.0402737  28.2863884
  84.8268738  18.0553799  29.2618942   8.3736944  15.0514202   5.9599771
   8.7685938  15.9200430   5.8839412   7.9963069  14.8834696   5.0964937
   6.6117463  16.3018684  51.4726219   6.3533545  17.2235298  51.4744453
   6.4128079  15.9991026  50.5866280   0.1680311  15.0380793  63.1959267
   0.5964075  14.5084925  63.8684311  -0.2818949  15.7273922  63.6844406
   4.2531476   4.9872437  62.8005753   3.5610368   4.5104680  63.2587242
   4.8688617   5.2365551  63.4897575  69.0161285  39.5668411   8.4637995
  69.0696106  38.7352180   7.9928684  68.6530533  39.3351059   9.3186150
  57.1008873  15.9129725  54.7399559  56.2814484  16.1085472  55.1943779
  56.8720589  15.9405794  53.8109207  78.0431442  58.2541771  83.5435410
  78.2568665  58.3055382  84.4751587  77.9772797  57.3162231  83.3642731
  59.1075897  65.4470444  64.6186523  58.3276939  64.8927536  64.5911026
  59.1009331  65.8263397  65.4974670  43.8491287   7.6866684  85.2936935
  43.8133240   6.7678514  85.5596313  44.7745361   7.9207320  85.3649063
  17.1765175  45.4597092  43.3592911  16.4107056  45.8360023  43.7930756
  17.8881359  45.5721893  43.9895134  64.3683624   6.7277250  52.4885254
  65.2858658   6.4554715  52.5060730  64.1061707   6.6272321  51.5734367
  75.8479614   2.8312232  56.3168755  76.5827713   2.4809062  56.8204231
  75.7768097   3.7429204  56.5996780  59.6072121   6.3111873  16.1660881
  59.0768394   6.8460512  15.5754490  59.0474968   6.1708980  16.9298096
  32.7880936  47.9679832  60.1685753  33.3594437  48.2950859  59.4737396
  33.1262550  48.3729668  60.9672432   5.8305845  12.7608404  27.8601742
   4.9086576  13.0101891  27.9242706   6.2033610  13.3808117  27.2333527
  44.6050491  65.3341141  54.3114548  44.4518738  65.9171371  55.0549965
  44.8803596  65.9163208  53.6033096  70.7211838  67.6832733  62.8202629
  70.1781693  67.6260147  63.6064453  70.6556778  68.5992279  62.5501213
  66.0604401  56.7938919  34.6048241  66.6165085  57.5666924  34.7038078
  66.0980072  56.3609619  35.4576988  63.5539551  42.0662766  48.1205330
  63.5090141  41.8197861  47.1967049  63.4799385  43.0206070  48.1176643
  50.8181000  40.0087013  39.0261917  50.1269569  40.4733658  38.5543480
  50.3511963  39.4662170  39.6617546  78.8849106  52.7066612  50.8110733
  78.4874878  52.6294594  49.9437065  78.7634430  51.8440666  51.2078247
  76.7367172  32.8681717  52.2671700  75.7819290  32.8312645  52.3241463
  77.0158615  31.9546947  52.3293648  11.6294928  46.4490814  76.0428925
  11.3699284  46.3060417  76.9530563  11.1664295  47.2458649  75.7841644
  58.8293304  22.4917145  77.0623322  59.2311516  23.2804718  77.4265289
  59.4067764  22.2395897  76.3417664  65.8259659  64.0299149  52.3566818
  66.3206863  64.2997894  51.5829544  64.9620514  63.7943687  52.0184402
  55.9248428  12.9602518  80.6117172  55.9431686  13.8859129  80.3687134
  55.7805023  12.9638395  81.5579605  68.6856995  49.2729721  54.7578850
  68.3352890  50.0561180  54.3334770  69.2481155  49.6098442  55.4553413
   8.5499830  39.3051910   0.0238551   8.3556967  39.7961159   0.8222755
   7.7329521  38.8514824  -0.1831310  10.8597851  14.9590340  82.6753082
  10.0025625  14.5772266  82.8640518  11.0161438  15.5660543  83.3987122
  29.9681664  56.3660965  22.4818439  29.8319530  55.6654892  23.1196766
  30.9193058  56.4289703  22.3945904  73.8282776  60.0719185  16.3357067
  73.9275131  59.2174606  16.7555656  73.4326172  60.6252060  17.0091801
  44.5740929  46.1195183   6.1393065  44.6384239  45.9223518   5.2048445
  43.6890488  46.4667625   6.2504482  55.8013611  62.8764915   8.4268379
  55.1963768  62.5299110   9.0826645  55.2347603  63.2559624   7.7551246
  66.2577438  35.8964386  49.4861832  67.1748123  36.0681877  49.2723694
  66.2757797  35.5967751  50.3950882  80.1436081  14.3781357  40.1068001
  79.5082474  14.9104719  39.6280823  80.7349014  14.0458221  39.4314003
  67.0840530  68.7386093  54.3407822  66.8516312  67.8127136  54.2705727
  66.9933701  69.0765457  53.4498215  35.9079208  59.5302353  45.9200859
  36.2907944  59.8019753  46.7542305  36.2339363  60.1700478  45.2871666
  84.6705780  28.7630653  34.3651390  84.0676117  29.2420425  33.7965889
  84.3871765  28.9814968  35.2529449  60.6645393  55.8591003  32.7008095
  60.6833878  56.8107452  32.5995674  61.5843658  55.6093559  32.7890129
  36.6698074  25.7868633   5.0572410  37.0420647  26.4514122   4.4775586
  35.9712639  25.3835945   4.5418391  57.0150070  24.0376892  84.1584549
  57.8455315  24.2736168  83.7451859  57.2460976  23.8437080  85.0668640
  28.7370758  13.5915785  80.1637726  28.7613125  12.7072487  79.7982483
  29.6044559  13.7152729  80.5492401  48.8480225  34.5351715  69.8980103
  48.2351723  34.1582184  70.5293274  49.6675529  34.0643005  70.0492706
  10.4392462  66.9937363   6.2904897   9.5317650  67.2487564   6.4568481
  10.8854265  67.1381226   7.1249394  59.0117683   1.5837917  83.5966568
  59.4820862   2.3415146  83.9443436  58.7956429   1.0610482  84.3688354
   8.2083035  23.2998562  76.5465469   7.5378747  23.4815521  75.8879547
   8.2800312  24.1132412  77.0460358  77.5201645  58.3477211  65.7959137
  78.0782318  57.7143402  65.3446732  77.8220367  58.3286743  66.7040634
  29.5247860  36.0294609  10.2325544  29.9117317  35.6922836  11.0405254
  30.2663536  36.3826103   9.7410336  24.1739960  65.2963562  12.6682835
  24.5493317  64.5419617  12.2141504  23.4962826  64.9236145  13.2321939
  72.3921890  68.8551102  36.1818619  73.1980896  68.3598709  36.0352554
  71.6967163  68.2816010  35.8599434  72.5429688  18.5180340  54.4519958
  72.6529160  17.5805550  54.6109810  71.6357117  18.6066608  54.1599922
  68.1313477  67.3217087  36.7792778  67.1746750  67.3243103  36.7477150
  68.3962173  67.8978500  36.0622444  80.3877258  26.8287735  20.0144024
  81.3321381  26.8295650  20.1703472  80.2441025  26.0941696  19.4177780
   1.0193311  12.9077520  48.6995430   1.4520494  13.6539402  49.1145020
   0.2299724  12.7674561  49.2224808  67.1596603  35.9762230  16.9697418
  66.3649445  35.5408134  17.2780952  67.4185638  36.5441475  17.6954536
  61.6587563   5.9084935  28.0521832  61.3189125   6.7008433  28.4680176
  62.5804520   5.8797612  28.3088703  72.0184174  35.2853889  48.4845047
  71.2021408  34.7920113  48.5651550  71.7901535  36.0386810  47.9398193
  22.0431099  46.2585182  35.2623825  21.6921368  45.5106277  34.7789421
  21.2691631  46.7469139  35.5429344   9.1727648  67.2286148  42.3877335
  10.0884638  66.9875946  42.2476006   8.6953344  66.4012070  42.3270798
  50.8186836  20.3463936  85.6541595  51.3867493  20.7776337  86.2925644
  51.4216270  19.9668941  85.0148849   0.8303097  21.2101841   1.2834979
   1.3539289  21.2239361   2.0846632   0.3639003  22.0460510   1.2878231
  65.4139099  50.2365227  88.2469864  65.1947098  50.6424789  89.0856628
  66.1333466  49.6389732  88.4508972  43.4635887  61.1779099  40.5072594
  43.3731689  61.0901642  39.5583878  44.3708344  61.4542046  40.6368713
   6.0011997   6.6946197  72.0192337   6.9299412   6.7667837  71.7990952
   5.9574423   6.9174871  72.9491043   4.1748834  43.5433273  54.4768829
   4.3729401  42.6162186  54.6090775   4.2570252  43.6734505  53.5321350
  54.4153519  33.7712326  53.3632736  54.7254486  33.6062012  54.2536850
  54.5268059  32.9345284  52.9118996   5.2455020  40.5443382   9.2698851
   5.5221395  40.0112839   8.5245304   5.0970302  41.4146004   8.8999777
  63.6632080   2.0115063  78.6302872  63.3098259   1.1611340  78.3691025
  62.9367828   2.6218522  78.5037384  78.6129913   8.8478813  57.7295036
  78.1488495   8.0257483  57.8872910  79.2450256   8.9074125  58.4459000
   6.6072230  38.7763519  51.3093910   7.2025247  39.5024605  51.1233444
   7.1802478  38.0625305  51.5892715  74.8390350  31.1464825  45.1433220
  74.1460266  30.5407810  45.4061737  74.9188614  31.0231838  44.1974564
  41.0426674  17.8477211  12.5539179  40.6025505  17.0958271  12.9503794
  40.9855232  18.5357018  13.2169771  27.8743305  59.1614647  11.3007269
  27.2514820  58.5016251  11.6055326  28.0927639  59.6649818  12.0849380
  57.0992393  69.8358231  65.2183533  56.2905350  70.3096161  65.0240631
  57.7958260  70.4115219  64.9028091  10.0138655  41.3395119  18.2584515
  10.1681805  41.1103020  19.1749020  10.7215252  40.9066544  17.7808704
  81.2764969  68.1334457  37.5211029  81.2774353  68.2846375  36.5759163
  80.6264420  67.4432526  37.6526108  54.0266075   7.6932044  36.5247765
  54.3975945   7.6282153  37.4047623  53.0799789   7.6509771  36.6602097
  47.8905563  66.0310898  71.0976944  47.3792191  66.8119736  70.8855820
  47.7304382  65.4341202  70.3667908  65.7071686  60.4524612  14.7170305
  66.4629364  59.9026184  14.9237213  65.9458694  60.8904037  13.9000463
  66.2307281  70.2789841  56.9539337  67.1334000  70.4167175  56.6667976
  65.7067642  70.3964920  56.1615410  28.9086132   1.7550491  84.5175171
  29.4169941   2.5122864  84.2270432  28.8001404   1.2227913  83.7293701
  69.9227753  62.8245773  76.6074066  70.1477051  62.2823677  77.3634796
  70.1497040  63.7150688  76.8752823  15.6209478  59.7676964  67.5377121
  14.8132515  60.2062798  67.2703094  15.3380852  58.8999519  67.8262329
  53.5911407   3.0547979  44.8284111  53.4174843   2.5473406  45.6212311
  54.5299225   3.2385523  44.8624840  66.6143799  56.5376625  43.4386978
  65.7951813  56.9330521  43.1406975  67.2406006  57.2615509  43.4470100
  14.1599636  60.0106316  84.0815430  14.3580561  59.5619850  84.9035645
  13.2273941  59.8486862  83.9389954   4.9708529  50.4610291  48.4159470
   4.9493999  51.0644150  47.6731834   5.8733001  50.1428490  48.4400635
  47.1925240  36.9577522  79.1963348  47.6433220  37.2385864  79.9926682
  47.6958542  37.3525467  78.4842758  13.0981560  52.8097038  21.0990372
  12.7368660  52.3597832  21.8627625  13.4879980  53.6086426  21.4539337
  66.5337906  32.2444572  49.6030617  65.9191666  31.5636826  49.8769493
  66.6675568  32.0846024  48.6688309   1.4558227  49.0419922  68.3010406
   1.9257926  49.7549095  67.8684769   0.6980962  48.8790894  67.7393112
  71.5034866   3.1528332  59.6224594  71.6353378   2.2524376  59.3255806
  71.3459320   3.0741651  60.5633202   6.1444259  49.5438232  63.7113838
   5.6727381  48.8006897  63.3352242   7.0688663  49.3232269  63.5974617
  84.9742508   6.7771816  39.2306404  85.1155548   6.4150085  40.1053352
  84.9955368   6.0164227  38.6501007   9.9923983   0.1682160  66.1884842
  10.6400919  -0.5139952  66.3654404  10.3685770   0.9607395  66.5714035
  75.8903656  48.5562553   9.9081860  76.0592880  48.5063362  10.8490391
  76.7453537  48.7441406   9.5209761  23.2945957  68.3221283  75.7252274
  23.5322094  68.9664764  75.0584488  22.3407860  68.3780136  75.7831573
  77.4617157  11.7853193   7.3968740  77.0920639  10.9411354   7.6556115
  78.2643890  11.8634520   7.9124699  80.4837875   5.4130397  50.9049950
  80.4151764   4.7503033  50.2177505  80.4425049   6.2475495  50.4379616
   0.4760512  65.8798294  40.4500961  -0.0733614  66.5530396  40.0486374
   0.0127739  65.0596924  40.2798805  58.3416672   5.0744658  21.5205765
  57.5699844   4.6111598  21.1948738  58.0421944   5.9736238  21.6549740
  33.6070633  17.6669521  14.2225227  34.0880394  17.1753483  13.5567741
  34.2028618  17.7028275  14.9708347  72.6180496  40.1759415  19.5786285
  72.5789032  41.1208534  19.7264290  73.3139496  39.8710747  20.1608772
  19.0860767  59.1680756  78.4717102  19.7379665  58.5024910  78.6914139
  18.9854851  59.1005745  77.5222015  63.7861404  63.6437607  70.8827896
  62.9963112  64.0312424  71.2599564  63.5188522  62.7629776  70.6200867
  71.2445984   3.9540060  34.4989891  70.9852371   4.5147738  35.2300873
  70.4254608   3.7607851  34.0430145  57.4260674  39.9953041   9.7834587
  56.9219322  40.7825317   9.9892454  57.2775154  39.8533325   8.8485746
  83.0877380  16.2652149  51.8740044  82.7219925  15.5637655  51.3350868
  83.8966522  16.5138969  51.4267426  28.1953354  37.8333626  22.9961147
  27.5813808  37.3893356  23.5810356  28.9512062  37.2476768  22.9529495
  29.5598927  50.6482811  23.2230034  29.8382568  50.4114876  22.3383141
  28.6038723  50.6135178  23.1906414  78.2640152   4.9680181   7.0346942
  78.0456924   5.7296581   6.4975996  77.5523148   4.3487663   6.8727040
  52.6598854   6.1799493  70.4453354  53.5997505   6.3159642  70.5652542
  52.5456390   5.2314515  70.5047531  21.3141193  40.2117462  77.9334793
  21.2922153  41.1471252  77.7314453  21.4067287  39.7848511  77.0817642
  44.3011932  25.1761398  84.5935974  43.4717865  25.6223145  84.7646179
  44.7511444  25.1748829  85.4384460  12.9659090  28.5458775  85.7753448
  13.2595339  27.6368847  85.7141113  13.3001804  28.8492107  86.6194305
  11.8428392  13.4197083  15.2238111  10.8864059  13.4480019  15.2496367
  12.0506496  12.5020151  15.0480661  86.5133820  10.0150814  86.4705124
  86.2892151  10.2760391  87.3637543  87.2882462  10.5347166  86.2565002
  69.6726379  22.1556606  70.6086426  69.8223267  21.2328606  70.4030533
  69.3272018  22.5287495  69.7976532  33.9176559  30.3037643  83.6691208
  33.8860779  29.3528748  83.5640182  34.4600983  30.6073055  82.9412155
  22.3949127  61.5039978  25.8943195  22.6375141  61.0453720  25.0899315
  22.3087654  62.4202156  25.6309643  37.5161095   5.5489683   2.7983081
  37.1289139   4.8885508   2.2237136  37.7051964   5.0787573   3.6103308
  64.8119507  61.1777153  17.2372932  65.4263916  60.9316902  17.9287872
  65.2517700  60.9257965  16.4253044  85.5567093  44.7525520  28.7071476
  86.3292847  45.2703667  28.9334850  85.6032257  43.9889450  29.2824478
  86.1344376  16.3210144  57.7499237  86.6851425  17.0965500  57.6427040
  86.4018478  15.9518747  58.5916214  79.0851746   2.2034535  45.0196304
  79.9646759   1.8305817  45.0802498  78.5440216   1.4877020  44.6863289
  55.2277870  24.6566277  16.7378273  55.9118004  24.7531490  16.0752258
  54.4269409  24.5070801  16.2353172   2.8401387  16.3036499  28.3412743
   2.5584409  15.6127005  27.7417202   2.1020207  16.4167442  28.9401264
   4.8485227  23.1219616  61.5960121   4.2913156  22.8905239  60.8529205
   5.7192636  23.2374992  61.2156296   2.1152122  41.1211967  32.3755913
   2.0874631  41.1875305  33.3300858   1.4910997  40.4265099  32.1655350
  79.3050613  53.4670372  65.6751022  78.4945984  53.8551941  65.3453751
  79.6885986  54.1473465  66.2285461  14.8943977  17.9595585  20.7072277
  15.2163649  18.3470402  19.8933315  15.6678133  17.9041061  21.2684650
  83.2210083  68.3319473  39.3024368  82.5766983  68.0002213  38.6770973
  82.7382889  68.9699020  39.8280067  58.8389702  31.7949562  86.7587204
  59.0171738  31.8046894  85.8183060  58.2362328  31.0614319  86.8807068
   9.7133322  12.7231016  59.6736336  10.4176855  12.0918570  59.5264969
   9.8085546  12.9786758  60.5911560  70.1953278   9.2837954  69.9149170
  70.6143265   8.6916780  70.5394745  69.2992325   8.9561043  69.8383255
  27.8825722  18.2092991   1.3849170  27.3871593  17.9749069   0.6001507
  28.4958019  17.4844437   1.5064307  43.5741272  71.1250076  34.5771675
  44.2545166  70.4892731  34.7988586  43.8402405  71.4737625  33.7264137
   3.7673831  25.6139297   1.8211030   2.9535356  25.1550312   1.6130234
   4.1836596  25.7604084   0.9716977  74.2043915  59.6669044  28.3805199
  74.7159271  58.9813728  27.9508572  74.6343002  60.4827995  28.1241570
  66.6985397  19.9691410  49.6835518  67.4620819  19.6059933  50.1322784
  66.0346680  20.0507050  50.3682823  31.0162029  68.3564911  42.5490685
  30.3784599  67.8056641  42.0950851  31.3484726  68.9459763  41.8720627
  13.6288557  12.5033712  74.1275787  14.1811991  13.2703123  73.9760818
  12.9280376  12.8215723  74.6966400  74.6359100  70.4695358  73.8376694
  75.2504654  70.8786774  74.4468994  73.8114700  70.9343338  73.9808502
  70.4357681  26.0381966  73.3024139  69.9034882  25.6202316  72.6254959
  69.8533554  26.1025867  74.0593033  76.6084595  33.5930634  24.6688480
  76.3147049  33.6228065  25.5793724  75.9361572  33.0832520  24.2168140
  66.4579010  49.4442635   9.5281076  66.0858536  48.8479271  10.1778755
  67.3053055  49.6982956   9.8936224  49.3560715  60.0737839  86.5332794
  49.2530518  59.5500755  87.3278503  49.5357933  60.9585686  86.8512192
   6.7429533  42.4604454  65.5363083   7.6333342  42.7887688  65.6614380
   6.5773821  42.5681305  64.5997086  85.6572571  10.1748314  40.3896675
  86.2544937   9.4997320  40.7118111  85.6932449  10.0915699  39.4367752
  48.7326546  52.9685974  27.2683792  49.5459251  52.5294380  27.5173035
  48.5129433  52.5990219  26.4131756  79.3194962   3.8504024   4.0768480
  79.1188126   4.2522607   3.2315853  80.1775513   4.2033839   4.3121753
  70.9607773  36.0123215  84.1494370  71.5856552  35.2931061  84.0572662
  71.4861145  36.7468338  84.4668503  64.0120773  55.9698372  81.8864059
  63.1582184  56.3970718  81.9544754  64.6437149  56.6682281  82.0581894
  43.6744232  40.1268692  53.8348274  44.2715263  40.8750000  53.8364105
  42.8019447  40.5168877  53.7809906  36.4642792  55.1333199  14.9190111
  35.8650169  54.5663109  14.4336090  37.3158302  54.7028656  14.8428402
  15.2349291  65.8709869   1.9757181  15.7737904  65.7974930   2.7634099
  15.8157148  66.2636185   1.3239824  86.5940933  69.8088379  46.6114006
  85.9181671  70.1158524  47.2156258  86.2725067  68.9617996  46.3026199
  73.5227966  43.2194862  37.0292702  73.2234344  43.8205719  37.7114067
  72.7289505  42.9920616  36.5452003  50.6875381  10.8398438  35.8210258
  50.5331192  11.6580839  36.2931175  49.8236809  10.5824528  35.4989510
  15.6385937  15.8311968  69.9981461  15.7164650  15.2251587  70.7349548
  16.5117931  16.2129822  69.9087296  11.4930506  31.6546593  71.7347794
  12.3930655  31.8167973  72.0174789  11.5819769  31.2580452  70.8681641
  41.1476097  14.9471512  18.5343361  41.2283783  14.6446838  17.6297798
  41.5754318  14.2663269  19.0536423  35.5407524   3.0323875  57.3642883
  34.8406754   2.8921514  56.7267494  35.5441704   3.9780977  57.5121117
  47.4262352  17.0613937   7.7688274  47.9781647  17.3836823   8.4813843
  46.5653763  16.9392529   8.1691265  72.1315079  53.5746613  73.6256409
  72.2723923  54.5205116  73.6674423  71.5575867  53.3849564  74.3678360
   1.7577102  23.4924278  18.8118553   1.4264212  22.7672272  18.2821712
   1.2586603  23.4411201  19.6270542  11.8329754  49.4831772  31.8731327
  12.3879728  49.3360825  32.6390114  11.6224623  50.4163780  31.9055691
  18.1736202  16.6143570  15.0664015  17.3122673  16.4925003  14.6670847
  18.7106400  16.9885521  14.3679600  19.7244434  51.8398933   3.2614284
  19.7666740  51.4642715   4.1408353  19.2581482  51.1841125   2.7430165
  38.1795883  43.7383728  55.2517433  38.3020020  43.0899353  55.9451218
  37.6440277  43.2905579  54.5968628  73.5401230  47.0963135  50.1394920
  73.4142075  46.1892433  50.4180679  74.1623459  47.4567223  50.7712936
  74.5895538  50.0353622  53.9429893  75.4199829  50.3745422  53.6089554
  74.7546082  49.8693924  54.8711281  20.7907314  28.6175671   2.4288249
  20.1070499  28.9013481   1.8219646  21.1049137  27.7896137   2.0654862
  25.9338474  54.4339485  82.2327194  26.1725578  55.2316628  82.7048416
  25.8256245  54.7164192  81.3245697   5.3005104  34.7934761   4.0300293
   4.5484071  35.2690277   4.3827634   5.0958366  34.6757317   3.1024106
  68.7124176  59.3235970  26.3253689  69.3166275  58.5812607  26.3354816
  67.8496780  58.9320831  26.4618320  55.3350868  62.1750565  11.5918312
  55.1865120  62.7704659  12.3264360  56.2430916  61.8900337  11.6944084
  41.9167404  20.3770580   7.6552863  41.2231140  20.0830956   7.0647802
  41.9044380  19.7439880   8.3731327  50.9556389  18.1012516  26.6988506
  51.1714363  18.8696060  27.2273350  50.0063820  18.1478157  26.5849571
  73.6539307  30.4747562  65.8255920  72.7482834  30.4097404  66.1285858
  74.0253601  31.1958179  66.3338623  82.6928329   2.9485009  59.1671524
  82.8937531   3.0497975  60.0975304  83.5237503   3.1172376  58.7229271
  61.3143845   3.2955420  37.9060745  60.3826981   3.1409569  37.7501907
  61.7291374   2.4496436  37.7367592  82.6735535  22.4147701  21.9449291
  82.1652527  22.5535793  22.7440472  82.9904251  21.5143414  22.0159988
  83.3632355  52.0698509  72.4673386  83.3799744  51.9560585  71.5170746
  82.6652298  52.7067986  72.6200333   6.0481935  37.4020309  69.8686981
   5.5055261  37.5879936  70.6349640   5.4654789  36.9345016  69.2702942
  55.8731575  67.4452362  19.1678562  55.6831474  68.3136063  19.5228977
  55.2834091  66.8585663  19.6414089  46.2973633  48.0148621  14.9756670
  45.8205338  47.2222710  15.2219667  46.9788780  48.1012497  15.6422291
  41.2109337  38.4772797  51.9561920  41.6779633  37.9537392  52.6073608
  41.0021782  39.2936783  52.4102249  75.1929626  29.8571587  68.7510452
  76.0581512  30.0285397  68.3791504  74.8416443  30.7250137  68.9501343
  76.8882751  13.6704159  67.4792709  77.8432465  13.6447477  67.4192734
  76.6247177  12.7504272  67.4989471  16.2603054  22.6655445  26.4555016
  16.5620308  23.4951267  26.0853806  17.0631523  22.2109241  26.7104301
  50.7861786  21.6620617  59.9031181  51.3272095  21.8495598  59.1360703
  50.9654236  20.7434807  60.1038933  27.2873344  41.9608116  72.7141190
  27.8876305  42.5898705  73.1143188  27.2633247  42.2074699  71.7895584
  30.6018276   4.4453425  86.6215515  29.7424297   4.1011033  86.8647995
  31.2203789   3.7796328  86.9223175  64.5317001  48.1053658  53.2572327
  64.2267075  47.3791275  52.7133675  63.7346954  48.5820007  53.4892578
   9.9226103   3.7175612  58.1630821  10.1041775   4.2725883  58.9215050
  10.7280884   3.2166479  58.0345383  42.9106026  35.3885307  82.3545532
  43.2151337  35.9107399  83.0967102  43.6724625  34.8684616  82.0989685
  80.9970627  68.3050079  86.1646576  81.4057999  68.3203049  87.0300598
  80.9618530  69.2242508  85.9001236  67.8472672  43.6338730  43.2513008
  67.9992065  43.2255974  42.3989754  68.7242126  43.8069420  43.5937080
  10.7190132  10.6537819  48.9826546   9.9433279  10.7985468  48.4408188
  10.9166031   9.7234802  48.8743553  86.2751923  34.2970352  52.8001900
  86.9392166  33.6532974  52.5533905  85.5758667  33.7790146  53.1987190
  65.3946762  44.6780624  25.5295563  65.0473633  44.4910355  26.4016953
  65.1290054  45.5808372  25.3544865  62.3568001  13.8518419  85.1191101
  62.8470917  14.5994587  85.4610367  62.8752518  13.5454693  84.3750839
  51.9079018  56.4548073  71.9877701  51.7477188  57.0381241  71.2459412
  51.5462379  56.9210091  72.7414932  58.0864563  66.1585541  55.1614037
  57.8076935  66.6493530  55.9344711  59.0423813  66.2040253  55.1806755
  12.0261278  66.9329224  13.9584589  12.2481661  67.8428040  13.7608528
  12.5683060  66.4187317  13.3602304  65.7971649  38.9119072  60.6816521
  64.9551468  38.6157417  61.0273781  66.2384262  38.1087379  60.4051857
  38.9498329  62.7444458  36.0059013  38.4553185  63.4975815  35.6826782
  38.3151321  62.2428894  36.5175896  64.4319229  18.3414230  76.4225922
  65.0168839  17.8448753  76.9948578  64.0226898  17.6791687  75.8656540
  61.0037804  34.6786385  30.2148991  61.4109459  35.3848877  30.7165565
  60.5339012  34.1606750  30.8684731  63.0499039  46.6493416  40.4696236
  62.2317390  47.0931358  40.6929626  62.7955246  45.7386246  40.3209076
  29.6121464  51.4041672  14.9763918  28.8363075  51.9300346  14.7820473
  29.5706482  50.6773109  14.3549509  32.8457184  13.8014288  86.4509888
  33.2095261  14.5245609  86.9618301  32.1568985  14.2043495  85.9223862
  30.0616722  49.7951279  12.8699484  30.3654499  49.5489464  11.9962521
  30.5147343  49.1924858  13.4596844  23.3563023  67.6937637  25.4596939
  24.2935066  67.8289108  25.3196487  23.2511616  67.7122040  26.4109230
  33.1840668   7.7800145  87.4495392  32.6275635   8.5288820  87.2356796
  32.8155632   7.4319029  88.2614822  83.8643875   1.8895350  34.9394379
  84.3974228   2.5584590  34.5097275  84.1875153   1.0613537  34.5845604
  10.9793177  44.7699356  53.0288506  10.3109961  44.8614120  53.7079735
  10.9475775  43.8449593  52.7846222  16.1136169   2.5548790  61.9623222
  15.1734066   2.5507839  61.7828217  16.5072212   2.9193141  61.1695442
  31.4592876  57.4137077  83.7896652  32.2885475  57.6853333  84.1830826
  31.4378738  57.8606491  82.9434814  44.4545555  34.9633751  28.1636715
  43.6017761  35.3915901  28.2387161  44.5349464  34.7510414  27.2337875
  72.0725250  56.5415802  77.0450592  72.7557449  57.2096863  77.1005478
  72.4737244  55.7570953  77.4190216  67.4888687  62.8319244  54.3273735
  67.0644455  63.1535873  53.5319939  68.3585129  63.2316170  54.3132019
  79.6239090  65.9790955  29.2788048  79.6210861  66.4993668  28.4753475
  78.9814453  66.4079514  29.8441010  86.1992950  31.1517105  37.4409676
  86.6667099  30.3621426  37.7136116  85.4090881  31.1607876  37.9810791
  26.7031574  23.4253159  56.4817429  26.4090347  22.5938644  56.1097069
  27.0800247  23.1885509  57.3291779  31.4038181  48.6461372  37.1637611
  31.7042656  49.5303040  36.9534912  30.4624577  48.6657486  36.9914551
   6.9678354   1.4208766  79.5170517   6.6877642   1.2059181  78.6273422
   6.7257710   2.3401942  79.6288223   7.1726613  19.5878162  38.1631165
   7.5709062  20.3137856  38.6433258   6.2326627  19.7652588  38.1969986
  55.9830360  68.4548264  22.4728680  56.8771133  68.7914047  22.5326290
  55.8762474  67.9179230  23.2580853  67.7668304  57.1002235  80.6883545
  68.6039352  56.8253593  80.3142776  67.1494522  57.0469513  79.9588089
  68.2856293  33.9548035  61.0745926  68.8646164  33.8081932  60.3265839
  67.6985016  33.1988220  61.0748024  61.1118851  19.8588409  13.6299772
  61.2792053  18.9259071  13.4963017  60.1576233  19.9337292  13.6279507
  76.9697876  33.7112885  46.7161751  77.1976776  34.4318161  47.3036575
  77.5421295  33.8301048  45.9581909  32.6133995  11.0889301  12.3790140
  32.5916481  12.0153646  12.1392689  32.1629295  10.6449604  11.6605453
  58.9861298   0.0022153  24.9585819  59.7904930   0.5055222  24.8324318
  58.3477325   0.4225517  24.3823910  62.5389290  45.6170464  36.5734024
  61.9179726  46.3000793  36.8266106  61.9912720  44.8585167  36.3710747
  35.0214920  39.9403114  87.0008545  35.6723213  40.2488365  86.3704071
  35.0042953  40.6168175  87.6778107  46.4373703  55.1330147  13.1816874
  46.9792557  54.7095222  12.5159206  46.5425072  54.5855942  13.9598312
   1.9604590  71.2434616   2.7188721   1.6212418  71.4891205   1.8581654
   1.2222116  71.3750992   3.3137615  52.3865128  41.2111244   7.2495179
  52.2168198  40.6283226   6.5093970  53.1688728  40.8487473   7.6652470
  71.1656418  29.5584335  72.7187729  70.7051010  29.0430889  72.0565414
  71.8372040  28.9668598  73.0582962  42.0974503  49.6531029  29.5724163
  41.7984009  50.5623283  29.5619965  41.3443146  49.1569176  29.8930702
  68.5135345  57.9123878  13.4767857  68.6102219  56.9609108  13.5164795
  67.6388016  58.0492783  13.1130133  57.7958107  17.9487076  64.4710236
  56.8918266  17.7688751  64.2127457  57.7450905  18.1308765  65.4093628
  74.0949707  29.9526405  49.0833359  74.7744904  30.6147099  49.2104187
  74.5157547  29.1278839  49.3261337  39.6107254  62.2845764  43.9772415
  40.3054771  62.7565765  43.5181503  39.9874229  61.4242744  44.1621971
  58.8657227  16.0136604  51.8573265  59.3887863  15.5084419  52.4797363
  58.1381874  16.3549137  52.3773956  86.9641266  66.3191833  79.5965118
  86.4103088  65.5397034  79.6404266  86.7188797  66.7411575  78.7730865
  15.6182251  45.1587067  63.8588562  16.5406895  45.4065781  63.7968102
  15.6034231  44.4498367  64.5019073  71.7057266  28.4676647  43.8937950
  71.6301727  28.3007870  44.8333015  72.4619522  27.9494114  43.6185379
   6.5759044  18.8992653   2.7823193   6.2408304  18.8369370   1.8878515
   6.0461493  18.2768059   3.2804525  16.0816021  25.3070984  56.2992630
  15.5776062  25.5188599  57.0849953  16.1993389  26.1475334  55.8564987
  80.7203369   9.3824482   6.6448412  81.2081680   8.7006817   6.1828403
  80.5237503  10.0341120   5.9718480  10.7987537   4.8531680  23.6485844
   9.9330235   5.1279702  23.3465443  10.6878891   4.7011800  24.5871143
  28.4500961  52.3787804  40.0546494  28.3202038  51.8058929  39.2988968
  27.5656319  52.5600395  40.3726158  51.1743469  14.7670164  64.9633179
  51.0139656  15.2476130  64.1511993  52.1180344  14.6067429  64.9644012
  63.5122375  55.2555695  42.9600258  64.1339722  55.2970161  42.2334175
  63.8903389  54.6150551  43.5625343   6.4160171   1.8614925  61.3911705
   5.6981707   2.4657128  61.2018394   5.9963493   1.0035959  61.4553909
   1.8297503  67.8262253  36.0810966   1.6200519  67.7877884  35.1479416
   2.7269387  68.1584320  36.1114807  24.6484871  56.8524513  12.1031303
  23.7948341  56.4231911  12.1600990  24.4531193  57.7322502  11.7806082
  72.6853104  58.6913490  21.3318100  73.0611801  58.4342499  20.4898739
  72.8173676  59.6384621  21.3738499  77.7323990  17.6412697  77.4274368
  78.0928040  18.3326969  76.8722153  78.3407822  17.5842190  78.1642227
  78.8887405  10.1334972   2.2310431  79.6756439  10.5552673   1.8858967
  79.1682510   9.7479095   3.0613604  43.5781746  40.1160851   6.6345830
  44.1269150  40.6953278   6.1058154  42.9404182  40.6996651   7.0455999
  56.0391464   5.0246215  26.2859631  56.8100548   4.7888389  26.8020439
  55.5024643   5.5469847  26.8820667  19.1411743  58.0913429  35.5840034
  18.2685986  58.1612320  35.9712524  19.1862602  57.1933594  35.2556343
   8.0986996  31.6369038  66.3515091   7.2978687  31.1619091  66.5735016
   8.7493725  31.3138447  66.9748001  74.5539093  14.0591116  83.7069244
  73.8919220  13.3960552  83.9027786  75.3580246  13.7175941  84.0980759
  70.0041656  55.2085495  33.8848114  70.4729156  55.9860420  34.1881332
  69.4366760  55.5292778  33.1838646  11.6549501  59.2954025  81.0995255
  12.4612083  59.6930466  80.7707977  10.9537287  59.7904587  80.6759186
  77.1190643   8.8863020  32.6337204  77.4696350   9.4077311  31.9116096
  76.2093430   9.1723919  32.7161407  24.3208332   4.4406247  33.7844582
  25.2130775   4.7242160  33.5851936  23.8084774   4.7080541  33.0214348
  79.1140671   3.8124840  65.8454285  79.9419937   3.8805909  66.3209610
  78.5049820   4.3553219  66.3460083  12.2623911  68.5502167  79.2263565
  12.0375519  69.4691544  79.3720856  13.2093287  68.5111389  79.3605728
  67.2094803  42.9063377  65.2222214  66.5081177  42.3280792  64.9223099
  67.0139694  43.0605965  66.1464539   8.2756033  35.8431702  45.1314507
   8.4632540  35.5930824  44.2267532   7.6171451  35.2124023  45.4226494
  52.9988976  18.6878548  62.5972824  53.2412071  17.9023457  62.1068764
  52.9172478  18.3890858  63.5029869  71.9938660  23.5059109  35.0550156
  71.1957703  24.0003433  35.2415733  72.5915833  24.1501770  34.6756935
  28.9426594  55.9981995  42.5829582  28.4652081  56.4892616  41.9142799
  29.1256866  56.6416016  43.2676277  53.3615227   4.9933605  64.5381851
  52.5197258   5.0591435  64.0873184  53.2298622   4.3071094  65.1923676
  61.8488770  47.0833054   8.4769821  61.9364662  48.0077438   8.2446623
  61.0261536  46.8110962   8.0704584  25.2258263  66.0273132  81.7944489
  24.8135796  65.7743988  80.9684219  26.1494904  65.8040771  81.6793747
   8.6951237  60.6911545  55.2249985   7.7383456  60.7149429  55.2405205
   8.9511786  60.7518005  56.1453209  56.2720108  12.2473555   3.2737672
  57.1628838  12.4644957   3.5484111  56.2797012  11.2962713   3.1660111
   3.7341142  54.6166725  33.5418968   3.3458891  54.8017731  32.6867638
   2.9909401  54.3770447  34.0955238  13.4070778  51.4091530  70.2448883
  14.1679573  51.2992096  70.8151627  13.0472364  52.2623253  70.4874725
  28.4953728  21.2642117  89.1119156  27.7925739  21.7464523  89.5475159
  28.9799232  21.9325886  88.6274414  42.5211334  47.7868843   6.8176150
  41.6869507  47.3611641   6.6197953  42.3401299  48.7223930   6.7265391
  11.7772942   6.6238265  10.0330467  11.9218998   5.7416248   9.6909332
  12.5745716   6.8242402  10.5233679   0.5753292  13.8487215  60.8732071
   0.4219251  14.1766987  61.7592812   1.2462620  13.1744566  60.9802017
  80.6427155  25.2752571  70.9911804  80.1539536  24.8266430  70.3011856
  80.0538025  25.2673607  71.7457352  13.9974232  47.5390854  33.0939064
  13.8860083  46.5890961  33.1304970  14.4848261  47.7538872  33.8892250
  18.2646561  61.3893127   4.4936943  17.4624882  60.9104652   4.2852197
  18.9660110  60.7521400   4.3582582  49.0555763  53.1524277  45.8479004
  48.5680809  52.5667801  46.4272079  49.5747375  53.6970367  46.4395981
  70.6431885  68.7325211  68.5254059  71.1323166  68.0403824  68.0805054
  70.5803909  68.4357986  69.4332809  84.3461990   0.7710617  63.3502579
  83.4046631   0.8954101  63.4697533  84.7292938   1.0196418  64.1914978
  82.4019394  41.9239235   7.7807956  82.8513107  41.3918076   8.4374161
  82.4324570  41.3959923   6.9829297   8.7434998  24.9131184  55.7439117
   7.8347983  25.0737991  55.4895973   8.7069702  24.7785511  56.6908989
  72.6377335   1.2088032  45.7657051  73.4381638   0.8114444  46.1087036
  72.8114090   1.3298053  44.8321991  17.0706635  21.3140182   8.4395466
  16.3276615  20.7412376   8.2495356  17.1188335  21.9018784   7.6856685
  74.9143372  37.7119026  58.5586853  74.9517288  36.7841721  58.7913780
  74.6270981  37.7184334  57.6456223  47.7889252  29.4749146  73.4130096
  47.0074005  29.2149029  72.9253235  48.2072144  28.6482277  73.6535492
  75.1908264  46.1012268  22.4948502  75.6940002  45.4023094  22.0770531
  75.1528015  46.7952690  21.8367519  41.5841484  33.3789520  75.3264694
  41.3732262  32.8926277  76.1234894  41.8008575  32.7033615  74.6839371
  35.5255890  58.0287971  70.0961761  35.6034203  58.8730049  70.5405731
  35.9060631  57.3995628  70.7089920  73.3922729   7.5211763  71.0510941
  73.3964691   8.0513163  70.2541199  72.9954758   6.6917505  70.7849426
  36.2731133  19.1899166  67.5131912  35.9023857  19.4752541  68.3482819
  35.7355080  19.6248932  66.8513641  71.0296555  32.2024155  81.8645782
  70.8922806  32.4949646  82.7655640  71.6477509  31.4754772  81.9403992
  16.8246136  39.9596519  83.4267044  16.2795620  39.2139664  83.1754913
  16.3056831  40.7273026  83.1865921  55.4347267  30.8476505  59.4452667
  56.0806046  30.1596584  59.6056900  55.9270248  31.6637383  59.5340195
  35.9972610  66.7569351  38.6154900  36.5400810  67.5430908  38.5560722
  36.5490685  66.1184540  39.0672455   7.3357329   2.3098314  47.2797661
   7.2065873   1.5569137  47.8565407   7.5824995   3.0230417  47.8685532
  74.5115891  28.2086048  78.8022995  74.7196732  27.9298649  79.6940613
  74.5885925  29.1624222  78.8253784  45.4499931  39.1014328  77.8227463
  46.1582832  39.6153297  78.2106476  44.7728081  39.7453117  77.6152039
  19.5085011   5.9768753   6.1112323  19.2245979   6.6718760   5.5174274
  18.6958714   5.5607119   6.3987608  46.6663704  -0.2524923  13.3936405
  47.3266220   0.4359980  13.4728718  45.8302803   0.2083023  13.4632998
   9.0158291  13.5446987  12.6832180   8.8617401  13.6087837  13.6257572
   9.3847809  12.6701336  12.5597610  86.9861526  40.5120354  50.0253868
  87.2338943  39.7302971  50.5190887  86.0297546  40.5253830  50.0620728
  37.5863075  65.5989151  29.8181477  38.4888573  65.8040543  30.0621738
  37.6547432  65.2254868  28.9394569  47.9946747  16.4014359  87.4743958
  48.3051033  17.1705494  86.9965515  48.0207825  15.6931305  86.8310776
  79.8712540   6.4562368  14.1759453  79.2088242   7.1032710  14.4183550
  80.6732483   6.7650838  14.5974302   0.7140712  12.3020697  41.8602142
   0.0638223  12.9823313  42.0352898   0.3937286  11.5362034  42.3367233
  17.3042107  30.6867218  56.8764610  17.7079449  31.1341705  57.6201134
  17.4979019  31.2477226  56.1254654  22.7833843  50.7566299   4.4530177
  22.9181232  50.3740540   3.5860031  23.0220375  51.6776466   4.3481274
  77.7833023  44.5831795  19.7704849  78.0093460  45.4633636  19.4697971
  78.5240326  44.0402908  19.5006351  35.3232613  48.0163155  10.2821789
  34.8030777  47.2564507  10.5434275  34.7568245  48.7670631  10.4603891
   0.1676444  65.3638992  15.5040665   0.5160872  65.0631638  14.6647959
   0.5100020  64.7390518  16.1432743  70.3308868  56.9987602  69.8391724
  70.0440292  56.1358032  70.1379242  70.6201630  56.8562622  68.9379272
  31.1439686  66.8045883  88.9028320  31.4652634  65.9483185  89.1853333
  30.2112999  66.7933121  89.1178589  82.4627914  51.9582977  69.9283829
  83.2113647  51.6303749  69.4300537  81.7434769  51.9747658  69.2970810
  19.6309566  46.4604225  72.1825180  19.3038712  46.0867577  73.0008240
  18.8903923  46.4005814  71.5790176  42.3423996  57.5991173  36.8473854
  42.7008934  56.8258247  37.2829666  42.2899323  57.3513107  35.9243050
  54.3323250  69.6763763  57.5417747  53.4468002  69.5379562  57.8778114
  54.4895897  68.9282150  56.9657860  11.2111931  38.8277016  88.8202209
  10.2752304  39.0274048  88.8022461  11.5204611  39.2033653  89.6445160
  22.0812798  52.1551399  69.1116638  22.9381104  51.9011917  68.7687607
  21.5917225  51.3343239  69.1648483  57.4094467  20.8170872  21.4649029
  57.7594185  20.5417900  20.6175766  58.1464157  21.2449284  21.9008579
  67.8477097  51.6243591  59.1111488  68.4802017  51.9589272  59.7469597
  68.2280273  51.8388939  58.2593460  77.6515198  67.2732620  82.6037827
  76.8470535  67.1935349  83.1163254  78.3486099  67.0291214  83.2126312
  15.3795061  54.3664742  53.4438400  14.4896183  54.5046883  53.7682304
  15.5913124  55.1733055  52.9743729  51.1907005  66.1933670  32.7788925
  52.0901833  65.8935852  32.6474037  50.9583893  66.6223145  31.9553223
  22.0160046  11.3397598  64.5546417  21.8611794  10.3957224  64.5871277
  22.6463814  11.4547577  63.8435631  19.3476162  17.2385616  72.0001144
  19.8457813  18.0300598  72.2040634  19.0790062  16.8980904  72.8534393
  21.8748989   9.7081547  12.9801159  21.2278404   9.1408195  12.5609751
  21.3766556  10.1961355  13.6357536  14.8542929  49.4185181  21.4739799
  14.5480738  49.1676064  22.3454762  14.1810122  49.0881004  20.8792114
  24.0589905  68.4737396  88.0009689  24.6350613  68.6077576  88.7535782
  24.2480335  67.5814667  87.7105408  61.3841705  55.5339775  69.7634201
  61.7573814  55.0392456  69.0339127  61.6428795  55.0427666  70.5431671
  48.9544945  11.5754147  69.7970581  49.3342781  11.7423935  70.6596756
  48.0788651  11.9593964  69.8424683   5.8785424  40.3575325  59.9548798
   5.8930163  41.0371819  59.2810097   5.0867634  40.5390816  60.4611969
  33.0642128  15.5318146   0.1014032  33.2053261  15.7867403   1.0131768
  32.1189461  15.3970995   0.0339232  76.3282852  15.9734049  51.6280174
  76.2081909  16.4629307  52.4417572  76.1107025  16.5995560  50.9374924
  32.9111176  22.1220226  15.5518723  32.7811279  21.2238636  15.2474976
  33.8129044  22.1381340  15.8724241  41.0593758  59.7465439  61.1061592
  41.7462997  59.0800552  61.1189766  41.3130569  60.3651543  61.7911377
   0.9219825   2.3317449  13.2542706   0.1643414   2.4646442  13.8239632
   0.5848321   1.8117619  12.5247641   1.2422888  22.3749046  13.9183302
   0.7075098  21.9791965  14.6065588   0.9220039  21.9781761  13.1082335
  39.0491791  50.1596832  77.3325653  38.7599945  49.3102226  76.9993668
  38.4420471  50.3564377  78.0459518  86.3403702  14.5649137  35.3111534
  86.3483429  13.6419601  35.0575333  85.9314270  15.0132074  34.5708618
  57.2636185  28.5912762  21.9556961  56.5152092  28.7341576  22.5350952
  57.7305260  27.8521099  22.3453922  80.4168091  45.1599617   9.0811720
  80.6108551  46.0468102   9.3846197  79.4608688  45.1110191   9.0799780
  72.4260864  12.0397835  73.9858246  72.7692337  12.7810211  74.4848709
  73.0837097  11.8821325  73.3083954  30.9499550  50.1015778  76.0044937
  31.2285213  49.1951523  76.1349716  30.2722569  50.0492134  75.3305359
  76.5045776  54.5971146  63.0789680  75.6540070  54.6137619  62.6402397
  76.4329453  53.8838997  63.7133369  56.2612915  19.1546078  60.6997070
  57.1598511  19.3767090  60.9436073  55.9084549  19.9615669  60.3247948
  66.2312775  69.0499878  80.1266861  66.7261734  68.2534027  80.3184204
  66.7831802  69.7597427  80.4551392  84.2087479  31.1170979  50.4095039
  84.7601776  31.0957184  49.6273918  84.1891632  32.0397453  50.6636047
  55.9399681  22.6360588  18.3764744  55.4563675  21.8573570  18.6521320
  55.3603020  23.0684814  17.7493954  18.9788818  69.3484879   8.6605682
  19.8710613  69.2579956   8.3258142  18.7872944  70.2830353   8.5821686
   5.9305973  55.4516754  13.0148001   6.1393337  55.4690475  13.9488020
   5.0180740  55.1649284  12.9786100  63.9821739  38.5233879  31.6496830
  64.3839722  38.9066849  32.4293442  64.4549637  38.9190483  30.9174595
  74.7180634  33.9655266  36.7257423  74.6468658  33.1456528  36.2368927
  75.6011353  34.2820015  36.5353432  43.3096771  24.3272514  17.7624607
  43.4240875  25.1577187  17.3004341  43.1779861  24.5780163  18.6767941
  15.8648834  49.6815910  55.7537193  16.3091049  48.8383293  55.6653404
  16.4640846  50.2143211  56.2765808  29.3678875  40.0833626  23.7174625
  29.0184441  39.3525963  23.2074585  30.1947575  39.7551460  24.0707226
  72.8629532  15.6824636  81.5886536  72.5364227  14.8578558  81.2286072
  73.5284729  15.4193935  82.2243500  20.9300003  52.1322021  73.5035248
  21.7723351  51.8644600  73.8709717  21.1574802  52.6071815  72.7042236
  29.1809216  64.1287231  22.6919384  29.4808788  64.9434891  23.0949574
  29.7140255  63.4479713  23.1025543  73.8005524  30.3315735  57.0542717
  73.6017227  29.4453354  57.3563957  74.6266785  30.5516682  57.4847488
  21.2649231  64.0428467  87.3470306  20.6783962  64.5385208  86.7756119
  20.8109169  63.2131767  87.4945602  51.0778313  11.7465525  48.1214905
  50.8638229  11.3718824  47.2670593  50.8002167  12.6604490  48.0586014
  76.3706818  14.1089764  48.8740273  75.5667725  14.2743921  49.3665810
  76.1208572  13.4561672  48.2200699   8.6589613   6.0444980  82.5721741
   8.7803278   6.4920197  83.4095688   9.5338202   5.7356596  82.3366470
  64.1217651  38.6318398  87.4938583  63.7871552  39.3089409  86.9057999
  64.1155090  39.0414772  88.3589478  25.2309380  62.7114029  12.0660133
  26.0952511  62.6110954  11.6670990  25.1625385  61.9777527  12.6770039
  80.1661682  38.9729996  35.5886803  80.9172897  39.3982582  36.0024490
  79.6210632  38.6844673  36.3206902  82.3406906  46.1425056   3.8060400
  82.2571106  45.8302383   4.7070041  83.2830963  46.1408806   3.6384344
  79.3704758  47.7084656  35.4111481  78.7324371  48.3932533  35.6116409
  79.4252167  47.1897049  36.2137184   9.6707821  64.2476349  59.1575470
   9.9313021  64.5183334  60.0379372   8.7138290  64.2541809  59.1783028
  38.5492935  46.4754829  35.7343216  38.9291000  47.3532257  35.7736168
  39.1840439  45.9619942  35.2346687  25.9557533  26.6737003   6.5874238
  25.5599785  25.8027210   6.6189008  25.2493629  27.2671280   6.8425503
  17.6726913  17.4703522  86.0198059  16.9281368  17.2070541  85.4789276
  17.4862022  18.3783970  86.2583542  83.0093155  64.1109085  23.0725842
  82.6326065  64.4366455  23.8900337  83.7654190  64.6763916  22.9152222
  72.4141769  28.1785507  58.3289146  71.9732361  27.3301811  58.3744431
  73.3437958  27.9706593  58.4228287  38.2962608   3.3484557  70.8826523
  38.7752342   3.0738060  71.6645660  38.4331284   4.2947674  70.8380051
   5.2279887   3.1059666  82.2127686   6.1824450   3.0721562  82.2768097
   4.9264917   3.0962541  83.1212006  72.1109009  38.1574745  14.8691702
  72.1356354  37.3960953  14.2895832  72.5816803  37.8765678  15.6538334
  34.2216377  36.8472214  12.0865946  33.4233398  37.3491096  12.2510862
  34.4994354  36.5484848  12.9525146  21.9159489  21.2663593  88.2956772
  21.5346127  20.7104530  87.6161346  21.2774010  21.2454891  89.0084610
  58.6895485  30.1574974  17.3702717  59.2178955  29.3623238  17.4394150
  58.0749969  30.1011009  18.1019688  36.0494423  71.1119308  37.8559914
  36.4348068  71.8795929  38.2783852  35.1052055  71.2309341  37.9584084
  50.1682167  27.4852276  86.9687805  50.9786072  27.4128284  86.4645386
  49.7187195  26.6532459  86.8204956  75.6602783  21.8801975  65.1212387
  75.4324493  22.0531769  66.0346985  74.8743210  22.1177635  64.6292419
  17.4902020   1.9758258  48.4419022  18.0010586   2.3630719  47.7310600
  16.6388664   2.4102054  48.3892326  25.0195503  32.6096497  14.9743662
  24.5782738  31.9337711  15.4888487  24.9951401  33.3882332  15.5306435
  55.9455757  12.3564701  34.5915642  56.4322929  12.3887882  33.7679787
  56.5192413  12.7864151  35.2258263  31.1237030  30.1276188  73.8276978
  31.3404694  30.5308113  74.6683426  31.0056839  29.1996231  74.0304947
  85.8589325  52.1473885  73.6289825  86.3045502  52.4746666  72.8476105
  84.9793243  51.9218025  73.3262634  61.2639923   5.2846098   7.8702297
  60.5859985   5.9497442   7.9891934  61.4163589   4.9379992   8.7493649
   6.8444686  29.5605469  35.4968224   6.3653412  30.0493088  36.1659889
   7.7315650  29.9187889  35.5277214  67.8862152  62.9647598  18.1785965
  67.5963440  62.1104927  17.8585434  67.0764542  63.4560204  18.3170795
  84.3752975  48.1952515  38.9420891  83.9884567  48.1968117  39.8176346
  84.7606277  47.3236771  38.8520470  67.1316910  28.8830910  62.9557076
  68.0657120  29.0590916  62.8422966  66.6989212  29.6804352  62.6504440
  45.8915901  67.1042557   8.4941654  45.4487724  66.3676529   8.9155397
  46.3470535  66.7147369   7.7478013  12.8178473  49.5667534  37.1585426
  13.2733564  50.4058876  37.2263603  13.4602022  48.9767189  36.7642441
   5.1906857  31.4000435  64.8034897   4.8823657  30.7350006  65.4190292
   5.4939766  30.9017448  64.0445786  81.8921204  12.6620035   3.6098893
  82.1298523  11.8288517   3.2029812  80.9349289  12.6653099   3.6073146
  82.9545135  15.8334389  14.1226940  82.7905502  16.4611111  14.8265238
  83.2771149  15.0510149  14.5698748  36.4341965  36.3685684   6.4921961
  36.6642609  36.6304855   7.3836570  36.4095955  37.1892967   6.0002341
  85.2194290  18.9505329  12.5543070  85.5869980  19.6526375  12.0174913
  85.9191895  18.2997360  12.6093521  52.0424461  62.8819275  57.1057930
  52.1553383  62.6341248  56.1881447  51.1828842  63.3019867  57.1364517
  10.2675581   2.1956925  54.0893059  10.4530039   3.0607338  54.4547424
  10.1201324   2.3560321  53.1572151  11.5849962   4.1352730   9.3505964
  10.6325216   4.1371756   9.4455700  11.8140697   3.2110782   9.2525101
  12.4239426   7.5960331  74.4364166  11.8750896   7.1633992  73.7823410
  13.1394415   7.9820838  73.9311905  60.0096817  65.0290527  52.0401306
  59.3658180  65.6981277  51.8077316  59.5305595  64.4207993  52.6028862
  22.4380856  59.0208931  87.0409241  22.0851479  59.7549133  87.5438004
  23.3341637  58.9195404  87.3618622  67.7630768  28.2137775  12.4258881
  67.9823380  28.8639221  13.0933218  68.5046463  27.6085491  12.4283247
  46.4839783  48.2785530  12.3608208  47.3537788  48.0464439  12.0355444
  46.4386864  47.8791466  13.2295303  45.2652512  17.2170563  15.5823231
  45.2161179  17.6969051  16.4091015  44.6570854  16.4862328  15.6930437
  70.4439163  38.2397537  49.4691315  70.8590317  37.7897491  50.2049332
  70.0237656  37.5412216  48.9673767  47.1430931   3.9281254  13.3510246
  46.7153091   4.0085688  12.4985218  46.7383499   4.6098409  13.8873796
  28.0898476   8.6716385  29.3762550  27.7776337   9.2856627  30.0408821
  28.3012505   9.2219915  28.6221638  11.5342293  11.8753538  56.6768684
  12.1751413  11.5371256  56.0515175  10.6878004  11.7321081  56.2534637
  85.8036270  27.4448624  39.0982590  86.5363846  27.8021145  38.5965919
  85.7392960  28.0130291  39.8659058  18.2182903  17.2529449   2.5168402
  17.5805359  16.5639248   2.7032607  18.9743023  16.7886887   2.1574750
  84.1218643  61.2857857  36.2548981  83.8116684  61.7959824  35.5067635
  84.9033813  60.8375130  35.9315948  23.2849369  62.0910072  45.1312408
  23.0002365  62.9617004  44.8536224  23.7995682  62.2483711  45.9228363
  36.7102432  16.6815090  84.1712494  36.1001511  16.8115902  84.8972626
  37.5576210  16.5391598  84.5930481  76.1873398  44.6869545   1.5375332
  75.8773956  45.5499115   1.8122563  76.2831345  44.1959038   2.3535748
  75.7802658  70.9736328  59.9310532  76.0398407  70.3766556  59.2292900
  74.8754654  71.2075729  59.7240639   3.2045949  39.7698555  27.5809631
   3.4714935  39.0405693  27.0213757   2.6627479  39.3658371  28.2587585
  77.8986053  47.3764648  41.5511360  77.8999710  48.0317535  42.2488632
  78.2793045  47.8279190  40.7978172  23.3775291  69.1989899  47.3112564
  23.3226833  70.0943985  47.6451225  22.8429585  68.6846466  47.9161720
   4.8083687  44.7278175  44.9034271   4.6290078  45.6619949  44.7967834
   3.9549477  44.3067780  44.8003197  84.7764130  68.3840027   3.3233149
  84.5873337  69.2159195   2.8892624  84.5875092  67.7196960   2.6605604
  14.1365948  52.3555145   0.9456437  13.4616232  52.9917526   1.1819590
  13.9739685  52.1658516   0.0216234  26.5942154  51.3136253  15.6076956
  27.0713234  50.6004677  16.0319653  25.7961483  51.4102974  16.1272850
  84.3557663   7.8596191  25.7481384  84.5233154   7.0942502  25.1982555
  84.5035553   7.5496001  26.6416035  15.8171825  65.9881134  35.6981239
  15.8387690  66.9269562  35.8834305  15.2801323  65.6179886  36.3987083
   0.5827365  49.1564369  39.3584976   0.7796571  48.7722588  38.5041771
  -0.3174755  48.8868217  39.5405960  11.1958237  27.0333004  53.5231285
  10.6120024  27.6021519  54.0249214  10.9966879  26.1505947  53.8352280
  60.9743233  21.4181919  85.6447983  61.9291992  21.4840870  85.6548615
  60.7994537  20.4775753  85.6149521  17.8473969  36.7620392  62.4828644
  17.8839817  37.3016167  61.6930847  18.1987534  35.9143982  62.2103157
  12.1096153  62.9937744  83.1611557  12.3892374  62.0871239  83.0345688
  12.5428524  63.2673721  83.9696655  12.6444130  52.8042374   7.3285217
  12.3610144  52.2431030   8.0503578  12.9854012  52.1964722   6.6723332
  55.4500618   5.6696420  10.0929003  56.1665878   5.2111797   9.6540022
  55.0560341   6.2097082   9.4078417  62.2644424  14.1637602  67.4615860
  61.9196014  13.6187639  66.7542648  61.5002289  14.3689260  68.0002060
  22.4248829  19.8271332  12.4223118  22.3586464  20.1024761  11.5079641
  23.1361446  19.1865864  12.4286318  55.2086754  70.3866882  49.2735100
  54.3295250  70.7637482  49.3075027  55.1752548  69.6461487  49.8790779
  53.6112633  52.1160088  82.1708221  53.6566772  52.1555099  81.2155228
  52.6833496  52.2378426  82.3717346  29.7390347  17.7915783  13.0797892
  29.1400871  17.6111221  13.8043079  30.1007233  18.6554718  13.2775297
  27.0483284  52.6824913   7.8743258  26.7905064  52.6661263   8.7960043
  26.3590221  53.1864128   7.4417119  76.0619202  26.3764420  16.1564064
  76.3233566  25.7819099  15.4532595  76.4638748  27.2135277  15.9241228
   9.8776274  52.6776772   9.5750408  10.3510828  52.3388977  10.3348455
  10.0486269  52.0396576   8.8822746  14.5908337  17.5421829  81.9464951
  13.9175482  16.9508743  81.6099319  14.7037840  18.1946888  81.2553253
  12.1924639  14.7464705  72.7266998  11.6626034  15.1957827  72.0682144
  11.9183264  15.1322737  73.5587082  56.8766594  58.4102707  59.3652267
  56.7404099  57.7727127  58.6643791  57.6259308  58.0713005  59.8550453
  25.5013790  68.4352188  82.7762985  25.3589954  67.5390320  82.4716415
  26.1970768  68.7723770  82.2118835  42.5997658  59.2973366  75.4482880
  41.8876877  59.7220421  75.9266205  42.7272453  58.4629173  75.8996429
  69.4744263  66.0997467  13.5210638  70.3013000  65.7163467  13.2286434
  69.0816345  66.4577713  12.7249689  39.7316437  41.9313354  78.3113098
  38.7803993  41.9912949  78.2231522  40.0023079  41.3531380  77.5981064
  59.8308144  18.2452316  27.6415272  60.2255440  18.1911182  28.5118675
  60.3767357  17.6796379  27.0953522  12.6062813  46.2926598  55.3565216
  11.6846695  46.5018272  55.5085449  12.6239672  45.3398552  55.2666283
  50.9672623  31.3752365  79.3394165  51.9237709  31.3968735  79.3101807
  50.7212524  30.7427444  78.6643829  46.4310722  16.6570320  73.2729340
  45.7810707  16.7811832  73.9645386  46.5737572  17.5344791  72.9180298
   2.3981316  12.6194191  80.8370743   2.9018562  12.8868713  81.6058121
   3.0515969  12.2654934  80.2337875  40.4104843  34.9115486  40.3588676
  40.5922775  34.2346764  41.0108109  39.7379684  34.5276794  39.7961960
  74.3936234  40.1247101  21.6652775  74.2691345  39.3515739  22.2157269
  74.3229599  40.8632393  22.2701035   4.0505052  58.0530701  88.5497437
   4.1664858  58.9973717  88.4445038   4.6827445  57.8079262  89.2253265
  67.4505081  25.2439270  34.2741623  68.0875168  25.4405975  33.5873032
  66.6511841  25.0134850  33.8006554  85.2587280  26.1133804  64.4653168
  85.0510712  25.6555500  63.6507607  85.8674698  25.5305576  64.9191666
   8.7125463  69.4198074  70.9822617   9.4517689  69.1954193  71.5474472
   8.2740602  70.1396408  71.4359207  11.5109892  68.6884003  19.8785706
  11.5286379  68.2698517  19.0179100  10.8493662  68.2003174  20.3687401
  11.3014345  38.8471260  31.3110371  11.5884190  38.4113922  30.5085373
  10.5553522  39.3818283  31.0395832  40.0925217  51.3024521  30.6272945
  40.4492378  52.1891289  30.6801338  40.3047523  50.9080925  31.4732666
   5.9296021  60.8500404  62.8429909   6.2911978  61.4736252  63.4727669
   6.4980516  60.0830154  62.9120560  61.8985558  29.3860569  58.4413185
  62.5112724  29.7030182  59.1049042  61.8763390  28.4377136  58.5693169
  40.7139626   5.7311153  10.3366823  40.5522079   6.6330762  10.6133308
  41.0944977   5.3089447  11.1068754  42.2615280  55.9027405  17.9669209
  41.6920547  56.6483994  18.1564541  41.8873405  55.5099602  17.1782894
  64.4566269  41.4069519  63.4554062  64.1707993  41.3275375  62.5453339
  63.9822578  40.7152519  63.9166641  52.8262596  30.8304310  13.4198723
  53.2390976  30.8456020  14.2833338  53.4179039  31.3360291  12.8625975
  36.7216568  48.4525108  28.3387737  36.4434929  48.1270180  27.4826717
  37.4918022  47.9272461  28.5560417  30.5010757  70.9246140   1.6745949
  30.1768341  71.7350082   1.2817100  30.5179939  70.2978439   0.9513358
   5.0832224  12.9168310  22.3434944   5.3954554  12.1950855  21.7977600
   5.7976389  13.5537443  22.3299999  38.0178986  25.0726471  81.9171753
  38.9406166  25.3261757  81.9404297  37.9928741  24.2196655  82.3507996
  54.5506783  47.2111015   5.6720877  54.1840591  47.5434647   6.4914503
  55.3986397  47.6483116   5.5943513  54.2354927  53.3676453  18.4614563
  53.7172737  53.0145149  19.1846313  54.9278030  53.8731461  18.8873768
  57.2259178  45.6465187  13.5207510  56.5247307  45.7536774  14.1634684
  57.3949776  46.5326576  13.2007389  85.7852707  29.0375080   7.8478479
  86.5999908  29.2996235   7.4191880  86.0518799  28.7750130   8.7288961
  26.8017540  32.5864716  86.5320740  27.7380619  32.7258530  86.3901978
  26.3800964  33.3222046  86.0880814   7.1171913  25.6839104  84.1212311
   7.7496691  25.2992687  84.7280731   6.6244349  24.9361973  83.7830734
  46.5724754  31.9582272  89.1912537  46.6424828  31.3283291  88.4739227
  45.9334526  32.6011963  88.8838959  79.6434555  34.3386192  73.3449020
  79.1652298  35.1532211  73.1901245  79.4222794  34.0982895  74.2446518
  61.3767166  66.9840012  30.5103226  61.1637306  66.9649124  29.5773163
  61.0919914  67.8496246  30.8033333  47.4580231  56.0487289  36.0566559
  48.2637253  56.2736168  35.5913658  47.2037926  55.1983871  35.6981583
  19.6151028  55.0034981  76.8051605  20.0013504  55.6239319  77.4233093
  18.7112999  55.3008652  76.7005463  14.6073627  41.8420067  84.9676895
  14.8995066  41.9114265  84.0588074  15.4157400  41.7580070  85.4733582
  41.7276497  29.8116875  86.0545502  42.0555954  30.2720776  85.2820740
  41.0250282  30.3707390  86.3862381  50.0429649  70.6469498  70.8610840
  50.7019615  71.0632324  71.4166565  50.1507683  69.7096939  71.0228195
  64.3985138  19.4920902  83.1774902  64.3793335  20.4397640  83.3108292
  63.7621956  19.1490135  83.8048859  63.5496140  66.7136383  53.0446625
  62.6931801  67.0068970  53.3557091  63.5367203  66.8916702  52.1042519
  14.5800934  41.1522942  19.0342255  15.0598898  41.1076469  18.2071629
  14.3514843  40.2431908  19.2278786  66.0730515  38.9255791  79.2717361
  66.4131393  38.6840019  78.4102173  65.2893448  38.3866920  79.3795853
   3.4099467   3.0691586  39.0518150   3.0427830   2.4216518  38.4500198
   4.1107883   2.6025908  39.5071907  85.0415268  61.8284111  78.6388245
  85.4359741  60.9955750  78.3799286  84.1990204  61.8457909  78.1848373
  76.6296616  53.5475845  17.7367687  76.6322174  53.0573235  18.5588799
  75.9749680  53.1054573  17.1962776  75.0220184   2.7967811  49.6685219
  75.0863724   2.4442813  48.7809219  74.1097794   2.6504366  49.9187927
  73.9073563   4.9078765  88.7066040  73.4916534   5.5244470  88.1038895
  74.1347809   4.1554403  88.1603928  78.6103210  21.8934555  52.6748924
  77.7354126  21.8985920  52.2866440  79.1723633  22.2809944  52.0039597
  68.5814819  67.7705765  20.7104034  67.9274826  67.2307358  21.1543636
  68.7861633  68.4635696  21.3381710  16.3619041  43.2350922  56.1037788
  16.5148983  43.6309853  56.9617386  16.4490051  42.2939835  56.2552948
  67.3320923  16.4111786   6.7936850  67.9290924  15.9970751   6.1705155
  67.6249008  16.0986938   7.6497483  66.8821182  45.3425827  16.0622139
  66.3567429  45.1386986  16.8359356  66.7459946  46.2793732  15.9203339
  58.0564537  11.9729280  78.6848297  58.9830666  12.0726595  78.9031754
  57.5921860  12.3223515  79.4454803  16.8575764  63.8839569  87.8250122
  16.4884586  63.4722443  88.6063461  16.4083385  64.7269516  87.7635574
  50.3677330  11.1945887   0.9121033  49.5654945  10.6830978   0.8070996
  50.9514694  10.6245146   1.4125999  46.4603691  53.5312157  75.6676407
  46.4871941  53.3839149  74.7222290  47.3184891  53.2435837  75.9793015
  44.7310410  19.1655273  56.8295326  43.8143005  19.3347282  57.0467567
  45.0766640  18.7030354  57.5929985  85.2878113   5.7982640   2.1115654
  85.6227798   6.6778822   2.2856336  84.9594345   5.4951658   2.9580476
  82.5081177   2.5156698   1.6207809  81.7376251   2.0407877   1.3092431
  82.7814636   3.0459917   0.8722668  86.8401947  60.8049393  63.9391327
  86.0500717  61.3021317  63.7276268  87.1599426  61.1975212  64.7514572
  63.0105743  20.4832726  32.9579201  63.0910912  21.3900585  33.2537041
  62.0885201  20.2670212  33.0967827  29.1750336  53.1442070  42.6777573
  28.8901901  52.8231239  41.8221855  29.3079948  54.0833435  42.5490112
  67.0012665  47.0448608  34.8410645  67.7480927  47.4902573  35.2411919
  66.2530518  47.2997208  35.3809280  58.3885078  27.8403454  18.9452915
  57.6885147  28.1240826  19.5332851  58.9637604  27.3096104  19.4963226
  66.3097687  70.2622910  66.8247070  66.0021439  70.6793442  67.6294785
  66.6107559  70.9884796  66.2785492  74.3785477  16.2136841   7.1446476
  74.7103043  15.3167715   7.1032357  73.5425797  16.1815529   6.6795077
  45.9345284  67.0628967  52.2289238  45.2422600  66.6116562  51.7458267
  45.7458344  67.9930954  52.1050262  42.2594070   5.9611225  76.7404709
  43.1273232   5.7699876  76.3849106  41.9354019   6.6853895  76.2050400
  49.2527885  46.6034966  88.0183258  49.6672783  47.4661446  88.0347595
  48.7455444  46.5969124  87.2066040  67.9159012  34.3375893  44.1330070
  68.8531189  34.1703224  44.0335732  67.8683929  35.0961189  44.7149048
  34.5149536  46.5689850  52.6639824  34.7384949  47.0452423  51.8643303
  35.3577232  46.2810211  53.0147667  17.4441128  47.8881302  25.7266636
  16.7486229  48.5436249  25.7800636  17.6480923  47.8308487  24.7932072
  84.9591751   0.8841844  77.7008591  84.0605087   0.9282876  78.0275040
  84.8945618   1.1540939  76.7847824  69.3868408  26.2788734  76.2236862
  69.6907501  26.7252712  77.0139999  69.8234787  25.4273739  76.2466431
  28.7152996  60.5037689  72.0594788  29.1006870  61.3344231  71.7806854
  27.8019657  60.5570564  71.7780304  16.4043694  33.9078674  59.6974068
  17.0983391  33.4963493  59.1823425  16.7584839  33.9503670  60.5856781
  53.8301430  16.9747219  29.3295383  52.9711227  16.5996056  29.1356335
  53.9177666  16.8942757  30.2793198  59.2441559   2.9991508  50.3509483
  60.1519508   3.2559600  50.1891289  59.1523018   3.0311401  51.3031960
  24.0477123  44.7862587  50.1952629  24.8915482  44.4959030  50.5414848
  23.3994789  44.3042679  50.7087898  44.8068047   0.5659913  81.0167999
  44.6144676  -0.3521014  80.8261566  44.3948441   0.7256923  81.8659210
  78.5513077  23.9573040  79.8912506  79.2627716  23.9801636  79.2513046
  77.7630310  24.1392174  79.3796310  12.6953135  65.6270447  88.4583359
  12.7492161  65.3971252  89.3859482  12.5611076  64.7910919  88.0117874
  61.6650620  66.4839478  63.3306046  60.7753792  66.2222061  63.5676346
  61.6728630  66.4666748  62.3735924  80.2692947   6.4547138  53.2662659
  81.0752258   6.9710875  53.2584038  80.3500824   5.8731389  52.5103035
  64.8824844  37.5538254  83.4709091  64.9818802  37.2391243  84.3694153
  64.1110306  38.1197586  83.4993057  45.2335472   6.5497890  73.2495575
  45.6989555   7.2604489  73.6906815  44.3897896   6.5008407  73.6988983
   4.1882257  59.6926422  10.3563261   3.8283257  58.9558945   9.8624554
   4.8750496  59.3047943  10.8986149  20.3047466  26.5585632  30.8442936
  20.1656685  26.6568089  31.7862263  19.8211536  27.2863789  30.4535847
  52.9679985  44.1748123  17.7463360  52.4089317  43.8250504  17.0525455
  53.8121071  44.3251915  17.3207760  50.1134758   4.3803120  15.6467571
  50.6882286   3.7707164  15.1838446  50.6866226   5.1034350  15.9013710
  13.2535505  71.0282516  26.4498825  13.2808371  71.9799042  26.3506641
  13.0256109  70.8897171  27.3691673  26.0298061  14.9927835   6.1778083
  26.4635105  14.3521347   5.6141572  26.0340557  15.8025541   5.6674318
  57.7681732  33.5174217  35.6045609  58.1058121  33.9285126  34.8087997
  58.4401283  33.6862831  36.2650070  18.4635639  36.4302177  80.1597366
  18.5274868  36.6756744  79.2367554  19.3721714  36.3646240  80.4536133
  73.0596237   7.7021952  38.1273956  72.5131760   7.8167720  38.9048920
  73.9222641   8.0219173  38.3916931  17.5294495  18.9185867  69.0734177
  17.9197807  18.2259216  69.6064148  17.8262730  18.7315407  68.1828308
  46.8713875  65.9991379  47.3747520  46.5208092  66.5883026  48.0427437
  47.8211937  66.0588150  47.4773903  71.3276215  61.2357483  33.7780533
  70.9829254  60.4409790  33.3709183  72.0545807  61.4981956  33.2133522
  14.7589512  19.9624710  15.4393740  13.9262085  20.4329967  15.4022846
  15.3939457  20.5690193  15.0584364  14.2410688  55.8892860  25.5694447
  14.2369757  55.9806480  26.5222664  14.9139252  55.2312584  25.3948193
  44.3036308  50.6453590   8.5205593  44.9237862  49.9822350   8.2173929
  44.8172684  51.4519463   8.5632057  68.7928925   9.8681345  34.9939194
  69.5866776  10.3505878  34.7628632  68.9484787   8.9813271  34.6689606
  76.8656235  45.3220634  60.0516853  76.9384918  44.6301804  59.3942528
  76.1593781  45.0309563  60.6284904  32.5644836  27.2768612  88.2596893
  31.9008369  26.7359791  88.6877594  32.3851967  28.1650085  88.5683670
  54.2075806  46.1689529  45.5857468  53.2640877  46.0264206  45.6614723
  54.5648041  45.3045845  45.3820534  27.7597866  36.5904694  64.2814331
  27.8885059  36.2039337  63.4152641  26.8252048  36.7943726  64.3162384
  16.7782669  19.2267570   3.8021617  17.1695232  18.5542755   3.2445607
  17.1348572  19.0528469   4.6732697  83.6973419  46.5985985   6.6489158
  83.5664062  47.3595314   7.2146654  83.3141556  45.8691673   7.1360860
  29.0232830  44.7395821  62.8855553  29.4257298  43.9749756  63.2974358
  29.7142429  45.1057320  62.3335190  79.6785583   6.3406138   9.1626749
  79.3281021   5.7359385   8.5086231  79.2006607   6.1292605   9.9646597
  33.4624176  49.0974388  71.2502594  33.0943832  48.5598831  71.9515533
  33.3320808  49.9985390  71.5456619  47.4871254  26.2069645  72.8929901
  47.9769745  26.2377987  73.7147751  47.8653374  25.4680824  72.4162903
  12.6653576  55.0449104   5.6715822  12.4640388  54.1642876   5.9881325
  13.3412552  54.9118385   5.0069876  85.3188629  49.2618065  81.4660721
  85.8789825  48.7234077  82.0251999  85.8995132  49.5684319  80.7696152
   8.5215216  27.0392551  10.1817274   7.8803740  27.7467003  10.1132793
   8.2381248  26.5319405  10.9423504  36.8529434  40.7191849  85.1578140
  36.8593826  41.6081657  85.5126495  37.1212234  40.8237114  84.2449493
  47.9035606  42.3394012  14.7264633  48.4541626  41.7499657  15.2418642
  47.9280434  43.1686745  15.2038870  57.3713722  36.4847107  41.1602402
  56.9003639  36.8709183  40.4218483  57.5709801  37.2264633  41.7313690
  81.3389587   0.6654432  45.4505424  80.9164200  -0.0296695  44.9460487
  81.9210968   0.2035318  46.0538521  60.6627312  22.6647358  63.0096169
  60.9210930  22.3281784  62.1515884  60.2272873  21.9262486  63.4353600
  66.2919922  40.3397369  75.6742630  65.6870728  39.6285172  75.8851547
  67.1547165  39.9252243  75.6638565  76.9642715  60.1584854  16.9769955
  76.1940079  60.5842514  16.6006241  76.8489075  60.2476006  17.9230309
  59.2412987  60.1754265  73.1612244  58.6261292  60.1966553  72.4281769
  58.8463936  60.7444954  73.8218613  72.6185074  42.0211411  16.3459320
  72.9880295  42.5359879  17.0632973  72.1771469  42.6648064  15.7917423
  11.2395430  37.8728752  61.0707932  11.6939392  37.0450478  60.9144020
  11.9131584  38.5422478  60.9507332  44.3069000   1.6184734   4.0432115
  43.7059898   1.1069816   3.5014441  44.7537117   0.9679860   4.5849285
  67.0436249   0.7690094  68.9193802  67.9493256   0.7560402  69.2288513
  66.9499664   1.6184806  68.4882660  19.3059788   7.1437764  84.0713577
  19.8576317   7.6605415  84.6586151  18.6228065   7.7514153  83.7880173
  28.7700710  69.3894348  65.6451569  28.3965416  70.2702866  65.6737061
  28.4847527  68.9816666  66.4628067   6.4171324  49.2979317  42.4448433
   7.3157020  49.6275673  42.4328003   6.4500556  48.4937592  41.9267159
  19.1202431  58.0070686  66.0069122  19.8299522  57.3730965  66.1099930
  18.4057655  57.5051003  65.6147614   7.8186684  65.3987961  65.8963470
   8.1237669  66.0053329  66.5710754   7.1021509  65.8628769  65.4633789
  66.9848251  66.7638397  29.4425793  67.6197281  66.2408447  29.9320755
  66.2004852  66.7635574  29.9912453  64.2157440  24.4641266  56.9655838
  64.8914871  25.0080433  57.3702507  64.3004913  24.6351757  56.0276108
  70.6107330  23.8211098  18.1886139  69.9265366  23.3796444  18.6918106
  71.3321304  23.9288998  18.8084564  26.7189960  51.3453026  80.1135712
  26.6482658  50.5793037  80.6832047  27.6553936  51.5426788  80.0927887
   6.6949883  13.9858971  81.6800766   6.7595530  13.0354357  81.5868683
   6.8464079  14.3239441  80.7974472  52.0650330  63.9376640  65.4263153
  52.2009583  63.9246635  64.4789047  52.4581184  63.1216507  65.7359009
   8.7718582  21.9744072  78.8838577   8.7767115  22.2310658  77.9617233
   9.6933508  21.8257504  79.0959549  41.1076088  21.9396133  85.2793503
  40.4382935  22.1177063  84.6186447  40.6134987  21.6791153  86.0566711
  52.0876236  58.1098747  56.5494194  51.9550858  58.7394409  57.2581596
  51.4239883  57.4366760  56.6998367  31.7478695  64.6700439  52.1285782
  31.3333302  63.8080978  52.0907555  31.0216713  65.2887115  52.0503464
  24.5234852   9.3188581  71.6841049  24.7120705   9.2750187  72.6215134
  25.1953430   8.7706652  71.2787323  16.7891617  29.6197052   2.2481852
  16.4970970  30.0914936   1.4682192  15.9804144  29.3232384   2.6656373
  52.4587898  67.1918716  49.7433014  52.3575592  67.5633316  48.8669434
  52.0770607  66.3165207  49.6779671  74.3162537  36.3132324  26.1923084
  73.9707031  36.6250267  27.0287361  74.0347366  36.9711914  25.5566444
  62.3896751  13.0512285  21.8859768  61.4869537  12.9526272  22.1886444
  62.3351326  13.6878204  21.1732292  11.3123150   0.8592644  84.7434235
  10.6170139   0.3072963  85.1013565  10.8907852   1.3465738  84.0355530
  43.8249512  61.1452332  81.6723404  44.2057571  60.8046722  80.8628769
  44.4544525  60.9057198  82.3524780  56.3435669  19.5797081  75.0481033
  56.4754639  20.5136795  74.8852158  57.1233978  19.1606331  74.6841431
  10.9921694  11.1992054   5.3499603  11.1035252  10.2495537   5.3053055
  10.8376646  11.4651270   4.4435139  81.5601578   4.4767580   6.0204034
  81.2235336   3.7745819   6.5770574  81.2102356   5.2787132   6.4085436
  74.8827591  14.0280724  79.0309982  74.4720993  14.4910936  78.3007889
  75.5586777  14.6284389  79.3455276   7.6261568  11.5997858  19.6275978
   8.2090683  11.3581667  20.3473663   7.8575482  10.9983692  18.9197922
  39.6433029  42.5883331   5.5493860  40.3475151  42.8932915   4.9772696
  39.1450348  43.3785439   5.7580113  42.5183563  26.5658131  80.2001419
  41.7472916  26.0359325  80.4024277  43.2331543  25.9327259  80.1330872
  37.1273537  49.8796082  60.0082092  37.8477058  50.4056320  60.3555222
  36.7294121  50.4326401  59.3358803  18.0549030  38.1801262  17.1375847
  17.8042870  38.8160133  17.8077126  18.1100426  37.3473663  17.6063023
   6.7818627  -0.0518767  15.2682095   6.4491844   0.4068618  14.4967718
   7.1476083   0.6401429  15.8191814  86.0171356  16.6966858  10.2686195
  85.9835815  17.5291729  10.7398634  85.3807144  16.7964153   9.5606270
  63.8047028  31.9155598  39.1062050  63.9677010  32.7018585  38.5852470
  62.8807564  31.7158070  38.9556999  10.0832729  53.4379387  22.0772572
  10.7550735  52.9081459  22.5064812   9.2656603  52.9689369  22.2439213
  29.3447475  66.2226639  51.5186691  29.7017899  67.0552216  51.8278656
  28.6050739  66.0483551  52.1006775  39.5030556  55.0981903  44.6255875
  39.5373077  54.6699638  43.7702026  38.8871346  55.8212395  44.5069656
  75.2114258  65.8732071  55.2539444  74.2632828  65.7424622  55.2669601
  75.4729156  65.6417084  54.3627281   8.1732168  64.8153305  49.0107117
   8.0930367  64.4009552  48.1515884   9.0514002  64.5792084  49.3094940
  62.4798012  10.5668039  60.3566856  62.4398499   9.8943634  61.0367279
  62.2405128  11.3770380  60.8066750  47.5978050  29.0531273  18.4456005
  47.3668060  29.1282673  17.5197353  47.3820953  29.9087868  18.8164787
  50.5294724  52.2773857   1.0640749  50.8652229  53.0293236   1.5520259
  49.7091255  52.5876083   0.6806394  39.0793648  46.5353546  29.5809765
  38.5003204  45.7739296  29.6151752  39.4459267  46.5973053  30.4630356
  60.6194038  56.0821228   7.8831649  61.3158264  55.4640808   8.1050959
  60.4945107  55.9737854   6.9403520   9.3864746  54.7353592  36.0618820
   9.1413155  53.9346848  36.5256157  10.1049433  55.1007233  36.5781631
  86.7817535  29.0311794  18.3567123  85.9805450  29.4760666  18.0803394
  87.4606934  29.7035599  18.3003502  13.0824909  17.4636822  70.3452606
  13.8934908  16.9782257  70.4963989  12.8236132  17.2262440  69.4548416
  79.3176956  24.5623608  60.8659325  79.3981552  25.5143833  60.9243469
  78.7733841  24.4150066  60.0924644  20.5227432  27.5425968  79.5882492
  19.7256908  28.0389309  79.4022598  20.9917583  28.0747166  80.2309875
  73.6289520  57.3993568  55.9170151  73.1116028  57.5807076  56.7016754
  73.3332367  56.5355759  55.6294975  59.8743858  20.2189007  25.4504147
  60.4135857  19.8879528  24.7321033  59.8568687  19.5034447  26.0860634
  33.3085899  13.7891569  65.2406540  33.8652000  13.0124693  65.2969818
  33.1048546  14.0043354  66.1508255  23.0747929  71.3641739  75.9988785
  23.4922371  70.8453140  75.3113022  22.1363640  71.2514572  75.8476257
  85.9087601  39.7319832  23.7264290  86.7242355  39.2395592  23.8199730
  85.5037079  39.6913452  24.5927505  40.7304153  30.5300217  62.8183479
  41.1720619  31.3663597  62.9657173  41.3995819  29.9724808  62.4213600
   3.9294212  42.4510040  41.5810814   2.9875338  42.3677483  41.7299042
   4.0164042  43.2243156  41.0237122  22.4980278  70.5653992  58.5508690
  22.8687611  71.1790543  57.9166641  23.1777744  70.4707260  59.2181129
  26.8277855  48.7239227  62.3254700  27.1855450  48.4482727  61.4815178
  25.9121647  48.9330254  62.1406860  86.3209991  15.2061567  27.6465626
  86.5632706  15.5238342  26.7767258  85.8529205  15.9386616  28.0472794
  79.1010132  28.5435314  21.5991383  79.6333694  27.9411907  21.0795155
  79.5084381  29.3993511  21.4657021  77.8509979  61.2843552  69.3719177
  78.4289093  61.8073387  69.9275589  77.9713287  61.6459198  68.4938431
  30.1100502  42.4204254  42.2440186  29.9621582  43.2759743  41.8410416
  29.2325344  42.0963097  42.4468613  51.0398750  54.2204399  66.7894821
  51.2962303  55.1420174  66.7546616  51.7639923  53.7544479  66.3714752
  46.1139221  13.7362633  35.3123665  46.4335060  14.5710421  35.6547775
  46.7552185  13.4894495  34.6459923  22.4417934  21.8125343  75.1681824
  22.7488213  21.5434093  76.0339432  22.6036758  22.7554970  75.1390915
  63.2901459  55.0580254  12.2379990  62.4606781  55.5140495  12.0956726
  63.8053322  55.2476387  11.4538670   7.6259618  55.2113266  62.6248322
   8.5471439  55.0156479  62.4534683   7.4033322  54.6709900  63.3829231
  44.6843262  25.0424767  67.2957535  43.9261284  24.8384113  67.8432236
  44.3197060  25.1717949  66.4202194  84.7547531  43.0668602  12.5829811
  84.3419342  43.1675148  11.7252617  84.1304626  43.4546585  13.1962519
  46.3140717  19.5021591  73.0592270  46.3588104  19.6879692  73.9971542
  45.6142998  20.0695438  72.7357712  30.3365898  56.9069748  28.0724697
  29.9575500  56.0820999  28.3760166  29.5846806  57.4879723  27.9571266
  57.6454277  62.2976723  74.0407944  56.9020996  62.0217209  74.5770264
  58.2373352  62.7301331  74.6563034  57.4891319  10.0217619  57.9808502
  57.8540001  10.8824158  58.1867065  57.6864853   9.4876747  58.7502899
  45.2186317  13.3600254  65.1941910  45.3893509  12.7461119  65.9084702
  44.3509979  13.1166172  64.8713913  73.5635529  51.9090767  56.0720139
  74.2243271  52.3745956  56.5847511  73.8568726  50.9979324  56.0741081
   8.0258808  59.5321808  17.3373852   8.2390947  58.9475632  16.6100655
   8.3575096  59.0801048  18.1131935  75.2961426  58.6366882  67.7086487
  75.7003174  58.3957672  66.8750839  74.6064987  59.2561874  67.4702377
   2.6101134  58.9897499  79.7223129   1.6982679  59.1151161  79.9850922
   2.7164888  58.0398026  79.6721878  78.1778412   3.0726154  49.3306618
  79.1346130   3.0448840  49.3383179  77.9143982   2.4332352  49.9924927
  23.1326466  39.4637718  88.8310547  23.3717175  39.1096802  89.6876144
  22.2205620  39.2002525  88.7090302  50.1078186   8.4038458  27.3340912
  50.4118347   7.5150294  27.1502094  50.1186180   8.4679060  28.2890835
  77.8567123   7.6178837  53.1315689  78.7280655   7.2218227  53.1421280
  77.2582016   6.8773556  53.0334473  66.7451935  38.7012138  73.0582199
  66.0707092  38.0865746  73.3472290  66.9544754  38.4249992  72.1659546
  37.2657890  30.9422073   6.0848875  38.0653152  31.0305538   6.6037169
  37.2477875  31.7269707   5.5371146  66.0415497   0.9411120  64.7645798
  65.5797729   1.5657084  64.2052307  65.7882080   0.0827396  64.4251022
  61.1848984  42.1340370  20.7095642  61.8325691  41.4298401  20.7388420
  61.5295525  42.8012657  21.3030739  78.3233490   3.5258768  76.4517441
  78.0818558   2.7001047  76.8712845  78.2064133   3.3622491  75.5159073
  26.5733128   9.4124184  20.1569176  25.7111301   9.1924191  19.8041115
  27.0457993   9.7914276  19.4157429  31.6398983  50.8295937  85.2517929
  31.0906944  50.1232414  85.5919037  31.6982441  51.4561157  85.9731140
  60.4611359   0.5052295  71.2595215  59.9214325   0.0190080  71.8828583
  61.3525085   0.4214234  71.5981369  39.0346184  51.9428711  11.3001041
  39.9501381  51.6977577  11.1660147  38.5796661  51.1101341  11.4257908
  39.5084229  28.9432831  84.4990997  38.7588005  28.5936985  84.9808578
  40.2440681  28.8572197  85.1054459  58.6884956  70.0243301  84.2755585
  57.8448982  69.8355560  83.8645325  59.2505875  70.3019028  83.5522003
  72.1906815  68.5681839  43.5088997  73.0077591  68.7492447  43.0443192
  71.8948669  67.7293625  43.1552010  37.9126854  53.2574883  26.9225540
  38.4219246  53.4146156  26.1274319  38.4015579  53.7059021  27.6126003
  56.0852470  48.7717438  57.1880493  55.2664337  48.5715065  56.7345238
  55.8164558  49.2749596  57.9566574  60.1906624  68.1818542  -0.2693495
  60.8342094  68.5100403   0.3586429  60.0793762  67.2596207  -0.0384268
  62.8132057   9.0822430  73.9513092  63.3354149   9.3859558  74.6938019
  62.4301414   9.8796616  73.5857697   0.8575945  70.1323242  13.4911089
   1.0607802  69.2758713  13.8672009  -0.0327267  70.3194580  13.7886677
  25.9875908   6.4539185  30.2462940  26.6257782   7.1431103  30.0620079
  25.1954041   6.9242697  30.5059891   0.1087531  28.2200470  24.8233490
   0.8274965  27.6746922  25.1430779   0.5384775  28.9121342  24.3207703
  74.4438324  33.1302986  76.5576172  74.3943481  32.7894821  75.6645203
  75.2148438  33.6975441  76.5551376  58.8753853  45.1568336   9.6674099
  57.9538498  45.2137184   9.4148855  59.2549744  44.5322227   9.0493460
  37.5956802  56.2894554  34.8759270  37.4613419  57.2210197  34.7016487
  36.7506981  55.8847961  34.6797447  53.9702034  31.1057091  67.7680130
  53.7883034  30.9781284  68.6990662  54.8257179  31.5345612  67.7476807
  54.2970085  66.7074280  16.8640537  54.7369308  66.1590576  16.2144432
  54.9773979  66.9111404  17.5057755  36.2522545  21.9560375   6.7886944
  35.4480438  22.1615658   6.3120022  36.9165916  22.5193348   6.3917246
  16.9707890  10.6484995  12.4852428  17.1484509   9.8346901  12.9568167
  16.0806236  10.8862305  12.7447033  50.4735680   0.5538046  52.5811768
  50.7878189  -0.3415295  52.7070885  51.0368004   0.9109950  51.8945770
   4.3387947  10.4246178  26.1114159   4.6135955  11.2002449  26.6004124
   4.9968429   9.7624817  26.3230286  54.1160164  62.6298904  39.9639320
  54.1118088  61.7832756  39.5173225  55.0408363  62.8727722  40.0081291
  57.1215019  49.6176872  53.7223358  57.6805344  48.8467484  53.6255722
  56.2477074  49.3120079  53.4788666  60.0570984  64.9019318   3.0546279
  59.5460091  65.2815552   2.3398514  59.8889465  65.4770737   3.8010681
  29.0726070  19.2776260  76.5886612  28.6884384  19.3693657  77.4605789
  29.5636044  18.4569111  76.6284103  86.1321411  35.8487625  45.9710350
  85.6029053  36.4522171  46.4925652  86.8944550  36.3645477  45.7082138
  77.7618484  61.5506287   8.6982765  76.9175110  61.9688110   8.8669338
  78.0513763  61.9229126   7.8653240  56.1626091  49.5324364   9.4388981
  56.2422638  49.9584961   8.5854578  55.8586922  50.2254105  10.0251160
   9.6224470  41.8554535  55.1632805  10.2628517  42.1443520  55.8133965
   8.9493866  42.5360107  55.1712151  86.4768982  48.3588028  54.6589928
  86.5278091  48.2133827  53.7142754  85.8903351  49.1091652  54.7545586
   4.5485320  36.1792831  81.6840134   4.8762326  37.0619011  81.8567352
   4.3107185  36.1892700  80.7568741  29.6955471  69.8594208  48.9932899
  29.0737476  70.1539001  49.6587830  30.5073891  70.3210983  49.2030411
  47.5782700  37.2052307   3.5382619  46.8062363  37.2798042   4.0991855
  47.2297325  36.9519997   2.6834946  63.0497322  52.7925224  19.0878754
  62.4877892  53.3274803  19.6484756  62.4564629  52.1520042  18.6954498
  70.0403290  50.1843033  22.5602417  69.2178497  49.7868233  22.8461914
  69.7921219  51.0586052  22.2598743   0.1311229  57.0616188  16.2806854
  -0.2197139  56.4657784  16.9425888   1.0638664  56.8507347  16.2388725
  80.6176376  38.3667221  27.8100090  79.8196564  38.6870232  28.2305603
  80.7827454  37.5193787  28.2235050  34.2510414   1.3838328  64.1883087
  33.4794159   0.8897156  64.4652100  34.2743340   1.2784473  63.2372131
  65.2450104  66.1038895   6.9903121  65.9341965  66.1642151   6.3287873
  65.3963699  66.8556976   7.5631223  20.5069160  45.3908882  55.7660446
  20.2488213  44.6770706  55.1828804  19.9126701  45.3168602  56.5127869
  32.5960960  56.8091507  13.7881985  31.6836395  56.7134972  13.5152416
  33.1044388  56.5447617  13.0214415  49.4713860  53.5205498   6.6370697
  49.0914154  52.8564682   6.0618744  49.0278282  53.3932037   7.4756842
  27.8293591  47.7667694  59.7661476  27.3353195  48.0296249  58.9895744
  28.7467365  47.8492966  59.5056877  13.5604153  44.1586456  15.1828356
  12.6300964  44.0712433  15.3904428  13.6694117  43.6756706  14.3636370
  19.7858906  10.6591396  87.2286911  19.5983391  10.9559231  86.3381958
  20.3531551   9.8969231  87.1126328  13.1727734   6.4857683   4.3624735
  12.4085169   6.6146412   3.8007481  13.8653803   6.2057533   3.7640421
   1.6608517  66.6825027  47.6349182   0.9548386  66.9001007  48.2435417
   1.2525806  66.1027756  46.9919052  46.6808052  40.2120094  22.6622925
  47.6116447  40.3338051  22.8491993  46.2487259  40.9356918  23.1159706
  30.5542126  65.5338898  14.3644543  29.7118912  65.5089798  13.9104671
  31.2049770  65.4668884  13.6657057  82.9634933  69.9695511   9.5224571
  82.0597687  69.6861038   9.3839731  83.1698685  70.4972839   8.7510061
  23.4723034  37.8140221   1.8712382  23.3156223  38.0875854   2.7750340
  23.8568630  36.9408836   1.9485238  64.5092239  55.7106705  76.1538696
  65.3182678  55.2033463  76.2193832  64.5176926  56.2758446  76.9263611
  27.2304363  41.9168015   6.2851205  27.3270779  42.8580170   6.1401854
  27.0481148  41.5581970   5.4165626  44.0368156  28.3022556  17.7071209
  44.1088295  27.9920158  18.6097832  43.6232452  29.1622734  17.7817173
  23.6421585  25.2981014  62.0806160  23.8158779  24.4654655  61.6415596
  23.1210384  25.7966118  61.4512100  74.8643417  44.0801430  39.1147461
  75.1050110  43.5060921  38.3875771  74.6493225  43.4823761  39.8307571
  79.7867050  12.7302513  42.2321854  79.4892654  13.3372288  41.5544357
  80.7338104  12.6747971  42.1051445  40.6005058  36.7280731  21.7850361
  41.2312965  36.0409622  22.0000095  40.2431450  36.4680176  20.9359798
   1.0653769   0.8854507  17.4820786   1.9127930   0.7378737  17.0621529
   0.6421009   0.0269480  17.4755669  12.1704206  61.7555351  70.3414688
  11.9962988  61.2126656  71.1103668  13.1047297  61.6364708  70.1708145
  43.4322891  63.3716049  35.7980309  44.3206902  63.5173645  36.1231918
  43.5509377  62.8581123  34.9989815  83.8856201   0.7674240   3.5257125
  84.4633331   1.2189499   4.1410179  83.4993362   1.4687468   3.0011485
  17.2308426  36.0910454  46.3219604  16.2925720  36.2634926  46.4003220
  17.5387173  36.7291679  45.6783447   9.9250669  34.0910339   3.3189473
   9.5632553  33.4550896   3.9361165   9.6339941  34.9400368   3.6516678
  42.6142120  54.0141869   0.9888626  43.1046371  53.6856728   1.7423828
  43.2792854  54.1634445   0.3168251   4.9536190  21.9781132  84.8057175
   4.3453307  21.2648048  84.9991302   5.0321894  22.4563389  85.6311646
  29.5173359  68.0555038  45.3028488  28.9389896  67.3245163  45.0851326
  30.0885792  68.1444016  44.5399513  30.6511765  58.8225403  14.8858461
  31.3263493  58.5019302  14.2878628  31.1387463  59.1825943  15.6267004
  64.7434006   0.9133788  36.4295959  65.2238693   0.1068983  36.6166039
  63.9701233   0.6245875  35.9449577  79.5682831  37.0157776  77.6363983
  80.3356934  37.5873299  77.6617584  79.9166183  36.1396294  77.8014832
  61.8544006  63.9985466  37.4017181  60.9918022  63.6442261  37.1858101
  62.2400131  63.3487396  37.9893303  83.9077911  33.3039246  79.4196930
  83.2685776  32.5971603  79.5098114  84.3215256  33.1459236  78.5711136
  66.8179245   5.6073780  83.0420380  66.2488098   5.9160390  82.3370056
  67.6386337   5.3798618  82.6051025  65.6887817  34.9470520   6.7486076
  66.4326935  35.2901230   7.2437110  65.7561035  35.3689613   5.8920493
   8.5978508  45.0672684  25.5337925   7.9544492  45.3107300  26.1993713
   8.1752949  45.2822151  24.7022419  15.0818310  67.0832672  74.7083511
  15.0540161  66.9606094  75.6572571  14.1635571  67.0721130  74.4383926
  14.5868254  33.7715378   7.4268365  14.3750973  34.5018044   6.8453631
  13.8420429  33.1759529   7.3443155  36.8084335  69.6882706   6.3265162
  37.4356308  69.0582733   5.9716077  36.0578537  69.1561737   6.5905852
  77.5650253  36.8685684  20.5112534  76.9822388  36.6417160  21.2359066
  78.2620163  36.2136574  20.5504017   7.9347291  48.4953499   0.8817888
   8.1722651  47.7388268   1.4179623   8.3073254  48.3051949   0.0208328
  28.8113308  31.8267441  74.1971359  27.9612064  31.5508442  73.8544922
  29.4496460  31.3519821  73.6647949   3.1094754  27.5709381  50.6092339
   3.3366504  26.9233913  51.2765465   3.4643734  28.3944740  50.9439964
  14.1694365  41.2720261  49.3062630  14.6566563  40.4747810  49.5142136
  13.2795029  41.0952797  49.6112404  52.6105766   9.7634296  19.2927704
  53.2764091   9.3249254  19.8225002  53.0137711   9.8556595  18.4295444
  42.8219185  56.7052116  67.4421997  42.5296402  56.1455460  66.7227707
  43.0835609  56.0935402  68.1304092  72.9273834  37.5199318  64.4013062
  72.4444275  36.9902687  65.0356903  73.1736374  38.3080940  64.8854446
   0.1657110  69.9455872  17.1559410  -0.6725795  69.4851990  17.1166534
   0.8001496  69.3178787  16.8099651  42.4089584  14.0083885  81.1066742
  41.4610596  13.9084215  81.0187836  42.5177650  14.7735977  81.6713409
  42.7339554  31.0854549  83.8138962  42.4339294  30.6541023  83.0138016
  43.5958557  31.4355316  83.5884933  32.1245918  53.1903801  71.6617584
  31.8400517  53.5112038  70.8059845  33.0636864  53.0358658  71.5594864
  35.9276581  64.2956696  12.6192341  35.8395462  63.3737717  12.8612461
  35.5290031  64.3545303  11.7509937  27.0703659  66.7788544  87.3646774
  26.1554070  66.5035706  87.4221573  27.3814869  66.7665863  88.2698212
  52.6488609  33.1901016  23.1528511  52.9371796  33.0992088  24.0610600
  53.4314995  33.0057297  22.6335106  17.8762150  67.7935181  15.7273436
  18.6141968  67.1881027  15.7987003  17.5823765  67.9203491  16.6294537
  60.8880768  64.6185684  86.8505096  61.6495399  65.0701828  86.4865723
  60.8607025  64.8952026  87.7664490   7.4931350  14.8656874  29.7059193
   7.4791923  15.0896864  28.7754021   7.8183422  15.6557007  30.1376038
  73.8121338  12.2181892  71.1572342  73.0581360  12.0007229  70.6091232
  74.4408951  12.6138229  70.5536041  82.6428757  30.7475052  29.9895611
  83.0579910  31.3183041  30.6361675  82.7395401  31.2152481  29.1600399
  45.0457039  10.1067610  70.7358093  45.0527382   9.9723835  71.6835022
  45.6884766   9.4817467  70.4004974  83.2331924  22.0646057  69.3926315
  82.4181900  22.1670914  68.9011993  83.8656616  21.7529640  68.7452621
  68.4856796   4.8809676  85.9199829  68.6187592   5.7839007  85.6314850
  68.8133392   4.8660951  86.8192368  29.8745251   0.5103255  64.6075058
  29.1649914   0.6048731  65.2429962  30.6385193   0.2763282  65.1345596
  56.1351852  20.5739136  25.4690266  56.3754234  19.8757401  24.8598690
  56.7738800  21.2671890  25.3026867  77.3307877  59.9602394   3.2189612
  76.5507050  60.4102402   3.5433087  77.4856033  60.3419342   2.3549154
   7.9877033  50.8448906  81.0404892   8.9170303  50.8994560  81.2632065
   7.6279311  51.6915855  81.3048782  49.1863899   6.2510772  76.7927094
  48.2684975   6.0045075  76.6791000  49.4168472   6.6982036  75.9783401
  53.5989838  18.4223785  35.2466736  53.9263115  19.3141785  35.3640633
  53.7275162  18.0059452  36.0989037  85.7746964  64.9536514  71.2340164
  85.0456848  65.5167618  70.9738617  86.5433426  65.5226212  71.1929245
  45.4262428  29.2956505  88.7770615  44.6338539  29.7964344  88.9708710
  45.1301231  28.5934353  88.1978912  81.0580902  38.4148254  86.1179810
  80.9485321  38.8474197  86.9647980  81.9507446  38.0699043  86.1389465
  52.6582222  48.4624672  67.7873917  53.3247185  48.6736031  68.4411850
  52.7827110  47.5299377  67.6109772  13.2249107  67.9654007   2.0541596
  13.9721289  67.3702316   1.9936291  13.5300083  68.7752457   1.6451244
  58.8480911   9.4791460  71.2182617  58.9483681   9.2694159  72.1468048
  58.5340996   8.6665020  70.8217087   2.8670449  14.5186949  38.6104431
   2.5358381  14.0875120  39.3982315   2.3267269  14.1700182  37.9014206
  56.3572464  52.4016876  82.2778473  56.3383827  52.9546242  81.4967346
  55.4353943  52.2515869  82.4873581  70.6583176   1.0462350   8.1816196
  70.4951477   0.2862073   8.7401571  69.9225082   1.6333606   8.3551197
  56.5426865  68.7829361  78.1569138  55.7724342  68.5626450  78.6807556
  57.1464272  68.0541687  78.3005142  76.8572083  42.2979507  28.6988316
  77.6331558  42.4347496  28.1553040  77.1952209  41.9081116  29.5050621
  38.0150261  39.2109718   2.1363537  37.7367630  38.2956009   2.1063960
  38.4620438  39.2979889   2.9782777  52.6624374  66.1115265  54.6188660
  51.7607231  65.9370575  54.8885002  52.6686058  65.9387207  53.6774139
  60.6598854   5.1156678  42.1303902  61.2146950   5.0158987  41.3567848
  61.2457848   4.9481015  42.8685493  61.5731888  52.0752029  36.8514519
  60.8497047  51.6161499  36.4247475  62.3427353  51.8462029  36.3303108
  83.2100601  51.4219856  18.1660938  82.4345856  50.9589577  18.4830685
  83.3000107  51.1427422  17.2549610  15.7962236   3.9792972   0.7013348
  15.3366947   4.6932006   0.2592867  16.2651577   3.5261345   0.0006371
  35.4541512  35.5566902  14.2505159  35.7710991  35.9822655  15.0471725
  36.2074852  35.5623169  13.6600180   1.8069823  63.8399315  61.7912636
   2.3318963  63.3199081  62.3997650   2.0641193  64.7451782  61.9663048
  40.7183609   7.5055723  75.0850525  39.7843246   7.3400450  74.9569473
  40.7588768   8.0575895  75.8659897  31.8114395  15.2849560  67.6857834
  31.0392246  15.3082256  67.1206512  31.6280022  14.5858355  68.3133316
  46.6481361  49.2596359  34.8349495  47.5940399  49.2464828  34.6889114
  46.5098114  49.9853973  35.4435272  11.9694471  58.4456024  58.2581673
  12.7983150  58.0426636  58.5167236  12.2186251  59.2980576  57.9011459
  17.0716400  55.1525536   6.6111708  17.2741871  55.9995689   7.0083790
  16.4819126  54.7300644   7.2356339   1.4310837  43.5572548  55.3794861
   2.3086402  43.9011192  55.2125015   1.4062759  42.7247543  54.9077225
  10.3642006  54.3584785  49.3524361  10.1474552  55.1264305  48.8237572
  10.9666719  54.6887894  50.0188866  82.8825455  18.2769299  71.8568954
  82.1852798  18.8911972  71.6272736  82.8916702  18.2718430  72.8140335
  79.6145859   5.3103728  11.8394432  79.8331070   4.4500179  12.1975918
  79.7364273   5.9131413  12.5729675  75.8668671  61.5868874  58.2245140
  75.0815735  61.3830986  58.7324715  76.1923981  62.4031601  58.6039276
   7.4614182  21.9985790   4.3608389   8.4112501  21.9397869   4.4637694
   7.2292371  22.8389053   4.7560310   9.7145023  51.2886047  78.6726761
  10.2614336  50.7005310  79.1935043  10.0407743  52.1645355  78.8788910
  56.4668694  29.2561760  33.3448601  56.3784256  30.1198082  33.7480316
  56.9821815  29.4128838  32.5535774  34.2110519  70.2660294  53.8496399
  33.5024948  69.9926453  54.4322510  35.0105057  69.9974823  54.3023949
   0.3513891  15.8677006  24.6118164   1.2706858  16.1193199  24.5234280
   0.3660980  14.9108887  24.6347733  76.8185730  50.2967834  42.3979988
  77.2510757  50.9474869  42.9509544  75.9509048  50.1899147  42.7878113
  61.9382401  22.0509510  30.0647774  61.1370773  22.1837502  30.5714684
  62.6391411  22.3571148  30.6403084  18.4613190  18.6873779  23.8653069
  18.9913387  19.4781303  23.7651920  18.0269585  18.5814323  23.0189400
   4.1042500  11.9281178  78.7658997   4.4344687  12.1641417  77.8990250
   3.9666495  10.9819555  78.7203445  33.5455933  66.7793732  40.4166336
  34.2392693  67.4121704  40.6026802  32.7660828  67.3149414  40.2691307
  14.4785442   9.2767296   4.2221084  14.9078236   9.0760279   3.3904414
  13.8082409   8.5997744   4.3151488   0.3138674   1.9534343  56.9608192
   0.4550797   1.0119488  57.0602951   1.1371380   2.2822824  56.5998230
  53.9643784  31.5854816  18.9172516  53.3184547  32.2913589  18.9447155
  53.8250961  31.1015682  19.7312908  32.6537743  51.2252464  65.6262817
  32.9043579  50.3622589  65.2965927  33.1225052  51.3098221  66.4565582
  15.8967009  36.7425537  18.2547340  15.9817934  37.4648590  17.6324272
  16.0668297  35.9571190  17.7347527  71.9090042  13.0242500  35.6679649
  71.0125580  13.2827587  35.4539833  72.3353577  13.8381138  35.9364510
  66.4116821  40.9844208  27.3331337  66.4862518  40.0313873  27.2841816
  66.7987518  41.2972641  26.5154896  79.0808792  52.3448372  60.1406441
  78.3862457  51.6904716  60.2149658  79.3464355  52.3089294  59.2217178
  34.6214409  38.9265823  72.6451874  34.5989532  39.8659554  72.4626923
  35.4686699  38.6370430  72.3066483  68.2864227  36.4788437  83.3771896
  69.2218018  36.3913155  83.5606155  67.8640518  35.8850250  83.9978409
  23.4358463  61.0831032  63.6344872  23.7342205  60.4395943  64.2772141
  22.7252579  61.5495300  64.0746536  20.3515968   5.2782941  15.5710754
  19.5882664   5.5608845  15.0673876  20.7100201   4.5446982  15.0714741
  49.8855095  61.8324738  54.7879906  50.6287422  61.2292824  54.7872009
  49.9512100  62.2946014  53.9523163  43.1319122  52.3076820  69.9325256
  43.6866989  51.5378494  70.0582275  43.1773911  52.4848442  68.9929581
   7.3272600  62.8082657  39.2694473   7.2380738  63.5335388  38.6511841
   6.6960363  62.1558228  38.9659500  62.2603264  26.8310108  65.8241196
  62.6626854  27.2787285  66.5683594  62.0846863  27.5278511  65.1918259
  43.7155418  42.2318649  62.9225349  43.5013275  41.6120186  62.2253036
  44.5894623  42.5517159  62.6985016  64.5862961  43.6217728  37.2144585
  64.5668869  43.0791321  38.0027428  63.7218971  44.0318413  37.1846237
  67.4436035  28.1874657  87.0099564  67.2963562  27.5185814  87.6786499
  68.3276825  28.5101757  87.1845856  53.0224266  49.9795647   6.9261804
  52.2418022  50.3167076   7.3657165  53.2537880  49.1924286   7.4192529
   5.0472813  28.8581028  56.9743195   5.9603429  29.1281567  56.8762321
   5.0303912  28.3639660  57.7939415  17.8125191  48.0815125  87.4534912
  18.1325493  47.2812805  87.8699570  18.4927692  48.3104668  86.8201904
  26.9381104  38.0320320  88.8137436  26.0780373  38.2048759  88.4308243
  26.9714031  37.0800629  88.9079819  71.6947327  29.4474049   1.8602332
  71.7175140  29.2022457   0.9352411  71.1422272  28.7822514   2.2707679
  26.4354095  56.3066673  16.1742764  26.7418518  55.4058113  16.2781239
  27.1747665  56.8451843  16.4563789  35.1252480  25.7517853  16.9539356
  34.1823349  25.9149933  16.9764919  35.2021904  24.7993240  16.8979950
  62.1786537   0.6684095  62.7707977  61.5497055   1.0821552  62.1796379
  61.9742889  -0.2654678  62.7224312  83.7515182  25.2459030  73.4442291
  84.1945190  24.4552040  73.7520905  83.8810425  25.2391567  72.4958572
  50.6679688   9.9474239  86.4128189  51.3213921   9.9417772  87.1122742
  49.8276939   9.9098644  86.8697205  64.7535706  32.6226158  27.2918320
  64.8229828  33.0450592  28.1479588  64.9039383  31.6942329  27.4699516
  44.8991280  51.0261765  49.0608673  45.1694336  51.4163704  49.8920784
  45.0713425  50.0907326  49.1681709  82.9975662  63.8372726  13.7746048
  82.9847183  63.3355827  14.5896978  82.4542618  63.3292847  13.1721077
  41.6345825  56.0406609  52.6205978  42.2329865  56.1963921  53.3512764
  41.9063263  55.1947021  52.2645874  17.1612568  63.5465317  24.9122314
  17.2804947  63.0638428  25.7301712  17.3834763  62.9158249  24.2273502
   0.8035820  55.5608826  76.6399612   0.1902153  55.0831146  77.1983032
   0.9248330  54.9944954  75.8778992  86.2817535   8.2242069   2.2990639
  86.5617447   8.4697018   3.1808617  86.4219742   9.0128250   1.7749932
  65.4174423  38.7974167   4.9927344  65.3443756  38.9477997   5.9352193
  65.6065826  37.8624535   4.9133301  17.9271317  44.3092766   1.4486094
  17.3484993  45.0382080   1.2248350  18.0981636  44.4177246   2.3841410
  52.9021492  25.1928673   0.6260924  52.1890907  25.8223095   0.7337255
  52.8348389  24.6215649   1.3911506  22.2732105  53.9400711  40.6458893
  22.5090008  53.6141243  41.5144463  22.0016174  54.8456573  40.7955055
   2.2074192  54.1356926  74.2817459   2.9184003  54.2392159  73.6492767
   2.2246130  53.2066307  74.5114899  24.6108513  47.4874077   5.8220253
  24.8851357  47.3481522   6.7284513  24.6134167  48.4385376   5.7144427
  43.4118385  54.0121841  60.3481026  44.3664970  54.0810738  60.3586311
  43.1284561  54.7027969  59.7489548  31.7021713  52.2719498   3.4344602
  31.1105061  52.9227219   3.0567598  31.4835129  52.2616844   4.3662939
  84.3719711  13.4474459   9.7401161  84.5664902  12.5163345   9.6332302
  83.4179688  13.4865961   9.8078203  36.3399658  48.4095039  17.4957600
  35.8516579  48.6410065  18.2858200  37.1628838  48.0445709  17.8211269
   6.9489112  54.9306297  77.5917664   7.4652343  54.4186325  76.9692688
   6.4603429  55.5478401  77.0471725   0.9637907  52.9456253  16.1736355
   0.4525540  52.5520630  16.8807259   1.8666801  52.6868401  16.3581676
   6.5270004  40.9383965  19.5717335   6.4703274  41.0688286  18.6251564
   5.6220508  41.0026550  19.8769684   3.6428900  60.8604774  73.5260773
   4.2700868  61.1907120  72.8828049   3.6275721  61.5291557  74.2108154
   4.6399136  14.8580332   4.9588633   3.9870198  15.1689939   5.5859714
   4.8402605  13.9665051   5.2439413  39.8390770  33.6875648  10.0248737
  40.6638184  33.2020378  10.0076313  40.0997772  34.5975380  10.1670780
  73.5427475  44.2238274  70.0903549  72.8569107  44.1305199  69.4291840
  73.5153580  45.1488342  70.3349762  77.8830109  18.4118366  50.3221550
  78.1497269  17.6438522  49.8168869  76.9419708  18.4874744  50.1641884
  58.5925217  21.7178230   3.2563589  57.6918983  21.9401512   3.4923303
  58.5963326  21.7180080   2.2991664   5.9092708  66.4979324  30.7125454
   6.5996904  65.8792419  30.4742641   6.1546378  67.3117905  30.2724838
  80.1254196   7.4225383  26.0037136  79.3727493   7.5547042  26.5801201
  80.1951752   8.2394600  25.5097446  62.2317009  39.5177574  78.4396133
  62.8932838  39.3984566  77.7582092  62.0195045  40.4505615  78.4067230
  34.5686111  29.6610622  71.7609406  35.4550514  29.3398609  71.9261169
  34.0039673  29.0766792  72.2668076  73.3028564  23.7785149  27.9028339
  73.1506653  24.2408371  28.7270489  73.8584747  23.0370579  28.1431694
   9.2907648  67.2220764  60.8021889   8.9557581  67.2932434  59.9083557
   8.6633644  67.7129288  61.3329086   8.0197725  29.0442390  52.3750877
   8.6154327  29.7403030  52.0977516   7.5816956  29.3981457  53.1490822
  61.9618187  12.7150927  61.7956848  61.0485115  12.7066164  62.0820999
  62.2947159  13.5656643  62.0819321  71.8737335  13.8768625  13.8412733
  72.1541138  14.4752989  13.1488199  71.4925842  13.1328402  13.3750238
  70.5088730  40.0864410  80.2164459  70.4389267  39.5699272  79.4136047
  70.4206848  39.4455986  80.9219818  28.9321785  67.4743958  80.2843704
  29.6248779  67.8625793  79.7498474  28.8654861  68.0509262  81.0455475
  71.0925064  30.3356285  49.2523308  70.6104584  29.6420364  49.7026558
  71.9116211  29.9210110  48.9814568  11.9104404   2.6393542  17.1714630
  11.6286392   2.8302772  18.0660954  11.1978989   2.9647167  16.6213207
  25.4182339  47.0828476   3.3459918  24.9063721  46.9301453   4.1402912
  24.8461609  47.6123734   2.7905033   5.6924725  69.1760101  10.4427557
   5.0993514  68.5153732  10.8005219   6.3332996  68.6746597   9.9385557
   4.5510674   1.1036596  36.8318481   4.5417376   0.5094920  36.0814438
   4.7272534   0.5376116  37.5833664  68.5791702   0.6954027  50.5882645
  68.6946640   0.9711953  49.6789589  68.2302246   1.4691443  51.0307465
   5.9666624  21.7110443  78.2934952   6.6949239  22.3087883  78.4625168
   5.6575017  21.4581833  79.1633835  81.1691360  29.4646282  43.9647102
  80.8989944  30.3470211  44.2189484  81.2365417  28.9871998  44.7916031
  12.4620476  57.0333900  72.5243835  12.1177378  56.7199669  71.6880493
  13.2827711  56.5545769  72.6400681  70.2407913  64.5410995  46.3876228
  70.7063751  65.3000107  46.7390671  69.8019714  64.8712769  45.6036263
  62.6728477  67.2097702   1.4964249  63.1984901  67.9526825   1.1997554
  62.3524857  67.4724274   2.3593326  12.8861351  70.7044449   6.7088280
  12.8313742  70.2103500   7.5268192  12.7358942  70.0522156   6.0245342
  52.0120239  24.1010628  27.8011627  52.9040642  23.8641682  28.0548878
  51.4840202  23.3403893  28.0436974  44.8535118  60.8999062  53.4716034
  44.4900970  60.3868561  54.1933670  45.1642303  60.2459030  52.8455315
  46.4295731  68.4333496  26.8399582  45.9760399  67.6528778  26.5215168
  45.7334557  68.9878006  27.1924286  27.8588486   9.2388420  56.9976616
  28.8104553   9.3398294  57.0195389  27.6311321   8.9248581  57.8727531
   4.3677893  52.8327141  35.7927055   4.1350074  53.3102188  34.9964447
   4.6595850  53.5108414  36.4019890  35.8890114   6.9818149  15.7829256
  35.8449974   6.2581525  16.4079113  36.5693855   6.7211137  15.1621532
  68.0250015  70.9772873  81.2385025  68.5270462  70.2862549  81.6705475
  67.2806320  71.1318817  81.8200836   2.2335439   4.1232581   8.1755896
   1.3833634   4.4352689   8.4855480   2.1808827   3.1704566   8.2506065
  53.9256859  35.0345192  83.8247147  53.5113487  35.8088684  84.2054214
  53.4076576  34.2997246  84.1532822  78.8023148  43.4986115   5.4521909
  79.0972519  42.6228371   5.7017097  78.3037567  43.8079681   6.2084799
  26.8071880  46.5952950  49.3737411  26.8048534  46.8188210  48.4430122
  26.7989464  47.4404411  49.8230591  47.5989494  67.2386093  62.1899147
  48.4862442  66.8908920  62.2795563  47.0960236  66.7897949  62.8695145
   0.7742181  61.6779060   4.8809452   0.0530203  61.0485382   4.8807082
   0.3590332  62.5178680   5.0767035  47.9199791  17.2139244  14.6112652
  48.4194565  16.4346008  14.8550024  47.1613464  17.2044182  15.1948881
  32.7195053  38.1684723  83.1452103  32.6690521  39.0182419  82.7075119
  33.5020370  37.7564888  82.7789459   1.5474690   1.6862017  42.3139496
   2.0452003   1.9774922  43.0779152   1.9532582   0.8554115  42.0662498
  39.1104126  56.9240456  51.2485771  39.8895073  56.7201042  51.7659302
  38.3779259  56.6499519  51.8004532  27.6001797  71.2050323  56.0957642
  27.7330208  71.2439117  57.0429039  28.4529018  71.4319229  55.7247963
  64.0928879  31.4969578  64.5356369  63.4059219  32.0846748  64.2211533
  63.6891022  30.6291580  64.5248947  61.7875099  36.6129189  17.8905087
  61.5131607  36.4637184  16.9856873  61.5058861  35.8270645  18.3588600
  74.3905029   0.6127927  36.2421799  75.0420151   0.9681148  36.8467598
  73.5485458   0.8384873  36.6376457  61.3514862  60.7906456  56.3446999
  60.8437080  60.0072899  56.1331596  61.2146225  60.9185371  57.2833939
  70.9505463  20.2532578  25.6977844  71.4900055  19.7256031  26.2866764
  71.2648087  21.1486988  25.8229179  40.9667473  67.8028183  58.3094101
  41.2133331  66.9454041  58.6562004  41.3942070  68.4293213  58.8933563
  47.2280235  58.9483337  26.5052700  47.1858330  59.0330009  27.4577847
  46.8488579  58.0882797  26.3242302  71.1733322  63.9005890  42.6235695
  70.5412369  64.2921600  43.2263565  70.6527100  63.6489182  41.8607826
  86.4155655  34.0972290  13.9343681  85.8962402  33.8022614  13.1863565
  85.9262085  33.7953911  14.6996441  65.1477661  16.1965809  70.7379990
  64.7193680  16.5975151  69.9817200  64.6250229  16.4806480  71.4878540
   0.8265862  45.1684494  70.5198288   1.5182760  45.7962608  70.3109055
   0.0130566  45.6531601  70.3803482  45.3254318  65.7320786  76.4486084
  46.2244453  65.7689896  76.7751617  45.2574196  64.8735504  76.0308304
   7.5297422   7.1749234  31.3762550   7.2669945   7.5687895  32.2081604
   8.2985277   7.6769686  31.1057873   3.7897027   2.1814771  72.6854858
   4.6514697   2.4046996  72.3336868   3.9699445   1.8372502  73.5602722
  20.3971329  56.7302971  28.6704197  20.5425491  57.1043701  27.8014221
  20.2397480  55.8002777  28.5075645  27.5447178  67.5767212  78.0732193
  26.7862225  67.1026688  78.4140854  28.0388088  67.8303528  78.8528137
  63.6289062  24.7856541  72.6328659  62.8966255  25.2104263  72.1861343
  64.2083664  25.5059547  72.8811035  10.0888824  41.4594879  35.0309944
   9.4058571  41.5510406  35.6953163   9.6807270  40.9408226  34.3377228
  32.8184013  30.6066322  69.8613434  32.9800110  30.2134628  69.0037079
  33.3238029  30.0684891  70.4706039  83.8363113  64.6491241   6.8236570
  84.1665115  65.3079834   7.4344759  82.8839035  64.7271881   6.8789868
  57.2955093  17.9090309  27.2016602  57.0170441  17.8122292  26.2909908
  58.2340584  18.0890293  27.1472874  59.6647453  10.6931210  50.9514389
  59.6344490  10.0106316  50.2809753  59.3177948  11.4719105  50.5163040
  73.3288193  65.7647552  59.3151321  72.6501160  65.8524170  58.6458740
  74.1339645  66.0410538  58.8773766  12.9583073  52.1787262  33.3462257
  12.1023645  52.5885201  33.4713783  13.2636118  51.9862137  34.2327690
  48.3791351  68.4059601   2.0056989  48.4491730  69.1218185   2.6372666
  48.4192467  68.8355942   1.1512765  39.5673637  46.3504906  42.7555885
  40.3084831  46.8203125  43.1380043  39.9681358  45.6581192  42.2300072
  53.8483963  44.5941162  69.7698746  54.4901237  45.2336235  70.0788345
  53.1725960  44.5862961  70.4477081  75.2678375  69.8289261  21.3038177
  74.6538696  70.5457458  21.1443100  74.7104874  69.0705948  21.4785633
  12.1247845   5.2580724  15.2719078  12.4219065   6.0728807  14.8668928
  12.8802128   4.9501338  15.7726412  55.5180435  20.7626610  49.2655869
  55.6182404  21.3340187  48.5041771  56.1019058  21.1376591  49.9249153
   5.6984668  25.1553116  22.9252911   5.3200197  25.9279156  23.3449249
   5.0371261  24.8792858  22.2907295  24.8875313  15.4102707  72.1907120
  24.8585300  15.5612259  73.1354904  25.1623917  16.2499027  71.8223343
  47.8320656  14.1215611   7.8467493  48.1932259  14.2013311   8.7296038
  47.7762756  15.0225744   7.5284805  18.5847378  34.1317787  87.8160706
  18.6432266  33.5848808  87.0326691  18.7037678  35.0252304  87.4938812
   5.4230156  59.8037491  52.4839363   6.3080893  60.1679115  52.5001640
   5.4893517  58.9906502  52.9846382  56.9351730   5.7773547  70.0011368
  56.8069839   4.8321609  69.9210892  57.8595200   5.8751903  70.2297134
   5.4461217  33.2103271  36.7026939   5.4187913  32.3803368  37.1787148
   5.0824056  33.0046158  35.8415184   1.5954483  65.9963913  33.7025032
   1.9809762  65.9308701  32.8288307   2.1682556  65.4670181  34.2573776
  14.2596025  66.1223145  45.4931221  13.4725828  66.0749893  46.0358849
  14.1343069  65.4436188  44.8298683  86.6295853  63.1290627  22.1276150
  85.9282227  62.4785461  22.1615276  87.1110458  63.0050354  22.9455662
  78.0717468  63.7975197  43.3140373  77.7408905  63.2392845  42.6103706
  78.9197388  64.1069717  42.9956398  70.3335648  13.4793119  71.1673508
  69.5398407  13.9183245  70.8615875  70.0369797  12.9219675  71.8868179
  42.4214706  69.3599472   9.6281452  42.2192726  68.4308243   9.5182562
  41.7690506  69.6746750  10.2538691  78.2375946  63.7262077  19.0507412
  77.9657211  62.8628883  19.3621902  78.8082733  64.0615005  19.7422104
  36.7152367  39.7333183  17.6536293  35.8226051  39.6474380  17.3188667
  37.1908302  40.1827545  16.9550209  66.3483353  22.5519810  41.0292053
  66.5279617  23.3466644  41.5316429  65.5632553  22.1843376  41.4350624
  25.0412464   7.4605904  63.6363564  24.1244011   7.3448582  63.3868904
  25.4494152   6.6156931  63.4472046  77.0193939  25.1976299  18.4643841
  76.5793304  25.6850338  17.7679596  77.9499893  25.2597866  18.2490482
  65.7865448  60.8572502  55.2530899  66.3695068  61.3700676  54.6932602
  65.5835724  60.0772400  54.7367401  25.2580051  10.7304707  15.7630997
  24.6236649  11.4229774  15.5779543  25.1373253  10.0992184  15.0537415
  59.6725845  35.3019066  52.0719528  59.7143135  35.9281006  52.7947044
  58.7991562  35.4235992  51.6997414  74.8948898   7.5621691  78.4857635
  75.1898575   7.4082017  77.5882568  74.3444138   8.3429880  78.4263382
  15.9805202  68.2360687  37.0913696  15.7368326  68.7489243  36.3207741
  15.8976393  68.8482590  37.8225250   5.4718227  52.4958115  82.7183838
   5.4728441  53.2017059  82.0718994   5.0983024  51.7465706  82.2543182
  67.4100342  48.0757408  88.5925369  66.6789932  47.8802185  88.0063782
  68.1452942  47.5801430  88.2319870  54.1463013  56.0153923  34.7558899
  54.9208107  55.6818352  34.3030014  53.6644249  56.4968567  34.0834160
  10.0775394  21.5851212  53.8720970  10.9733315  21.4839859  53.5502892
  10.1779289  21.7696514  54.8059616   1.0231687   5.0121102  75.5444717
   0.1858759   4.8276343  75.9700775   1.6114750   4.3295450  75.8673172
  37.9129601  17.3041229  16.0467396  38.2981606  16.4488049  16.2372246
  36.9718742  17.1744900  16.1641541  24.2617073  60.6475830  37.5369835
  25.0657234  60.2060509  37.8105545  24.2523365  60.5592422  36.5839157
  70.8867416  18.0703354  75.0877838  70.5267334  18.6899223  75.7224045
  71.8001480  17.9603767  75.3520355  85.2950592  21.5484924  56.4097672
  84.3482208  21.4114342  56.4405479  85.6565552  20.6819954  56.2234001
  37.8723183  16.9618053  68.7345200  38.5124092  17.6190128  68.4613953
  37.0630417  17.2171230  68.2916718  48.5127068  44.6444321  16.3766251
  48.9985695  45.4187469  16.0927086  47.7370491  44.9954529  16.8140850
  59.4976387  70.6005630  48.9837914  60.1201057  71.1600571  48.5193214
  58.7767410  71.1857986  49.2162361  20.3642139  60.4824142  68.8562012
  20.7341480  61.2850876  69.2237473  19.7314835  60.7863884  68.2054443
  77.8701019  31.3633595  26.3260002  76.9294052  31.3262539  26.1529598
  78.0053940  30.7487183  27.0472126  20.3193722  50.8639374  46.6205635
  20.6913204  51.4161682  47.3082619  20.0418243  51.4800110  45.9425888
  33.4319496  50.0051613  47.1833000  33.1886520  49.7262268  48.0660400
  32.6717415  50.4943504  46.8686371  78.9604568  59.8882790  27.8602295
  78.5644226  59.9143829  26.9891911  79.8254623  59.5036354  27.7186184
   1.1415615  -0.0971653  63.3251228   0.5799603   0.6355774  63.0722923
   1.9928526   0.3033153  63.5016174  32.4628220  47.2750244  27.7548733
  32.7668266  47.6395340  28.5861053  31.5894928  46.9340897  27.9479733
  51.6505241  61.3040848  40.9178085  52.5808449  61.4894676  40.7898788
  51.1998062  62.0175247  40.4660454  26.0966778   2.7636390  83.3026123
  25.8179989   2.8294883  82.3892517  26.6449471   3.5357802  83.4420013
  23.0482597  51.3861580  86.1838226  22.6295204  52.2468872  86.1896133
  23.2177105  51.1960373  87.1065216  67.1209106  17.6677246   2.2669208
  67.8899384  17.4235210   1.7519515  66.5105820  16.9403954   2.1455908
  27.0924168  12.2717428   5.6363688  27.7461052  11.8642998   6.2046218
  26.2657070  12.1639776   6.1066566  48.4891586  42.7518921  12.0966825
  48.1344948  42.7031746  12.9844179  48.5626183  41.8392067  11.8176889
   4.9205389  10.5144224  32.2345543   5.5622625  11.0571785  31.7764740
   5.4469790   9.8788509  32.7194672  44.6019554   0.3733107  18.0253887
  44.8699112  -0.4268750  18.4772034  45.4212379   0.7589748  17.7151127
  76.2393951  20.6854382   7.6186280  75.3986969  20.2940216   7.3814511
  76.3263626  21.4385052   7.0341959  44.4003754  54.8731766  48.4109612
  44.3196297  54.0140915  47.9966164  44.2691765  55.4968338  47.6967659
  24.4674854  70.0119171  73.8472366  25.1006832  69.5975952  73.2610397
  24.5048656  70.9414291  73.6217422  16.2145996  32.9995155  63.3190689
  16.2607212  32.5701408  64.1733170  15.3002491  32.9044952  63.0522995
   0.8216416   8.0947628  84.6517410   0.1838254   7.6668582  84.0804977
   0.3080625   8.7300282  85.1506424  59.4079514  31.8007736  27.7049160
  59.9888115  32.1274719  28.3920155  59.2895546  32.5465927  27.1167240
  38.5980186  55.8270798  11.3985529  38.8103256  56.4751244  12.0702658
  37.8106155  56.1696548  10.9756165  40.9301567  43.8130722  10.9511414
  40.5254402  44.6433144  10.6998663  41.6590118  44.0639801  11.5186329
   8.7163115  42.8762169   4.1531215   9.2596092  43.5980759   4.4693103
   8.4834986  42.3879395   4.9428163  82.3846054  43.4145050   1.5756919
  81.6008148  42.9572334   1.2710495  82.2922516  43.4396553   2.5280945
  50.3553772  44.2227974  13.4010057  49.7105064  43.8253555  12.8158426
  50.3931198  45.1396103  13.1284990  49.0589142  31.5335693  14.3088274
  49.7152214  32.1849556  14.0614662  48.2230110  31.9926491  14.2267141
   6.4287395  42.4707909  52.4166336   7.1935296  42.8527222  51.9859886
   6.7384768  41.6300316  52.7534103  59.6282425  12.6318159  46.7494507
  58.7816849  13.0684719  46.6551018  59.7377396  12.5231762  47.6941376
  27.2067623   4.0289907  13.3759327  28.1422844   4.0745182  13.1785488
  27.0354042   3.0968833  13.5102606  73.3979874  20.9677773  75.7917633
  73.2256927  21.1765385  76.7098999  73.4153366  20.0111713  75.7628250
  62.7397652  30.3882523  15.7989407  62.9966850  29.7858353  15.1008606
  62.3255272  29.8298187  16.4568081  18.8039875   2.6304786  11.8118477
  18.3786621   2.3861220  12.6338081  18.0845184   2.7176409  11.1865492
  84.6789322  46.5100098  69.9967270  84.7832565  46.0599365  69.1584015
  83.8812180  46.1365547  70.3714294  36.7279892  42.3576431  53.2274933
  35.9687309  41.7771492  53.1747627  36.3861427  43.2208557  52.9946022
  39.3117294  60.8405647  68.9730377  40.0037003  60.6338463  69.6012726
  39.5098038  60.2963982  68.2108841   5.8224649  19.0626545  70.0429916
   6.2304473  18.5372944  69.3546753   5.2696004  18.4441185  70.5204697
  58.7916908  43.7920265  12.1412678  58.5846596  43.9772453  11.2252626
  58.1790619  44.3330994  12.6394205  47.3149681  69.6877289  76.4508514
  47.5362701  69.0619354  75.7611847  47.7790375  69.3662796  77.2238617
  21.1730556  61.9641190  53.8403702  20.7430592  62.5881119  54.4251518
  20.6102467  61.9339256  53.0667000  16.1193848  57.4725914  70.9647980
  16.8759823  57.6715088  70.4132309  15.3650770  57.7549820  70.4475861
  50.5305252  38.1937027  26.3261948  49.7583580  38.3284264  25.7767963
  50.2152138  37.6604424  27.0558853   5.4219284  16.3789577  24.7162933
   5.6225462  16.5536003  25.6357956   6.0258546  15.6790113  24.4681377
  53.3554688   0.5519105  61.3055573  53.2954750  -0.3452097  61.6338997
  52.6015015   0.9987379  61.6904144  50.1189537  24.6374798  74.1855392
  49.6606636  24.1748486  74.8870926  50.4264374  23.9437160  73.6021194
  85.0464096  36.5129662  16.5396767  84.5303116  35.8177261  16.1316128
  85.3262253  36.1434517  17.3771667  72.6475372  55.2958984  31.8377190
  72.7467422  55.9973297  32.4814415  73.2427216  55.5364685  31.1277084
  82.1555557  70.2214050  69.9561615  81.3646698  69.7363663  69.7206650
  82.2309418  70.8979034  69.2831802   3.8448853  22.7936306  15.5393133
   3.0963171  23.0122356  14.9842548   3.7316475  21.8643856  15.7390947
  56.5562019  34.6877747  78.2804947  57.1062737  34.6063156  77.5013809
  56.4838638  33.7946205  78.6170654  63.2657394  15.2227268  30.3533020
  62.6437912  14.5141411  30.5185814  63.9527130  15.0959339  31.0076904
  38.6397667  66.7839050  51.4291039  37.8790627  66.5309296  51.9521370
  38.3427773  66.7083588  50.5222855  18.6536484  32.4478416  81.1289673
  19.4804726  32.2931824  81.5857773  18.8149490  32.1491165  80.2339935
  27.4844952  51.6546478  87.2411041  26.8872490  51.4605560  86.5187073
  27.2976990  50.9801712  87.8941116  33.8729973   3.9091146  78.1085434
  34.3349190   4.5482459  78.6511002  32.9636497   4.2079773  78.1081314
  30.5538292  29.2403774   5.0912495  29.7184582  28.9453259   5.4536457
  30.4617519  30.1904640   5.0199060   2.0319366  41.0225258  15.3452501
   1.6798129  40.5036659  16.0684547   1.2777184  41.1875839  14.7794390
   8.6954346  32.6007652  80.4935837   9.6506596  32.5994492  80.4321442
   8.4826736  33.4412994  80.8991318  49.0387383  48.2287827  66.3265610
  48.6074791  47.4709625  65.9316559  49.8629112  47.8834839  66.6696854
  38.2158508  39.1729774  15.0599880  37.6147804  39.2191925  14.3164768
  38.6866913  40.0061188  15.0394878  45.9311981   6.8056540   8.2282133
  46.3683167   6.6677804   7.3878860  45.1863861   6.2046275   8.2122135
  30.6212826  17.2631721  73.6982803  30.3683987  16.4783268  73.2121735
  30.4982319  17.0256901  74.6173477  82.5713654  62.4834290  71.9232407
  81.6926346  62.6116943  71.5660095  82.6736374  61.5329666  71.9721832
  56.5781517  61.6927185  27.1461964  56.4292488  61.4442863  26.2338696
  57.5296478  61.7634354  27.2229347  14.2007675   5.2081594  19.3470306
  13.3634892   5.1213794  19.8027344  14.7741547   4.5733638  19.7765560
  76.7263412  47.7767677  51.2536964  76.9013519  47.0116920  50.7057343
  76.3433228  48.4177513  50.6548080   6.3126640   1.3012009   2.2922273
   6.3800616   0.8642004   3.1411796   7.1159921   1.0569022   1.8326470
  15.3669634  40.6521606  65.0188446  15.0951920  39.7822418  65.3114471
  16.3111992  40.6730576  65.1744537  52.3298683  26.2527332  74.6070709
  52.1982841  27.2007408  74.5929031  51.4495506  25.8873920  74.5187607
   6.9132409  12.8391981  58.6857796   6.7873855  12.5010757  57.7991753
   7.6494641  12.3349781  59.0321465   0.9350357  36.8005257  83.8712769
   1.6496634  36.1679840  83.7975769   0.4225389  36.4966698  84.6204453
  72.9496765   1.4518181   3.2217774  73.8228607   1.1883135   3.5121994
  72.4328461   1.4958782   4.0262513  41.4792709  65.1907959  31.1673489
  40.9766731  64.5291748  31.6426182  42.3816986  64.8730164  31.1969032
  48.6802635  28.7111759  12.8444557  47.8803482  28.9085159  12.3571930
  49.0679398  29.5674629  13.0253296  75.3363113   6.1270976  16.9122906
  75.3822174   5.3192835  16.4008598  75.9741821   6.0022726  17.6149807
  14.7375708  16.8975544  87.0184708  15.1594200  16.8568039  87.8767319
  15.3273830  16.4158134  86.4385757  81.6662140  44.3593559   6.6762643
  81.1872406  44.6432304   7.4548717  82.2245178  43.6459274   6.9853768
  44.4406128  39.7080574  17.2985268  45.1181374  40.1842422  17.7785683
  44.0655403  40.3586311  16.7049694  11.0414419  32.6076088  37.6986809
  10.1003809  32.4384880  37.6535835  11.1074753  33.5262756  37.9593086
  76.2857742  59.2533073  41.2313995  76.9334564  58.6018486  40.9624329
  75.9169235  59.5777092  40.4098473  72.9561386  70.7381210   1.4230225
  72.8653412  71.6320724   1.7529318  73.7493820  70.4068527   1.8440497
  27.2924557  41.9515686  41.4066429  26.6268425  42.4589767  40.9421768
  27.2964020  41.1017342  40.9661865  38.5958900  58.3375816  86.6705399
  39.2839622  57.8269196  87.0971680  37.9098778  57.6991844  86.4754333
  60.9506874  30.9739857  62.9534340  60.0311317  31.0056190  62.6895218
  60.9338837  31.1239643  63.8986626  23.7884407  65.2355957   4.5447903
  23.7593250  64.2932739   4.7103477  22.8895817  65.4652557   4.3091245
  52.6816902  12.0934258  31.7439346  53.1942520  11.3449450  32.0493698
  51.7878227  11.9039946  32.0291519  74.6969681  57.9671898   1.3656900
  75.4032440  57.7562866   1.9763688  73.9059448  57.6355629   1.7905879
   6.9851851  16.8148079  68.4837341   7.8023105  16.9675922  68.0091858
   6.3182273  16.7564812  67.7996292  15.8615341  60.3070068   3.2869840
  15.5854130  61.1370468   2.8983614  15.6933985  59.6559258   2.6057689
  62.4204483  50.9439774   9.7833261  62.8600426  51.3480721   9.0351992
  63.1315575  50.6997604  10.3757048  52.6064911  46.4806671  74.6808243
  52.9862366  46.9663467  73.9486084  53.1836472  45.7252007  74.7921524
  25.5098019  53.0070877  63.5853195  25.6822224  53.8914146  63.9085350
  26.2362919  52.4829445  63.9225388  78.6530609  52.1456947  37.9359970
  79.5817184  51.9356308  38.0344620  78.5599442  52.3943558  37.0163612
  23.5409336  11.8484793  11.5721359  23.3037224  10.9250307  11.4872456
  23.2891293  12.2383823  10.7349968   9.3600788  52.1850166   6.3469028
   9.7322483  51.4740677   6.8687019   9.8971014  52.2072830   5.5548530
  81.2238617  67.3600464  17.2076206  81.3663025  68.2899170  17.0307732
  81.7079010  66.9079208  16.5165901  80.7998962  16.4820690  16.7302532
  80.4425201  16.0232658  15.9699793  80.6127853  15.9030714  17.4691620
   2.0716939  47.3364830  49.5292664   2.8492761  46.9523659  49.9343033
   2.4175284  47.9414330  48.8730164  36.8174667   1.7872176  30.4701939
  37.3482552   1.0369231  30.2027016  35.9597702   1.4137322  30.6729259
  20.1232529  29.7544575  15.1060553  20.4523144  30.5744038  14.7377644
  20.8584328  29.4064713  15.6106834  26.7554379  18.1796303  12.3343058
  27.1334743  18.5864124  13.1139517  26.4480305  17.3246059  12.6354160
  35.4695282  45.0067406  59.8436356  35.2438736  45.0681953  58.9154472
  35.7901192  45.8796616  60.0704918  51.4407234  68.4100647  69.3288956
  51.4313965  69.3590698  69.4534912  51.2297249  68.2879410  68.4032593
  65.1630936  70.4870148  73.5728989  65.9915619  70.8739777  73.8559647
  65.4174500  69.6892090  73.1091690  52.6749191  65.0151672  19.0434704
  53.4969025  65.0201569  18.5530109  51.9958878  64.9476547  18.3722076
  82.5159378  42.6125832  73.0443802  82.2904968  42.2325211  73.8934708
  83.4729843  42.6106071  73.0275879  39.4424629  19.1842422  72.8134384
  39.5033913  19.0634098  73.7610245  38.5246582  19.4079037  72.6590347
  73.9965515  25.1224442  88.6199036  74.7653427  25.5224133  88.2134399
  73.3241119  25.1500511  87.9392471   0.5219214   6.5699763  15.9635706
   0.0600129   6.6320949  16.7996407   1.3811148   6.2142591  16.1904716
  68.3872452  60.8863449  78.7328720  68.2607880  60.2191200  78.0582962
  69.3373032  60.9813843  78.8006210  57.9122505  64.5791626  58.2962723
  58.2569389  64.9480286  59.1095123  58.6835518  64.4574966  57.7426300
  56.7094688  14.8283873  12.6957083  57.5379372  15.2442112  12.4570379
  56.8670998  13.8923187  12.5725794  64.9643173  19.1904373  61.8646469
  65.1157837  19.8011894  62.5859451  64.7186813  18.3703289  62.2928047
  71.0097809   5.4465070  51.8761559  71.1274796   5.6061316  50.9397278
  71.3099747   4.5468292  52.0053558  60.2113152  29.6100006  25.2817860
  59.3252373  29.7263641  25.6246548  60.7770615  30.0200043  25.9360466
  20.4915199  31.4339561   4.0173726  21.2690868  31.9514885   3.8081298
  20.3260345  30.9200363   3.2269714  70.1372070   1.3418131  80.9213715
  69.6045609   0.5531586  80.8186646  70.9783401   1.0219439  81.2475662
  32.4286804  15.1764126   8.7961550  33.0291519  15.7851772   9.2263565
  32.7773857  15.0822897   7.9097133  33.0787811  57.7575150  39.7187614
  32.3996925  57.8978386  39.0589294  32.9029808  56.8809395  40.0607262
  60.6002846  47.2931366  31.3092670  60.3077545  46.6409073  30.6726685
  60.9640236  46.7783813  32.0296478  61.2216530   7.1394539  45.3596191
  61.5129662   7.9767237  45.7206573  60.4570084   7.3608775  44.8280945
  37.1284561  13.1323137  75.6776352  36.8109093  12.2557335  75.8944397
  37.0548096  13.1848507  74.7247238  43.7108879  62.9542198  75.5487823
  43.8036919  62.8633461  74.6004333  42.8188782  63.2787666  75.6721344
  24.4415398  41.4264603  82.0805283  24.9160709  41.0581703  82.8257904
  25.1208496  41.6126518  81.4323730   6.2935333   9.1556406  27.3176956
   7.2441020   9.0434551  27.3096256   5.9977074   8.6387339  28.0670452
  58.0192375  19.0333691  88.4963684  57.3858032  19.7434101  88.3922882
  58.4394913  19.2088165  89.3382950  63.8975983  63.0676765  15.5098562
  64.2418976  62.4866028  16.1881180  63.0696335  63.3886871  15.8671541
  72.9704590   2.2197804  56.3719788  73.8925323   2.4765036  56.3824348
  72.9601822   1.3825433  55.9081230   3.0453353  15.0982847  59.8550110
   2.2280335  14.6072302  59.9393616   2.9931092  15.5033846  58.9893341
  62.0860901  62.3904991  54.3139229  62.6745758  63.0252876  54.7225266
  61.7795181  61.8465500  55.0394363  61.9657593  16.9188404  43.5114784
  61.0785446  17.2337627  43.6844177  61.8952866  16.4484634  42.6808090
  15.5895996  34.0169525  56.8033524  15.8660326  34.1235161  55.8931541
  16.1542587  34.6121750  57.2964058  11.9023142  11.1528568  25.2630405
  11.1276302  10.9278479  25.7782764  11.6683064  11.9701548  24.8231583
  67.3721542  29.0902920  66.1265793  66.9795685  29.6491604  65.4559250
  68.2249069  28.8468189  65.7663498  11.0676298  54.0908890  33.7452507
  10.4490070  54.2433205  33.0308990  10.5240669  54.0722198  34.5329208
  53.6241264  31.6532955  25.4412327  52.9464417  31.2301521  25.9684200
  54.2427368  32.0032082  26.0824146  13.5116987  70.7717133  44.0386925
  13.3068771  70.1555176  43.3354225  14.2330313  70.3604660  44.5149231
  56.4190979  40.2481689  87.2880936  56.6742249  39.9164238  88.1489563
  55.4678917  40.3418159  87.3397598  45.2470512   3.5912788  38.4287262
  44.7735100   2.9272146  37.9277191  45.4023132   3.1831536  39.2805252
  81.0444794  22.2570267  65.0064774  80.3950577  22.6127110  64.3998718
  81.2569580  22.9886742  65.5859375  57.7761841  42.5321960  88.8196182
  57.4689713  42.8104744  87.9568253  57.3457718  43.1295776  89.4312668
  49.9248199  47.0061607  73.1613235  49.5779037  46.5135536  72.4175339
  50.3574524  46.3471413  73.7042313  34.7372398   3.2880929  65.9849777
  34.5845604   2.7552936  65.2045593  34.6549072   2.6736765  66.7143250
  22.9568443  39.1242409  10.7722120  22.0575542  38.7963943  10.7670002
  23.2497673  39.0344543   9.8653679  69.4294815  42.0598831   4.0112247
  69.3889694  41.1741829   4.3719501  68.5159531  42.2933693   3.8463578
  45.2984085  27.5977688   3.4451594  45.7067528  26.7492962   3.2731705
  45.8730392  28.2315578   3.0158091  10.9891396  33.5651169  68.1093903
  10.5423136  34.0340233  67.4046173  11.8449945  33.3418045  67.7434998
  74.6047974   2.3226037  74.8750916  74.2360916   2.4974275  74.0092316
  74.1463089   2.9283488  75.4574127  68.9214249  42.9993782  37.0076256
  68.4225693  43.5262642  36.3833122  69.0717697  43.5854568  37.7493401
  54.3549042  65.4521942  66.7360077  55.0294456  66.1300964  66.7768707
  53.6732025  65.8259811  66.1776199  59.0348396  16.2194824  24.6650810
  59.4468613  15.7730675  23.9253635  59.7349548  16.3074932  25.3118610
  72.4603882  38.8488159  30.3302898  72.9811783  39.6121559  30.5799294
  71.6747437  39.2167702  29.9258003   0.9269285  14.1990814  65.8230057
   1.2963433  13.5594931  66.4318466   0.1834936  14.5760689  66.2935562
  12.7733583  36.4006424   0.3496662  12.5382137  37.3018341   0.1287638
  13.5470648  36.2174835  -0.1833086  58.5544357  23.2099133  67.0507278
  58.9404602  23.8883228  66.4966736  58.2116890  23.6851578  67.8076248
  82.4637604  39.9285431  18.6468258  81.5960236  40.1247597  18.2936039
  82.3432999  39.1180000  19.1415386  59.4881973  33.2617798  75.9216766
  59.8330345  33.8613167  76.5834045  58.5779266  33.5332603  75.8036118
  44.0096817  54.8135490  51.0249367  44.5823746  55.4581413  51.4405823
  44.0863304  54.9939270  50.0880165  14.6479034  58.4535027  78.1685333
  14.2868233  59.1473045  78.7203369  15.0254364  58.9150696  77.4197617
  32.5638275  34.2450943  80.3115387  32.1895790  33.3641968  80.2977829
  33.4234848  34.1465149  79.9022598  65.4199829  39.0196037  40.9067993
  65.3368149  39.3910637  41.7850533  64.5238113  38.9947968  40.5713882
  59.7281456  45.1840401  18.8834095  60.5286980  45.3103867  18.3741112
  59.2474976  44.5052490  18.4096451  62.1802368  48.8367081  74.9048920
  61.7974434  47.9651184  75.0050735  62.4925385  48.8586159  74.0003357
  69.5936127   0.2031854  35.4778557  69.1351700  -0.2606035  36.1785469
  69.0625534   0.9837230  35.3198471  13.3951292   2.1732221  61.1856155
  13.0380306   1.5316221  61.7996712  12.9873924   3.0010121  61.4400673
  47.0689812  62.3614769  50.8571014  46.2524910  62.6537781  51.2622375
  47.3397141  61.6074219  51.3808708  79.0138168  23.1061001  49.9606743
  79.9307632  23.1320114  49.6872139  78.6226120  23.8828640  49.5608940
  59.0462074  54.5780296  60.6061783  58.3633995  54.1208305  60.1152916
  59.8503647  54.1026535  60.3974075  47.9869270  10.3853226   7.3342919
  48.6535912  11.0418367   7.1323495  47.4595261  10.3266239   6.5376525
  81.0934906  27.2655182  79.0294189  80.3041992  27.1863365  78.4937057
  81.7995758  27.3997154  78.3972321   3.2090530  33.6472244  45.2946281
   3.7433584  33.8210373  46.0695724   3.8111749  33.2328720  44.6765709
  76.1699371  18.2144928  57.1434555  76.7243271  18.6748848  57.7734795
  76.0255203  17.3534508  57.5358543  83.8569717  66.0053406  48.2979965
  82.9627457  65.8675461  47.9855614  83.9409561  65.4190750  49.0499725
  35.1037331  55.4551086  62.9548721  35.5238724  56.3036690  63.0951157
  34.1749229  55.6619492  62.8511505  10.7485123  44.1318130   6.4000154
  10.0547132  44.6769409   6.7711091  10.5260153  43.2419014   6.6734896
  11.0928917  48.2783165  85.3702927  10.3501368  48.3300972  85.9718475
  10.9461546  48.9895973  84.7467728  60.6195030  21.2851486  38.2782974
  60.6139717  21.0129814  37.3606224  59.6974297  21.4294395  38.4908867
  81.1341400  31.6864166  74.7241287  80.5425110  31.6604977  75.4761505
  80.6320419  31.2925529  74.0106888  25.8725433  51.9143753  41.5671883
  25.2926083  51.1861305  41.7898178  25.4817181  52.3008499  40.7835274
  84.1566086  11.0387278   5.4957886  84.4700089  11.6970158   4.8755708
  83.3426361  11.4043541   5.8421998  81.5881348  46.4573174  67.6623306
  81.1486816  45.7644958  68.1553879  81.1480484  46.4624443  66.8123169
  28.8363323  14.5255127  29.3659725  28.2385750  13.7875633  29.4857559
  29.0639877  14.7961559  30.2554436   9.6107807  69.2342377  10.8107319
   9.4957848  68.2889023  10.7140427   8.9187927  69.4989471  11.4167967
  36.4588356  52.8170624  39.8027916  35.5384903  52.9086647  40.0493851
  36.8825912  52.4648438  40.5854797  56.9775772  26.5788975  88.0234146
  57.0869560  26.0593414  88.8198624  57.5853119  27.3107662  88.1295319
  59.1508217  35.5114708   9.0600271  59.6928215  34.8158607   9.4323063
  59.7563896  36.0286942   8.5289898  60.7528038   8.2959938  49.1801834
  60.9853821   7.7081561  49.8989220  60.4677505   7.7129512  48.4765930
  17.0549088  16.5367413  11.6319256  17.7362766  17.1000252  11.9989147
  16.3281555  16.6054573  12.2510681  19.6262836   0.2696689  10.0563221
  19.9682312  -0.4460227  10.5921288  19.5093689   0.9941983  10.6708298
  11.6420813  62.9742279  52.6261368  11.6750765  62.0178070  52.6060143
  11.7514610  63.1982651  53.5502968  71.7078934  59.3411598  47.7181168
  72.5270767  59.6565056  47.3363724  71.0860672  60.0543404  47.5734406
  48.2763672  64.5074997  68.3735275  49.1792068  64.8157654  68.4515457
  48.0963593  64.5288696  67.4336472  64.0270233  44.8109818   3.8615458
  63.9291229  45.2405548   4.7113190  63.1344185  44.7451057   3.5222189
  72.9401093  48.9299278  30.2597752  72.4646606  49.5754890  29.7368698
  73.1073227  49.3721161  31.0920849  36.2242279  37.0901985  65.8506393
  35.6160469  36.5218697  66.3232422  35.7050323  37.4519844  65.1324692
  74.6846313  63.6659241  21.8160229  74.9972839  63.8392868  20.9280930
  75.1632462  64.2877731  22.3641644  19.3167248  20.7365170  61.6260567
  19.9715042  21.3332634  61.2635803  18.4959431  21.0003185  61.2101746
  47.4801445  35.5389519  26.2097244  47.7624283  34.8726196  25.5831871
  48.1010704  36.2576904  26.0910072  67.6059189  43.0625038   6.8465762
  68.5598221  43.0643158   6.7671375  67.3948059  43.9194984   7.2170148
  78.6070099  48.8474083  76.8139343  78.1449509  49.4721413  77.3729019
  77.9247818  48.4767838  76.2540817  48.2602806  14.7534466  16.0627899
  48.9832268  14.9727535  16.6505680  47.4911461  14.7191420  16.6315517
  66.3817368  60.5970802  75.6567917  65.8538284  60.0654984  75.0610046
  65.9581375  61.4554291  75.6510849  53.0641518  67.5470886  72.8297272
  53.7738457  66.9368210  73.0300827  52.2735748  67.1049728  73.1391602
   8.6778994  57.3855324  43.2779045   8.2411709  57.5604172  44.1115227
   7.9661999  57.3410530  42.6393623  54.2085304   5.5995731  67.8715363
  54.7979355   4.8869915  68.1186447  53.3318481   5.2555037  68.0426407
  18.1592999  54.2032585  71.9008789  18.9796448  54.4078674  72.3496628
  18.4300671  53.7568741  71.0986023  15.9186506  35.0783958  77.1384735
  15.6340704  34.1768227  77.2881699  16.7828941  34.9930534  76.7359467
  41.9056854  36.5075989  65.1180267  42.6784363  36.5812073  64.5579605
  41.1654205  36.5834427  64.5159531   7.2793608  32.5862389  41.6080742
   7.2366524  32.5310211  40.6534233   7.7527695  33.4002228  41.7799644
  63.6635780  35.5675621  77.0234299  64.4190063  35.0873756  77.3625183
  63.2617149  35.9600830  77.7984543  73.0832596  56.0189590  86.7053833
  73.5649872  55.9150620  87.5259781  73.7453690  56.2970390  86.0725174
   2.6073010  61.9073868  14.2949591   2.7045779  60.9551659  14.2879095
   3.5049105  62.2398453  14.2955837  75.0848465  69.3491592   2.3512137
  74.6370163  68.6179581   2.7766922  75.9769287  69.3174133   2.6967788
  47.3280754  26.3894787  16.7381783  47.1332512  25.4717770  16.9281807
  47.5290413  26.7733479  17.5916920  17.9483967  55.0449181  30.1431541
  17.6035500  54.8500061  29.2717628  18.7572823  54.5362778  30.1999111
  56.1908569   3.1618075   4.2045627  56.1837769   2.8801734   5.1193657
  56.3594322   2.3606553   3.7086101  23.8735619  64.4317322  25.1301517
  23.7075977  65.3652954  24.9991989  24.1704845  64.1190643  24.2755718
  31.8378334   0.9196650  59.4293289  32.2377396   1.7788349  59.5639877
  31.6671162   0.5937844  60.3130074   8.6401691  43.6353951  48.1839142
   7.7817688  43.6750641  47.7622452   9.0634470  42.8705292  47.7939835
  83.0149994  53.5323181  45.9890480  82.6802597  52.9763603  46.6926727
  83.8218155  53.9066544  46.3428307  54.9147949   7.6978931  12.6763783
  55.1762123   6.9987097  12.0771828  53.9805908   7.5502634  12.8236818
  66.6729355  12.1414251  69.5276108  67.1271286  11.7552853  70.2765045
  65.7453842  12.0927725  69.7589417  40.1618729  31.6244659  68.1848297
  39.5569267  31.0042686  67.7778625  39.7612381  31.8307552  69.0293274
  20.6734543  63.5586014  18.6923161  20.3889103  64.4492950  18.8970909
  20.0910606  63.2773857  17.9866467  42.5409889  43.5154572   1.0284539
  42.2134018  43.9431648   0.2372606  43.4632874  43.3402481   0.8416371
  85.1124496   0.1754142  66.6639328  85.4206009  -0.6630213  66.3199844
  85.6149063   0.8316119  66.1810532  71.4367828  15.7715387  49.1832542
  70.5889587  15.6398678  48.7588806  71.2472992  15.7144156  50.1197701
  51.3699379  37.9162331  69.7658157  51.8150787  37.4612885  69.0508957
  50.4381332  37.8041229  69.5776520  16.2134838   6.3446517  22.1423206
  16.2876053   5.9564314  23.0141144  15.6868391   5.7186370  21.6453495
  51.8134537   8.9244165  42.6343307  52.0181923   8.8605776  41.7014656
  51.3037796   8.1362677  42.8221703  44.4843750  46.1300697  38.6980095
  44.0149612  46.7200584  39.2877541  45.3186722  45.9658890  39.1375809
  85.1162109  42.5903397  73.1660309  84.9833374  41.7987251  72.6445694
  85.9899445  42.8948097  72.9208374   9.1948862  58.7705383   2.3080232
   9.2007570  57.8134460   2.3213315   8.9739532  58.9961548   1.4044102
  50.4317818  11.8165388  45.1925316  51.2181511  11.4721241  44.7691689
  49.7997627  11.0993299  45.1435814  81.4571075  39.6022186  15.3025761
  81.1161575  38.8693199  15.8152590  81.2341995  39.3854523  14.3972826
  68.0867691  22.0118752   2.9474955  67.5869827  21.6044254   2.2400806
  68.9555054  21.6146030   2.8866422   0.9474260   6.9002209  19.0955563
   1.3324121   6.1826048  19.5985909   1.6629663   7.2172475  18.5444412
  13.2347403  52.3687859  52.0021133  12.9482412  51.4643669  51.8749466
  14.1865082  52.3342476  51.9063187  65.7794266  17.7779922   4.6604934
  66.2511902  17.2721672   5.3221688  66.3222351  17.7099953   3.8750184
  53.3479805  66.7535782  70.2165833  53.1776085  66.6448822  71.1522064
  52.7188148  67.4173431  69.9340973  76.7573700   5.9940042   4.1912551
  75.9570007   6.0755601   3.6726103  77.2027740   5.2296405   3.8257520
  56.0101471  38.7837906  64.4089355  55.9559441  37.8871078  64.7394638
  56.2749329  39.3032837  65.1680450  45.1892319  47.1204147  33.6012154
  44.8676758  46.8312683  34.4551659  45.8100815  47.8203125  33.8035126
  56.3704643  23.8269062  77.3659134  57.2439804  23.4578876  77.2354202
  56.1334763  24.1890926  76.5121613  26.4961624  17.2000866  87.4540253
  25.8073368  17.0642319  88.1046295  26.5385914  16.3731060  86.9738770
  63.3650208  23.4069519   9.3682470  63.8238754  22.7856960   8.8028059
  64.0159378  24.0819931   9.5602455  80.6620331  68.9275970  31.0037098
  81.1983261  68.3752747  31.5725384  79.7786636  68.5678635  31.0842037
  13.0462675  64.1949081  76.3771744  13.7075367  64.8693008  76.5326004
  13.3764372  63.7047462  75.6242065  43.7223091  60.8380508  15.6432257
  44.5312119  60.4088249  15.9219322  43.0730400  60.1350288  15.6223288
  86.4063568  66.1880493  36.6447601  86.2370377  66.6867294  37.4440613
  87.1753693  66.6076584  36.2590485  79.2525787  55.5689087  78.4957504
  80.1103745  55.9615631  78.6577148  79.4389954  54.6437492  78.3358688
  49.8198318  45.7540970   8.0511122  50.5079613  45.1681023   7.7359600
  49.6821289  45.4938011   8.9618893  12.5613203  50.7800331  84.5170517
  12.7889729  50.5186310  83.6248245  12.3407383  51.7087250  84.4456406
  35.9592323  60.7681618  84.4901352  35.7100563  59.9114418  84.1434784
  35.1441879  61.1335907  84.8342285  47.2923851  68.0435562  73.9224777
  47.2735558  67.1015015  74.0910339  48.0586395  68.1715469  73.3632812
  60.2044983  58.6283455  77.8876114  60.4144669  58.6678696  76.9545593
  61.0173035  58.8786774  78.3268356  42.0370483  32.2538719  71.0231781
  42.6874580  32.5831146  70.4028549  42.5151863  31.6197758  71.5575409
   3.8577445   5.9631538  40.9644432   3.8062696   6.9027610  40.7891693
   3.5547192   5.5515857  40.1551094  63.5129356  31.9519978   3.3712099
  62.9884453  31.3181667   2.8819242  63.2612839  32.8015404   3.0090206
  71.5914688   3.1508327  82.8268738  71.7205353   3.6968622  83.6023941
  71.0683746   3.6931081  82.2364960  16.6143341  32.5107269   2.7411728
  15.9778614  32.8054733   3.3925245  16.7997494  31.6028519   2.9812057
  19.0583458  43.7898750  78.2253952  18.3148060  44.2578087  77.8453751
  19.7267742  43.8057747  77.5404282  66.1895370  22.3854942  34.1875763
  65.9944687  23.2360992  33.7943192  67.1007690  22.4564075  34.4719353
  15.7335529  16.4003754  84.0019684  15.0617247  15.7387133  84.1665421
  15.4570456  16.8257370  83.1902771   1.0698166  18.9866543   9.4998484
   0.9817355  18.6519165   8.6074228   1.3427864  18.2272453  10.0146475
  28.4820824  65.9203491  43.5983391  27.7472095  65.3078613  43.5660095
  28.6265469  66.1695099  42.6854973  77.9447021  36.1378059  28.3496151
  78.4158020  36.2268143  27.5211391  78.2412491  35.2999382  28.7049522
  37.2808762  19.0965042   8.4468002  36.5117416  19.3164158   8.9724455
  36.9861031  19.1886215   7.5407901  15.1001835  61.0276527  22.5953388
  16.0276604  60.9485359  22.8184090  15.0892258  61.5663986  21.8042221
  57.0933037  21.5481758  69.9709167  57.5333328  21.1073666  69.2440796
  56.8380585  22.3995056  69.6155014  48.5565796   4.7986269   6.8028150
  48.0927887   5.6131043   6.6085072  48.0184097   4.1153464   6.4031463
  15.2944822  10.4888430  74.3201447  16.1872215  10.8331547  74.3465652
  14.7367678  11.2649097  74.3740616   7.6144791  69.4236908  12.6429605
   6.8733692  69.6620407  12.0860243   7.6394119  70.1062775  13.3135500
  64.9880676   3.8823614  37.3678780  64.9290390   2.9487514  37.5706596
  64.3286972   4.0219836  36.6881905  25.2284107  65.2550354  29.9821262
  24.3595352  65.1353607  30.3654842  25.6657772  65.8726654  30.5681877
  25.3656082   2.5765181  67.4467163  24.7986279   3.1862960  66.9745560
  25.6597157   3.0679033  68.2137070  69.5459671  22.6382656  47.4971733
  69.8534851  21.8720570  47.0128326  68.7157898  22.3598576  47.8838539
   4.2341418  40.0644379  50.1722641   4.6486216  39.4664917  50.7942772
   4.3438864  39.6391945  49.3217621  64.7769012  43.9715271  58.7221298
  64.2428360  43.4790230  58.0988808  65.4457245  44.3938637  58.1831131
  86.3235550  57.7961693   5.2753706  85.9477768  58.6625519   5.4316025
  85.7742004  57.4169998   4.5893102  79.0373459  40.2763863  33.4801865
  78.3975525  39.5667801  33.5380783  79.7510757  40.0029755  34.0564423
  73.1985703  30.4217892  29.8896008  73.7261353  31.2148266  29.7947311
  72.5256271  30.4994659  29.2133293  82.7192078  15.1036530   2.7863455
  83.6171875  15.0111856   2.4680483  82.5166550  14.2556868   3.1815133
  52.6312408  57.4273605  33.0352440  53.2254448  57.2605515  32.3035812
  51.9061699  57.9177589  32.6479301  78.3934479  31.4231853   2.1260185
  78.0518036  31.1912098   1.2624782  79.3229141  31.1983128   2.0841947
   8.4621353  41.0467453   6.3522248   8.4682522  41.5589027   7.1608596
   7.6820235  40.4966164   6.4230404   8.0355911  23.7854309  30.3076916
   8.2457333  22.8522434  30.3428059   8.6118956  24.1853905  30.9589500
  53.2213326  50.7793922  24.9974098  53.3619652  51.6208496  25.4314594
  53.2702484  50.1346779  25.7032280  48.3656731  26.9324818   1.8130991
  49.0304604  26.5012455   1.2761432  48.7436218  26.9520149   2.6923056
  27.3721790  60.2040863  15.5578804  26.8728161  59.8861351  16.3100624
  27.8233700  59.4284058  15.2247448  24.1844463  59.4123344  46.4801903
  23.9508820  60.3292236  46.3352966  25.0263329  59.4485016  46.9342270
  41.9906197  12.5064182   5.7222939  41.9433861  11.9418621   6.4938354
  42.3826790  13.3184786   6.0433540  39.7700310  20.9346828   1.4731734
  39.4317513  21.6091728   2.0621238  40.5486069  20.5980015   1.9166813
   2.0231669  22.2291851  48.7054710   1.9318652  21.4727116  49.2848206
   1.1578025  22.3337841  48.3099518  64.1468811  21.3317108  78.5617065
  63.9077568  20.4417210  78.8204880  64.7999496  21.2132893  77.8719864
  50.9946976  24.7153530  84.8453751  51.6551208  24.6295853  84.1578293
  50.5438309  23.8710079  84.8510742  78.8993454   9.1448545  30.2168865
  79.7517700   9.1757765  29.7825432  78.5216904   8.3087006  29.9440231
  58.1643372  30.6324921  31.3362427  58.9961510  30.2119274  31.1184292
  57.6226425  30.5099850  30.5566368  28.4909611   2.1660218  36.6484451
  27.7039795   2.6458635  36.3902893  28.2378693   1.7027168  37.4468956
  45.5909157   0.5081818  23.5737743  45.9907646   0.3141875  24.4215469
  44.6737976   0.2546408  23.6778851  16.7234840   8.2435226  13.3775349
  16.4015732   7.7047396  12.6548195  16.8920422   7.6203384  14.0842600
  71.3745270  67.3402939  73.8208466  70.4814453  67.6778183  73.8895416
  71.2743759  66.3889771  73.8555374  27.2467880  49.8015175   7.1553640
  26.3623161  49.9342384   6.8142953  27.5310154  50.6733932   7.4297438
  56.0880547  51.9871445  45.8609352  55.4049187  52.0675850  45.1952858
  55.6572952  51.5481186  46.5943718  21.0714207  24.1682453  87.4558411
  20.7976513  23.5976200  88.1739349  21.8364334  23.7315884  87.0812531
  24.0699100   3.7253397  45.8479881  23.2514458   4.2147527  45.9305916
  24.7227383   4.2756162  46.2807007  66.8671494  11.7433100   4.7004666
  67.7619324  11.7224140   4.3611217  66.5268784  12.5949745   4.4263949
  71.4869156  52.8915482  22.7574081  71.3459167  52.7342949  21.8238010
  72.4128189  53.1250687  22.8238029  79.9559479  55.6976280  67.1133881
  79.5296173  56.1291733  66.3729553  79.2907181  55.6900101  67.8016052
  76.3109360  45.7795410  27.2272263  75.5717163  46.3372498  27.4695950
  76.7985077  45.6605072  28.0422974  62.2487411  59.5596581  22.4255753
  62.1549454  60.4479713  22.0815830  61.4116325  59.1380043  22.2314358
  80.0375214  62.7255669  45.0157623  80.4853134  63.4306450  45.4832878
  79.2092133  63.1135483  44.7336159  77.5997467  55.7841644  51.6653938
  77.7555695  54.8451691  51.5641975  76.8549042  55.8402061  52.2639732
  33.6558838  48.7474785  85.0901947  33.0927773  48.8638382  84.3249435
  33.2543449  49.2912292  85.7679367  51.2917519  52.1746101  12.1909485
  52.0471268  51.9428215  12.7312403  51.6519318  52.7347031  11.5033445
  35.5132828  53.7592239   8.0691214  36.3975372  54.0530281   8.2882137
  35.5975647  53.3764610   7.1958389  55.3531418  21.2727776  59.2677269
  55.8400002  22.0968380  59.2565918  54.4864922  21.5020542  58.9321899
  12.6319151  58.8451385  44.3261223  12.1680555  58.3573608  43.6455803
  13.1975021  58.1952820  44.7432861  76.3904572  32.5343208  11.6547756
  75.8919983  31.7251682  11.5405521  76.7481766  32.4722672  12.5404491
   9.2583389  36.3008080  87.3249283   9.4299698  35.8495941  88.1514740
   9.9145079  36.9968987  87.2912979  53.9743500  52.1228523  79.2984390
  54.4693298  51.3747673  79.6325073  54.3648682  52.3061218  78.4439545
  48.5353432  51.9582291  35.7189941  49.0410080  52.7700844  35.6811752
  48.6317635  51.6578827  36.6227226  85.5576630  14.8873692  51.1953697
  85.9872131  14.5921183  51.9982071  85.1988449  14.0889082  50.8081474
  86.4765396  50.5053749  79.5400696  87.3622513  50.5361671  79.1783905
  85.9231567  50.8709869  78.8499069  81.9903793  62.2715378  67.9225006
  82.3885727  61.4528275  68.2181015  81.8112717  62.1288757  66.9930878
  55.9961472  59.2863045  35.4069557  56.6373825  59.2051086  36.1129684
  55.1988411  58.8924446  35.7610855  64.6457520  50.5488167  28.5700169
  65.3419113  50.1361885  29.0812187  63.9020767  49.9518242  28.6524105
  21.7994766  55.7800903  31.2613640  21.2857933  55.0342140  30.9514694
  21.6274452  56.4715118  30.6221657  71.1145630  51.3820152  87.9107361
  71.0590210  51.8993111  87.1072769  71.5346298  51.9654617  88.5426865
  50.7462997  42.9187126  31.4461651  50.0118484  42.3074760  31.3895817
  51.5176582  42.3844528  31.2569351  70.8206940  43.0434494  40.3422203
  71.6769791  43.3733292  40.6145897  70.3799133  43.8045235  39.9644547
  68.9666824  15.3698883  78.9177246  69.9222565  15.3151360  78.9284744
  68.7815399  16.2990303  78.7811661  44.2162285  46.8933334  42.6061783
  44.8009453  46.4640465  43.2307205  43.7234993  47.5226021  43.1329308
  81.6392593  46.4128723  22.3955402  81.4606247  45.8755646  23.1673050
  82.4418716  46.0436211  22.0271759  42.4741249   7.9079204   6.6136780
  43.1070290   7.1905770   6.6466284  42.5057182   8.2955656   7.4883008
  11.3658199  38.1552963  64.8793869  11.8986731  37.4551010  65.2562485
  10.4965944  37.7672195  64.7790222  10.7856302  54.0927391  87.5906830
  10.1475792  54.2158356  86.8878479  11.3782234  54.8400841  87.5097961
  66.2076111  24.4820614   6.8086996  65.3841095  24.7444019   6.3972974
  66.2922592  23.5510921   6.6028748  18.1837730  68.6735992  83.7956848
  18.9973392  69.1097641  84.0488663  18.3097153  68.4480667  82.8740005
  66.9547806  27.1569023  70.7245483  66.2508087  26.5461388  70.5063019
  66.5330505  28.0161686  70.7306824  82.5611954  10.6257772  60.2474785
  83.2407684  10.2234221  59.7066307  82.7372894  10.3043804  61.1317406
  56.9515800  29.0559692  60.4813309  57.5022354  28.6456928  59.8144875
  56.9416542  28.4277401  61.2034531  56.9670372   0.2728820  12.5398951
  57.3548164   0.7249461  13.2892256  56.4968147   0.9575987  12.0641975
  73.3490448  62.0766182  18.3608036  73.9206772  62.7000046  18.8089676
  72.4626846  62.3741493  18.5659332  48.1526871  53.3421288  32.4288406
  48.1951065  53.9127579  31.6614990  49.0159187  53.4219246  32.8346710
  67.4410400  50.9954681  38.8288689  66.5098648  51.1321716  38.6543465
  67.8580627  51.0624428  37.9698944  57.8808174  63.7654953  17.5925236
  57.7035332  62.8526382  17.3656044  58.6350212  63.7240143  18.1804771
  43.8236618  66.0824280  50.4675674  43.4027176  66.7161560  49.8866844
  43.6560783  65.2337570  50.0578041  66.3337021  29.9132404  69.3297348
  65.6211548  30.5475044  69.4086151  66.2567749  29.5763702  68.4370804
   6.2159834  63.4181633  50.7661972   5.3261328  63.5862160  50.4561043
   6.7801218  63.7840576  50.0849457  75.0644608  45.5256348  63.3996582
  74.8259430  45.4011230  62.4810524  74.6846848  46.3727112  63.6330261
  50.4993515  48.2524719   7.3627706  49.9892654  47.4736710   7.5852928
  51.0017586  48.4440575   8.1546774  84.2296066  41.0021286  46.4557228
  84.0942078  40.5455818  45.6253853  85.0565491  40.6534920  46.7886734
  32.6394081  53.0276260  45.3077469  32.1457481  52.4453011  45.8851738
  32.9410400  53.7331161  45.8800545  65.8348541  36.3366966   4.3393688
  66.5838394  35.7459259   4.2603631  65.5832367  36.5266304   3.4355738
   0.6136280  61.4054565  29.4548740   1.3076717  61.5981102  30.0852871
   0.3815328  60.4926643  29.6256790  72.2498779  11.9835339  43.0405540
  71.7811966  11.8040543  42.2254753  71.6820221  12.5910435  43.5145836
  81.9666672  59.0582733  28.1029415  82.4698563  59.8494949  28.2952919
  81.9933777  58.5538673  28.9160175  55.9727783   5.0173750  60.2490120
  55.5434761   5.8562884  60.4168129  55.5555382   4.4086471  60.8585968
  61.9034195  11.9916363  77.6466904  61.8648796  11.1674786  78.1319809
  61.5976830  12.6509333  78.2696533  74.1738510  36.0017166   1.4805965
  73.7259369  36.8307343   1.6489359  74.6719131  35.8319092   2.2801781
  31.8869648  59.2275467  17.2908726  31.9202766  59.4377403  18.2241154
  31.6920490  58.2908134  17.2631493  11.1767197  71.6943207  41.0065460
  11.1310606  70.9466705  40.4105873  10.2750549  71.8204956  41.3020325
  23.4222851  58.0996552  25.1507931  24.1665783  57.9535561  24.5669136
  23.0781937  58.9542503  24.8909798  61.4345245  61.0050049  71.2616425
  60.6345406  61.0245132  71.7868881  61.4943275  60.1020126  70.9497833
  10.4287224  38.1018639   4.0844908   9.4828720  38.0215874   4.2075963
  10.7578812  38.3867645   4.9369683  25.2564068  43.7423134  40.7467499
  24.3325024  43.5181351  40.6355171  25.2507591  44.6686401  40.9878349
  27.4703140  44.0453377  79.8590317  28.2989349  43.5665779  79.8387909
  27.5101337  44.5590248  80.6657333  57.8033028  63.5474167  40.5060692
  57.8086357  64.2339478  39.8390732  58.1866570  63.9616203  41.2791824
   8.3390045  69.3166809  16.2975998   8.4513235  69.3404160  17.2478905
   7.7653036  70.0584641  16.1056252  70.1193848  68.6242142  29.3667336
  69.2979660  68.1352005  29.3180599  70.7550659  67.9918900  29.7018452
  44.8058434  53.0106697  64.5136108  45.4448814  52.3327560  64.7333755
  45.3266296  53.7141838  64.1262054  19.9003029  65.7128525  85.8860016
  20.6539574  66.2975845  85.9654846  19.1615219  66.2964554  85.7132492
  34.1170464  59.0253105  42.0436745  34.7585602  58.3713341  42.3211784
  33.7887077  58.6983833  41.2060928  74.6074524  59.7577400  32.7815742
  74.4401932  59.1696625  32.0450821  74.4463959  59.2212830  33.5577888
  69.5345612   5.4247251  15.3082361  68.7218857   5.8637848  15.0571890
  70.0659256   5.4308681  14.5120935  27.1102810  42.3260803  44.0360222
  26.3505249  41.7967033  44.2784233  27.2792587  42.0980530  43.1218643
  18.5304031  68.4756317   6.0037160  19.3211517  68.9975739   6.1398139
  18.8491268  67.5779114   5.9101644  80.2758331  20.8081837   3.9791806
  80.9517059  20.1839848   4.2433877  80.3705978  21.5374374   4.5919127
   1.6786647  17.0929966  30.9899540   1.0265108  16.9193764  31.6687622
   2.4495971  16.5973816  31.2661076  25.0805149  46.5199165  11.7765865
  25.8770046  45.9905891  11.8172226  24.3859081  45.8924751  11.5764141
   9.5261145  24.9512081  61.7589569   9.5356340  25.3149815  62.6442871
   8.8384438  25.4398212  61.3066292  57.2559242  32.9652710  81.5276566
  57.9830055  33.1488686  80.9327774  57.2410240  33.7126656  82.1254959
  11.1611700  45.1752777  25.9625740  11.3208780  44.5726509  26.6889095
  10.2486792  45.0199623  25.7187099  44.9119568  32.7140656  23.6469860
  44.3080139  31.9986820  23.8462486  45.7029686  32.2783623  23.3296623
  69.8586197  15.0853319  20.0554695  69.6418610  14.9528561  20.9783459
  70.8138733  15.0331326  20.0239162  27.6472282  34.6893501   8.1516085
  28.3272934  35.0801506   8.7002573  27.0859146  35.4246750   7.9057369
  29.2746410  69.1969757   9.1961689  29.7317104  69.2581635   8.3573751
  28.6216869  69.8961792   9.1646929  67.5212784  18.1293411  47.6109924
  66.6169739  18.0099220  47.9011688  67.4463806  18.6020813  46.7820511
  10.1738329  25.4555511  19.3609486  10.5745573  25.6061440  20.2170868
  10.9052200  25.4915543  18.7444992  79.2620239   5.1741629  82.0573425
  79.3878937   6.1223264  82.0944061  78.7099915   5.0357399  81.2877045
  55.8653336  27.8668900  10.9147615  56.7038918  27.4230766  10.7879362
  55.8455009  28.0793343  11.8478775   1.8996372  33.1393356  32.4738350
   0.9925334  33.4103050  32.3325195   2.4219286  33.8221893  32.0529327
  19.7371864  61.9941673  16.5589733  19.1251144  62.0272255  15.8237829
  20.5690804  61.7295532  16.1663342  42.3996735  45.1805649  65.9805603
  43.1895485  45.0457077  65.4569778  42.3294182  44.3902435  66.5159988
   3.8997166  27.2491951  33.7964706   4.3885155  28.0356655  33.5540428
   2.9958653  27.5491676  33.8929100  14.0960560  69.3607101  24.0876179
  14.5116329  70.1892014  23.8485889  13.5521784  69.5754471  24.8454552
  10.3364687  29.7210636  74.2634735  10.4332819  28.8353367  73.9136963
  10.8107624  29.7034798  75.0947189  35.5310440  63.5383568  43.3186188
  34.7927055  63.9092445  42.8353653  35.9428749  64.2916336  43.7419395
   7.7065244  69.5812454  19.2086182   7.2776122  68.8071747  19.5734138
   7.6212220  70.2465210  19.8915291  17.1205368  12.4326839  25.6094570
  17.4292812  12.6649570  26.4852180  17.0444279  13.2702427  25.1523628
   3.6149566  20.8863659  52.0833321   3.1846330  20.5789909  51.2854767
   4.1871400  20.1634159  52.3405876  11.6696072  53.2561722  14.5201149
  11.5212374  52.3217049  14.3752298  12.6170034  53.3336334  14.6326828
  19.8612118   3.0322485  61.8137054  19.4832649   2.8332436  60.9570923
  20.2612839   2.2097311  62.0959091  49.3905144  15.7048025  25.9453335
  50.2170677  16.1779175  25.8493996  48.9961662  15.7323942  25.0735760
  35.1541214   4.1304803  88.0466995  36.1035309   4.1548958  88.1660919
  34.8663330   3.3811698  88.5681763  77.9173355  55.6383209   4.5957246
  78.8338776  55.9126091   4.6263704  77.9544678  54.6979027   4.4211693
   3.5973711  69.6711197  75.0265732   3.2210927  69.0724792  75.6717682
   3.5661042  69.1854172  74.2023468  36.9673309   1.2348256  67.6697159
  37.0386658   0.4528428  68.2171097  36.0946236   1.5801004  67.8578568
  16.8465137  62.6144333  32.3123055  17.7508087  62.3054047  32.3669014
  16.3411732  61.8361015  32.0776443  66.0144653  47.0713501  73.2226639
  66.7092056  47.7279892  73.2716293  65.2304993  47.5689888  72.9903412
  69.0931168  27.3148003  43.5123215  68.3311768  27.5611000  44.0367432
  69.7935715  27.8881435  43.8235703   8.2497234  48.7296181  39.7507706
   7.5675993  48.4920845  39.1226654   9.0602064  48.4050636  39.3583260
  51.7132187  25.4943638  63.6690445  52.0710793  25.1468983  62.8520775
  51.2835999  26.3108902  63.4142036  80.5210037  34.5509491  45.7930679
  80.6450958  35.4732666  45.5690956  80.3534012  34.5537834  46.7354774
  59.4699478  27.8131790  13.9617167  58.8852615  27.1654301  14.3551550
  60.1590919  27.2936211  13.5477467   8.7964287  61.8899879  87.4281464
   8.5610657  62.1529312  88.3179169   9.2577991  62.6476860  87.0686111
  41.8035507  41.3265572  58.2344627  41.0866013  40.7208099  58.0466118
  41.4053802  42.0085564  58.7753563  38.1428223  14.7220602  10.2601423
  38.1416931  15.6767244  10.3297663  37.2291527  14.4932737  10.0895596
   9.9493141   5.6003261  85.8270264  10.6806822   5.7167168  85.2205734
   9.7566042   4.6633492  85.7928391  12.6450415   2.9521697  74.1476059
  11.7471123   3.2444711  74.3041763  12.5867739   1.9968619  74.1326370
  22.6261082   2.4807606  79.9103470  22.1761971   1.7052755  80.2456589
  23.0492172   2.8632946  80.6790314  14.5580225  33.1868134  17.7430458
  15.1875887  33.8697548  17.5118084  13.7473831  33.4511070  17.3080215
  63.3495789  58.6435013  52.4589081  63.8354607  59.1714706  51.8253479
  62.6985588  58.1781425  51.9336929  50.3406906  69.6342392  87.2880478
  50.3900757  68.7000656  87.0853119  51.2261696  69.8656158  87.5684509
  71.1292572  57.4296722  57.6905441  71.6509018  57.8322411  58.3848457
  70.2366028  57.4211159  58.0359764  32.8287354  54.4154739  27.5630703
  32.2224464  53.6747665  27.5635548  33.6918144  54.0184593  27.4460182
  53.5669365   4.0911937  79.6611099  52.6121101   4.1244702  79.7197037
  53.7634392   4.3983207  78.7760773  57.7499390  46.1211929  21.1141605
  57.6732864  45.5596085  20.3428135  58.6718864  46.0601578  21.3641968
   9.7625132   8.9101572  22.2994232  10.6957264   9.0656815  22.4448776
   9.3284979   9.6603708  22.7056789  14.8809071   7.7784572  52.7032585
  15.7493896   7.5804906  53.0536575  15.0406065   8.4320250  52.0223961
  77.5257797  64.3404083  85.0122833  77.6975632  64.0105362  84.1302872
  77.0910416  65.1817169  84.8728867  23.9752579  56.4266510  79.2791290
  24.2168007  55.5566788  78.9612579  24.7174950  56.9827614  79.0423660
  39.8210678  58.7502365  67.3321075  40.1145134  58.7849312  66.4216614
  39.5679855  57.8370934  67.4675522  26.4804649  23.4900589  60.9182129
  27.3251381  23.8043251  60.5957298  26.2980099  24.0358391  61.6831093
  59.6064491  51.7023773  24.8399048  60.1227608  51.8705330  24.0516300
  59.0718498  50.9400291  24.6179600  63.5703506  69.0880585  44.4859962
  62.7183037  69.5241394  44.4772720  64.1668320  69.7197266  44.0842133
   8.7241535  61.0317802  71.8786621   8.2868280  60.1861877  71.9784317
   9.2832127  61.1050301  72.6521759   1.5444312  29.9295216   6.5929775
   1.8697087  30.5525074   5.9431186   1.5551573  29.0853539   6.1418729
  35.1545448  60.7896614  70.4074097  35.3638229  61.6583633  70.0642014
  34.3671913  60.9238472  70.9349442  27.2891197  51.9329453  83.2065964
  26.5494175  51.6917572  83.7641830  26.9821968  52.6972389  82.7188644
  25.5975094  48.7947235  47.5916367  24.9031162  48.9846954  48.2224770
  26.1923161  49.5417404  47.6579857   4.1134534   8.1232700  50.3167191
   3.6588140   7.2816463  50.3514175   4.8829803   7.9575281  49.7721176
  70.8777008  51.6428070  15.9408903  71.4314346  51.3926849  15.2012672
  71.4949875  51.8904724  16.6292572  23.8904686  67.3758163  45.0966492
  24.7773972  67.0873871  45.3120499  23.5341167  67.6942596  45.9260101
   0.7582520  46.7585297  81.4450684   0.7319350  47.1548882  82.3159485
   1.6901685  46.6293945  81.2687531  44.1402092  12.7307663  69.9620895
  44.2857513  11.8366814  70.2713776  45.0165787  13.0619440  69.7658081
  76.6177826  29.4133568  50.4446259  77.4133835  29.7181988  50.0083694
  76.5200806  28.5054588  50.1575584  73.4879761  28.7532158  26.3635368
  73.2325363  28.0494022  25.7671909  73.3285217  28.3964520  27.2373371
  80.6310577  42.7588081  39.1523247  81.5539856  42.7399635  38.8991890
  80.4881058  41.9243317  39.5989189   7.0809755  51.1305542  46.4349480
   7.8423629  50.6328278  46.1369743   7.3560524  52.0456505  46.3786812
  66.1603699  63.5060539  23.9128666  66.7626114  64.1543579  23.5478573
  66.6668091  63.0665627  24.5959511  38.4058113  70.1325684  42.3083458
  37.9665527  69.3378983  42.0053940  38.9595070  70.3953171  41.5730743
  36.9106598  27.3494434  74.5991821  37.8110733  27.0458050  74.4838638
  36.9278259  28.2633209  74.3149948  73.1898193  33.7024765  26.4596577
  73.1383591  34.5555916  26.0286427  72.7511826  33.1025200  25.8564320
   5.1497598  50.2223091  25.9955368   4.9333487  50.4120178  26.9084492
   5.8664107  49.5897560  26.0457401   9.7198954  63.7222748  43.9558640
   9.1704111  63.8304253  43.1795883  10.1383581  62.8697472  43.8362198
  81.7780380  41.4344139  75.3959579  81.3001938  40.6060600  75.3544769
  81.7747040  41.6665993  76.3245621  55.0226555  49.4921913  79.6399765
  54.6768990  48.6141586  79.8004303  55.4067802  49.4420776  78.7646637
  57.3163872  24.7998257   6.5184364  57.5758095  24.8874111   7.4356394
  56.4584770  25.2216740   6.4708481  68.4380264  67.7752609  87.0435867
  67.7147369  68.3763962  86.8655014  68.1600418  67.2894592  87.8200912
  80.1757355  52.8723602   4.3444657  80.4610825  51.9614944   4.2728171
  79.2222061  52.8310852   4.2715578  44.7100830  49.3249550  72.6542816
  45.4972038  48.8118553  72.8370285  45.0395470  50.1884575  72.4051819
  56.1612053  54.2225838  34.2525749  56.9797897  54.3061066  34.7416267
  56.3034248  53.4736938  33.6736374  65.8044281  64.6065445  18.2925472
  64.9745255  64.5782776  18.7686672  65.6328964  65.1807251  17.5461369
  14.0162039   0.3734322  59.2910576  13.8096771  -0.5259612  59.5453606
  13.9385948   0.8755351  60.1022911  22.5756836  61.5046959  48.5715485
  21.7660828  61.6693420  48.0881538  22.4211617  60.6742363  49.0217590
   1.4525330  26.1796703  44.7074203   1.9609226  26.9673347  44.5141373
   1.9590678  25.7271729  45.3818817   2.2094715   8.4295816  31.8436069
   2.5558503   9.1201019  31.2784214   2.9215097   8.2406397  32.4547806
  66.8854446  50.4276772  41.4425392  66.1252823  51.0075264  41.3960381
  67.2484741  50.4371872  40.5569038  81.3120270  30.2920609  10.0882454
  82.1568909  30.1596165   9.6582584  80.6794434  30.3185043   9.3703480
  56.6463776  47.3469391  60.8810654  56.3350639  48.2091255  60.6054764
  56.1584854  47.1613235  61.6833992  41.6467285   7.2180367  79.0746765
  41.7931213   6.7494831  78.2529297  41.2477760   6.5681119  79.6531754
  30.6583595  69.3697891  88.5032959  29.9941158  69.1859894  87.8390427
  30.9188957  68.5073166  88.8265610  84.6423111  25.8387833  85.5276413
  84.1661072  25.4690933  84.7841415  85.4215469  25.2890530  85.6102448
  22.7039661  60.0598335  67.1245880  21.9402084  60.6304779  67.0393143
  22.5548611  59.3630028  66.4855118  14.8715229   3.5078545  31.0792103
  14.0153751   3.2863743  30.7128906  15.4044609   2.7265024  30.9319077
  71.8667526  16.3512783   3.4784358  71.7078247  16.2621784   2.5387356
  72.8142853  16.2525749   3.5715168  20.0794334  55.0785561  13.8961372
  19.8343163  54.3195953  14.4254093  20.0831375  54.7519722  12.9963808
  75.5774307   1.6187317  88.6464767  76.0100708   0.8876976  89.0876617
  75.2569351   1.2467755  87.8247986   3.5495658   1.9893973  44.2656670
   4.0506310   2.7493768  43.9696999   4.1983495   1.2897886  44.3422127
  63.6214714  28.2291393  68.1198730  64.0332108  29.0505333  68.3882294
  64.3389053  27.5956936  68.1036682  52.1541100  44.0845757  44.1750450
  52.2765923  44.9408913  44.5848618  52.6689148  43.4848175  44.7149544
  46.7424355  66.9195786  33.6993446  47.6754494  66.9366760  33.9124680
  46.5199165  65.9889908  33.6724358  20.7973995  40.0906944  80.6967773
  21.0588703  39.9507141  79.7866898  20.3060856  40.9120369  80.6812057
  12.1481524  57.3623161  24.3731956  12.7465086  57.9930115  23.9726696
  12.7198000  56.7536545  24.8411503  81.3800201  13.6870766  58.0581017
  80.8230743  14.3880024  57.7193604  81.2055588  12.9429045  57.4819031
  60.9993401  21.5683765  79.6514816  60.9927368  20.7076187  79.2328110
  61.5358810  22.1114635  79.0740662  56.1938705   8.8182764  16.4048023
  56.5844841   9.1548109  15.5983295  55.6120033   8.1159887  16.1141911
  85.1561050  39.5205269  40.5008202  85.6859055  40.1660347  40.0329895
  84.3892593  39.3904152  39.9429207  77.9294815   0.1239434  63.5246048
  78.0316010   0.7448059  62.8032646  77.4917450  -0.6307705  63.1308746
   5.1067533   9.7745113  60.5588455   4.8068457  10.3506327  59.8557320
   4.7367558   8.9188557  60.3416176   9.8368359  56.3871689  47.2633514
  10.2685022  56.1769600  46.4352760   9.9619255  57.3306007  47.3659248
  52.7141533  25.6433125  82.4973297  52.3746529  26.5360661  82.5602646
  52.6075821  25.4110165  81.5748749  34.4517822   3.5062072  43.1168671
  33.5202599   3.7202373  43.0650101  34.8601036   4.0487094  42.4421844
  67.8843842  38.9096031  31.4318542  67.8225250  38.3741188  32.2228432
  67.7786865  38.2871780  30.7123775  13.5752316  45.2491570  11.7690477
  14.1318407  45.2321014  10.9905062  13.0692625  44.4381218  11.7195501
  50.7554398  60.5479546  61.4728165  50.6213417  59.9110756  60.7709389
  51.6890259  60.4880524  61.6754456  76.1176071  26.1781921  27.2307396
  75.6505356  25.8596649  26.4583321  76.9167328  25.6521626  27.2612514
   5.9819341  25.9045143   7.5927305   6.4193974  26.7526951   7.5189185
   6.6177130  25.2764645   7.2498446   1.3253287  69.7538376  43.2748413
   1.6801034  69.8974838  42.3974991   2.0787852  69.4749146  43.7951660
  43.0667839  70.6313095  23.7773247  42.9448509  71.1538086  22.9846344
  43.2738609  69.7536774  23.4562016  54.4635735  34.9502373  20.4210911
  53.6767616  34.4092903  20.4884548  54.8809586  34.6657104  19.6080341
  62.9590607  71.1505508  83.7468414  62.4301376  71.4063721  82.9911804
  62.7466316  71.7987595  84.4183578  23.8365650   1.0411198   9.4856405
  23.0850868   1.5582237   9.1956100  23.9418354   0.3716221   8.8096800
  34.6297989  71.0997849  27.2932072  34.8421173  71.5230560  26.4613457
  35.4803276  70.8979416  27.6831894  28.7838860  54.3577652  68.4057312
  28.4762154  53.5665436  68.8479385  29.7380829  54.2828865  68.4172058
  11.9827518  58.9540291  13.4571848  12.7194195  59.1301804  14.0424395
  12.3607016  58.4380798  12.7450171  19.8211880  18.6295891  80.2700806
  19.6729927  18.8146915  79.3427200  20.7280693  18.8937244  80.4251022
  41.7349167  20.6277008  82.3469620  42.6281776  20.9382381  82.1990204
  41.8046455  19.6735821  82.3148956   2.8720663  46.0759659  15.7850847
   2.0181797  46.5005455  15.8677950   3.4702077  46.6444397  16.2701550
  76.1831207  36.0563011  51.1444206  75.2637329  36.3180275  51.1939354
  76.5490265  36.3050995  51.9932098  51.9088440  39.1463127   5.4648042
  52.6856041  38.8173752   5.0123944  51.2489662  38.4654388   5.3336358
  66.9755173  36.6661263  29.6409206  66.3289719  35.9686737  29.7493935
  67.7942963  36.2067909  29.4542351  82.1615372  19.6210518   0.2905751
  81.4013062  19.3730831  -0.2355338  81.8457947  20.3330154   0.8470302
  34.9494705  65.4398575   6.6798577  35.2630005  66.3374481   6.7905626
  34.9808273  65.2900238   5.7349772  11.5025206  49.7056885  40.4540138
  11.8831863  49.5037346  39.5993004  11.7086287  48.9428825  40.9942741
  52.2221947  30.6436329  55.5485840  51.3556976  31.0483952  55.5883865
  52.7664261  31.1861687  56.1192856  69.0828857  30.7347069  69.2801285
  69.4063568  30.0860214  69.9052734  68.3107452  30.3260746  68.8889008
  53.4585114  28.9414272  60.4383698  54.1501999  29.5054741  60.0924606
  53.2018509  29.3551311  61.2625084  24.8125076  20.1524582   6.4067135
  23.9518986  19.8059406   6.6423211  24.9713974  20.8510590   7.0414915
  58.0973015  18.4685650  55.0158615  57.8188400  17.5527630  55.0155525
  58.9688950  18.4537506  55.4112587  68.3119812  60.4612846  15.5683374
  68.4865341  61.3956757  15.4557409  69.1638718  60.0830383  15.7861481
  84.1274109  14.1571674  47.2741737  84.2283783  15.0576124  47.5827789
  84.1114426  14.2313757  46.3199883  13.9228239  63.9713211  85.1247101
  13.6839628  63.5837822  85.9667282  14.7250900  63.5154457  84.8702011
  20.8548927  35.2205772   9.0634212  20.4575748  34.7216644   8.3496590
  21.6819973  34.7715492   9.2380753  74.9071732  68.8207169  71.4042816
  74.2527618  69.2748413  71.9350815  74.7709045  67.8932495  71.5978622
  75.3650894   5.7204504  51.6888084  76.1784897   5.2740498  51.9240494
  74.7909241   5.5850582  52.4426231  47.7719955  45.2713814   0.4573362
  48.0439949  45.7406387   1.2460357  48.2348518  45.7121429  -0.2552126
  41.8829575  49.2350082  17.7858868  40.9918213  49.1853867  18.1317768
  41.8870010  48.6273537  17.0463104  19.3473206  18.4683399   7.6055355
  18.6691914  18.2901669   6.9538994  19.0703812  17.9780788   8.3796034
  82.2380295   5.3554621  10.7027330  81.3055344   5.2177229  10.5362568
  82.3068848   5.4011493  11.6563597   8.9542742   3.0827107  85.7495117
   8.0211191   2.9944057  85.9435577   9.1401176   2.3704615  85.1376343
  47.9949760   9.1884241  74.8888779  48.5851212   9.8309031  75.2828064
  48.5752869   8.5745029  74.4387970  25.0403118   6.3101850  82.2349777
  25.4703388   6.9999671  82.7404556  24.5224133   6.7798071  81.5811691
  50.0275612  61.3183136  36.7121124  50.9555283  61.4953537  36.8662720
  50.0223579  60.5666237  36.1195183  48.4336662  28.0812931  81.4984360
  49.0751877  27.3787556  81.6039124  47.8023834  27.9370041  82.2033463
  46.4970207  19.5799141   0.3476907  46.3930550  20.3348198  -0.2315676
  47.2922287  19.1472034   0.0368300  51.2100868  40.1528168  33.1267319
  50.3411560  40.3716698  33.4633217  51.0564919  39.8920860  32.2186241
  53.6128006  47.1215439  21.1583290  52.8998833  46.9832916  20.5347404
  53.2568169  47.7406197  21.7957077  78.1450653   3.0068984  88.9511871
  78.4293518   3.5185905  88.1938324  77.2252426   2.8091128  88.7750015
   4.2996440  16.9496059   3.2345219   4.0825639  17.5191364   3.9725902
   4.5070472  16.1057987   3.6360238  32.4271355  45.4615250  68.4274292
  32.5288963  44.7806931  67.7623444  32.9247856  46.2050323  68.0871811
   8.0495148  18.2360039  59.2723579   7.7795315  18.2918224  58.3557205
   8.7165337  18.9159164  59.3674126  23.5655823   2.3656869  40.3987999
  23.7245178   2.7666378  41.2533226  23.0580215   1.5780782  40.5944633
  32.1429977  31.5384312  76.0093460  31.3461514  31.5207844  76.5393982
  32.2697487  32.4633980  75.7981644  53.0675507  28.1233578  64.6943359
  52.2312813  27.7273006  64.4493332  53.3804550  28.5386677  63.8906937
  59.9695930  32.5433044  69.4290924  60.7442703  32.4994965  69.9896164
  60.3128891  32.7618332  68.5627060  68.5992889  43.6578102  62.0167084
  67.6434326  43.7046814  62.0359764  68.8772507  44.5384941  61.7649765
   8.9846430  50.9736061  64.8712769   9.1724777  50.3120270  65.5370636
   9.8300819  51.1411133  64.4548569  53.1087952  15.5471668  20.9834499
  52.2456474  15.8726358  21.2389393  53.1407242  14.6554508  21.3299370
  82.4362793  32.0990906  37.5581398  81.6475906  32.5481758  37.2539558
  82.8750305  32.7389030  38.1188202  86.0853424   2.1869848  61.5443382
  85.2980347   1.9892802  62.0515785  86.2310944   3.1227574  61.6833229
  61.3537140   6.4083085  51.0869713  61.7973480   5.6179152  50.7792435
  61.3182945   6.3081188  52.0382538   0.8501520  68.3035507  88.6267319
   1.3163549  67.4726562  88.7189026   1.2331957  68.8688049  89.2975540
  75.7093964  60.7978020  77.8053970  76.0238419  61.3771057  78.4994888
  76.4261780  60.7724762  77.1715088  50.7870102  67.6543579  30.6461620
  51.1386108  68.3559952  30.0981522  50.4372406  67.0167694  30.0237694
  43.4653587   3.3246772   5.9170423  43.5561371   2.8118758   5.1139073
  42.5764503   3.6774623   5.8767719  11.9485722  67.8109131  85.7971878
  11.2158346  67.4896011  85.2717514  12.7101946  67.3394547  85.4597092
  47.5554733  48.4772415  72.2968445  48.2831841  48.0151100  72.7128983
  47.7294769  48.4026031  71.3585587   5.7608132   5.3437538  64.8172226
   6.0026026   4.7774777  65.5500946   6.5118213   5.9269562  64.7072525
  56.5616722  44.4730339  41.2840958  55.7295074  44.9269714  41.1511459
  56.7385216  44.5663528  42.2201767  19.2231922  41.5255165  42.0329056
  19.3194771  41.2307053  41.1273384  19.9907207  41.1722221  42.4826965
  78.3404388  62.8834915  29.4537067  78.2760468  63.5261383  28.7472439
  78.6373367  62.0822563  29.0223064  18.6360092  64.3559647  65.2518921
  18.7857513  63.6323318  64.6434860  18.2269402  63.9469490  66.0145187
   4.4832263  16.9291878  61.5329475   5.3917899  16.9046650  61.2327080
   4.0368547  16.2716274  60.9994698  83.6111069  20.9982452  19.2833328
  84.3072891  20.9076519  19.9339867  82.9336853  21.5087318  19.7268810
  70.3574371  30.5391064   6.4101372  69.8045883  30.9902744   7.0481319
  69.8848038  30.6228905   5.5819874  61.0373726  65.5180130  78.5384903
  61.4900436  66.1645355  79.0800858  60.8029213  65.9946289  77.7421799
  20.4091759  57.8843536   9.6350393  21.0106812  57.5758095   8.9573793
  20.5591011  58.8288345   9.6763992  50.2110138   9.8574982  55.7669373
  50.3067207  10.7610426  56.0680695  49.4879189   9.8891211  55.1405449
  68.4750900  62.9689140  71.5081940  68.6328659  62.0371437  71.6603241
  67.6593170  63.1528702  71.9739304  31.3613472  35.3819885  70.3768005
  32.2566986  35.0628014  70.4894791  31.2289715  35.9866638  71.1069260
  24.1713753  41.8474197   2.0362322  24.4091244  42.1124840   1.1477234
  23.4020176  41.2895088   1.9219561  80.1228867   0.9479122  71.4890366
  80.7516327   0.2436594  71.3311386  79.4950027   0.8740224  70.7703323
  66.0242310  51.1766853  70.0652161  65.5459595  51.8958626  70.4778595
  66.8832626  51.1869774  70.4873428  38.8372383  37.8333702  82.3575058
  38.0239296  37.3548431  82.5180588  38.9190140  38.4245644  83.1058578
  29.1762257  39.8398285   6.8917551  28.4565620  39.3766747   6.4630303
  28.7805023  40.6482735   7.2174072  41.9633293  67.8629990  49.3259087
  41.2574692  68.2412567  49.8502312  41.5317307  67.2021790  48.7843590
   2.3449962   9.2145891  27.7775631   2.5813937   9.6977549  26.9857941
   2.9341543   9.5550404  28.4507771  49.4257774   5.4366312  55.3059959
  49.0418358   4.7298670  54.7870522  48.8778763   6.1981649  55.1159935
  56.4204369  42.8260765  67.7538834  55.9529991  42.6797333  66.9314957
  55.8055840  42.5460777  68.4319611  11.5412130  58.4618988  66.3908081
  12.3824883  58.4967728  65.9355392  11.5367079  59.2417793  66.9457932
  76.9463425  40.2076988  52.2994041  76.4974518  39.3697281  52.4113731
  77.7726517  39.9815941  51.8724174  74.1783676  63.3768425  63.4099617
  73.4682236  62.7850151  63.1616440  73.8188171  64.2532578  63.2726784
  61.1224022  25.4337635  17.5229416  61.7251511  24.6920376  17.4703274
  60.3784561  25.1026134  18.0260525   5.2705941  15.6087132  20.4812183
   5.5525355  16.5182285  20.5788021   5.8199492  15.2617655  19.7783184
  35.9674835  14.1004553   3.3147073  36.3031082  13.6383991   4.0828819
  35.9694252  13.4423971   2.6195900  13.9755497  62.1141472  27.9513035
  13.0413198  62.1581573  28.1550446  14.4107828  62.2412872  28.7942982
  49.7658653  30.7710991  48.6214714  50.6738129  30.5484352  48.4158478
  49.7588959  30.8959293  49.5704727   1.5487794  54.3684654  82.7276764
   1.4610591  55.2141724  83.1673508   0.6956126  54.2210999  82.3194809
  61.4422035  67.1860580  12.2086239  62.3540421  67.4757004  12.2383575
  60.9979935  67.7258377  12.8624907  64.3557434   3.0850224  21.1903915
  64.8103638   3.8276160  21.5880165  64.4656982   3.2134545  20.2482433
  75.6550598   2.1068449  79.7200851  75.3527145   2.0696070  80.6275253
  75.2205963   2.8773501  79.3543091  44.7385025  47.2976799  68.5195236
  44.6097870  47.4846039  67.5896225  45.4138603  47.9166527  68.7970123
  23.1969566  51.6716232  47.9878197  23.3810387  52.4796028  48.4668999
  22.8102493  51.0886192  48.6411133  57.0751648  34.0116196  75.0772934
  56.2453957  34.4576912  75.2468109  57.5084915  34.5541191  74.4183884
  51.2454147  40.1100464  54.9649658  51.2947998  40.8954430  54.4200363
  50.7524948  39.4824219  54.4364281  75.1192780  28.3893738  60.1737061
  75.0540237  27.6196213  60.7389069  75.8269348  28.1796875  59.5642052
   7.5832968  56.8407440  24.2120514   8.3888874  56.4981461  23.8249054
   6.8899016  56.2897110  23.8490067  25.4531422  50.7089005  13.1236267
  25.0298843  49.9021873  13.4173908  25.7491608  51.1313896  13.9299192
  79.0910797  62.3045349   0.7425647  79.8735046  62.8377419   0.6021039
  79.2200317  61.5381432   0.1837725  50.1124191  71.9570007   7.1861882
  50.4277840  71.5867615   8.0106239  50.1783981  71.2366180   6.5593505
  33.5741425  22.5139503  84.9072495  34.3059731  21.9854431  85.2255936
  33.9879761  23.2353382  84.4333649  49.7658730  69.8281403  78.8356476
  50.4807281  70.4170456  79.0773239  49.1082458  69.9565964  79.5192108
  32.7237396  60.9132004   1.3341503  32.0332870  60.3829727   0.9362019
  33.4935760  60.3443565   1.3324879  83.0623856  50.6525917  52.1325111
  83.5501862  49.9992599  51.6310768  82.6127243  51.1765747  51.4695778
  22.9710846  31.0922432  16.6710567  23.0110416  31.0806446  17.6273537
  23.5033836  30.3442993  16.4000053  52.0279503  63.0283127  23.5101433
  51.0890961  63.0529556  23.3252773  52.3597412  62.3113251  22.9697018
   5.4748092  31.6575775  56.4086266   6.1885724  32.0624123  55.9157944
   4.6857376  32.0976601  56.0925140  62.6391411  41.8719444  31.5984402
  62.7499657  42.2092743  32.4873466  63.4772758  41.4576187  31.3932667
  75.7264099  24.9235973  24.8363171  76.2597504  24.1339760  24.7453213
  74.8402100  24.6414642  24.6098652  59.0095520  54.8087006  13.7277107
  58.5114250  55.4593849  13.2330265  58.3550262  54.1697540  14.0098047
  18.3351498  68.2336655  11.1453371  18.0007763  68.9812317  11.6408834
  18.5317898  68.5894012  10.2787247  52.1889610  64.1616440  76.3144760
  51.7379990  63.7008095  75.6070175  52.7467804  63.4958229  76.7166748
   0.7434545   2.2637239  23.7286682   0.2249923   2.5305018  22.9695530
   0.1432950   2.3466625  24.4697227  81.6243668  22.0188370  81.9763412
  80.9473953  21.3698273  82.1679840  81.6035080  22.1126175  81.0239792
  34.6956253  21.0212231  76.8335342  35.3913231  21.5828876  76.4918213
  34.6655998  21.2196465  77.7694626  29.5165443  59.5889664   1.0436606
  30.0572376  59.0154076   1.5867156  29.5293999  60.4312286   1.4982648
  78.3169708  24.2706203  27.0499592  78.3604279  23.3147049  27.0738125
  78.4097366  24.5374928  27.9645119  54.6123161   7.8724546  39.1943588
  53.9166603   8.4184008  39.5607414  54.2953224   6.9758058  39.3028259
  84.5550995  42.7941589  24.9647694  83.8989868  42.1114998  25.1052322
  85.3938599  42.3474770  25.0795898  72.5765305  32.9028664  59.3441315
  72.2852631  33.5287247  60.0072289  73.3305435  32.4668655  59.7411079
   8.5272961  56.9893456  69.1028824   8.3536654  56.6766624  68.2150116
   7.7165003  56.8152924  69.5809479  59.7830620  64.1271820   7.3724360
  60.5993347  64.2737579   7.8503966  59.8134613  63.2032318   7.1241980
  80.5321503   3.3077779  54.6975288  80.3018417   3.7849848  55.4946899
  79.7547836   2.7863145  54.4975090  42.7184715  41.3154182  23.3008518
  42.0356331  41.6965637  23.8528442  42.9436150  40.4915009  23.7329426
   5.9151888  29.3514462   2.0436633   5.8046403  29.8732624   1.2488558
   5.3260016  29.7565651   2.6800344  19.8126431  13.4202156  30.7236500
  20.0074253  13.8316250  29.8816090  20.1372223  12.5242748  30.6332550
  57.4998817  26.0714283  54.1168900  57.5875969  26.9767303  54.4151649
  58.2255363  25.6095352  54.5367851  58.4462547   2.6497066  39.8358116
  58.6415710   1.7505928  39.5718460  57.9461479   2.5579581  40.6468048
  43.6977997  54.7078438  36.1499367  43.4283333  53.8118782  35.9477882
  43.7902565  55.1287575  35.2952347  27.9022503  32.4897194  12.2327976
  28.0703888  33.2267609  12.8199339  28.7617607  32.2678795  11.8746634
  63.9028473   4.6007023  12.5235519  64.2985077   3.9111831  13.0567036
  63.8572350   5.3581572  13.1070023  76.8711624  36.1037636  31.3017693
  77.1955872  35.6266975  30.5379715  77.0032272  35.5016785  32.0340843
  33.6757812   2.2739739  30.8233242  33.3302574   2.6992404  31.6081753
  33.8603630   1.3761023  31.0989838  32.5715866  64.8946533  86.5841675
  32.0394325  65.3596039  87.2298126  33.0515785  65.5853729  86.1272888
  62.4206161  60.4460869  78.9041824  62.5078316  61.3991432  78.9217606
  63.0009117  60.1395760  79.6009903  64.7122116  47.6562042  61.8279114
  63.9235115  48.0688629  61.4759178  65.4199677  48.2590523  61.6001282
   3.9610109   7.3712339  70.0522003   4.0681782   8.2945509  69.8236542
   4.4808311   7.2596221  70.8481598  13.7012262  11.9130602  62.6123161
  13.8800278  12.8475485  62.5074730  14.4747934  11.4793119  62.2521935
  32.2341652  62.8006935  73.7783508  31.6620483  63.2396660  73.1488953
  32.3758469  63.4503784  74.4668732  29.3970737  21.3568401  73.0272675
  28.9926529  21.3199558  73.8940506  30.3223972  21.5287132  73.2018204
   3.7556152  70.8137970  12.1963787   3.9278452  69.8817749  12.0625486
   2.8084569  70.8663864  12.3242760  23.6299953   8.0846901  19.1163387
  22.9074574   8.7109346  19.0717468  23.2565937   7.3188453  19.5525551
  49.2403603  39.9860039  19.9561176  50.1212120  39.6138611  19.9990406
  49.3744087  40.8845901  19.6547794  76.8804474  24.0564156  14.7823029
  77.8192215  24.1012516  14.6008501  76.4818573  23.8588142  13.9347715
  56.6946068  68.9143295  72.3358688  57.0329666  68.0189667  72.3449631
  56.1804504  68.9678955  71.5302582  37.0851212  28.9423981  81.8745422
  37.2659836  28.9409943  82.8144989  37.9489708  28.9854355  81.4644852
  35.1933098  57.5534821  17.3032990  35.2659225  57.7759781  16.3751526
  34.6123276  56.7930107  17.3225555  69.9217529  31.0603828  85.3178864
  69.6460266  30.5569324  84.5518951  69.7142258  30.4961452  86.0627365
  13.5651417  25.5139599  85.3616409  14.4594421  25.2253475  85.5437393
  13.4809704  25.4473553  84.4104767  44.6754417  43.3489761  77.7485580
  45.0023804  43.9320297  77.0634384  44.7294235  43.8682442  78.5508575
  20.2052555  66.6811218  15.3785591  20.8030567  67.1625366  15.9504938
  20.5243111  65.7790070  15.4035540  79.9353790   3.4805236  21.8100185
  80.0155487   4.4196897  21.9766655  79.2633820   3.4141574  21.1315994
  13.0325451  57.2126427  11.5064058  13.2862434  57.2030525  10.5834885
  12.1676416  56.8028221  11.5213213  30.8063641   3.2494478  62.8976746
  31.0864582   2.7419400  63.6593933  30.2269669   3.9211662  63.2572937
   4.0684652  52.8229218  55.5391846   4.3756933  52.9694214  54.6445465
   4.7950778  53.1103554  56.0920410  68.4399567   2.5758708   8.8531046
  67.6959534   2.1719751   9.2998266  68.3960648   3.4992061   9.1016150
  82.7739029  16.3039341  10.6317024  83.5539856  16.1797600  10.0910664
  83.0542526  16.0649242  11.5151682  59.8501511  55.1274223  16.1821690
  60.6596680  54.6401138  16.0290585  59.3801193  55.0786095  15.3497534
   5.0676398   9.7035494  19.0666561   5.9407320   9.8791056  18.7157688
   5.2285991   9.3220320  19.9296551  28.4424591  51.8925896   4.1948910
  29.0117340  52.6617737   4.2175474  27.7746620  52.0692520   4.8575144
  63.8400307  26.1991215  87.8086243  62.9185410  26.2702255  87.5595627
  64.2346268  27.0156288  87.5022812  54.1738472  52.5639229  36.9851379
  54.0566902  52.4256020  37.9250183  54.7768097  51.8715286  36.7144775
  35.2076187  52.5884323  27.5040035  36.1439514  52.7816582  27.4573631
  35.1392212  51.8906975  28.1557102   9.0415821  44.7256012  83.0423050
   8.2010546  44.3453789  82.7870102   9.4596405  44.0478096  83.5733948
  16.9868774  68.6428757  49.5695152  17.7476749  68.1763763  49.9156265
  17.3553257  69.4096146  49.1306610  78.2885208  24.7855892  43.9060555
  77.5034943  25.2118511  44.2499542  78.8817749  24.7356071  44.6555786
  61.4747162  36.8455124  54.0827255  61.6583595  37.3115082  53.2670326
  60.5203247  36.8564644  54.1551781  34.0791206  49.2803802  58.2598877
  34.7352486  49.9698410  58.1580467  33.2407722  49.7414436  58.2312088
  57.9357681  10.5279789  76.3086472  58.6085739  11.1258717  75.9829407
  57.5748329  10.9694891  77.0774307  55.1421585  44.5350456  79.0574188
  54.8351860  44.5091095  79.9636917  54.3550339  44.7139015  78.5429535
  34.4689026  58.6990547   1.1892172  34.2949257  58.4641304   0.2777492
  35.4226799  58.7593117   1.2431601  21.7231045  50.4240379  78.9394150
  21.0268478  51.0318451  79.1884689  22.5110760  50.7818985  79.3484039
  45.0970573  57.7903099  78.0669479  45.4320297  57.6774864  77.1773987
  44.1682167  57.5680313  78.0030975  50.9638329   1.3930259  44.9506378
  50.9658966   0.6479387  44.3497467  51.7780418   1.8581032  44.7582855
  37.0169830  61.2223778  44.0423927  37.9162521  61.5460854  43.9898643
  36.4778595  61.9699135  43.7840004   2.6314130  43.9479866  26.8859196
   3.4699113  43.4986992  26.9921894   1.9970413  43.3767700  27.3189507
  52.2808609  34.9270210  55.9444466  51.6065445  34.2488708  55.9038696
  52.7601204  34.7402306  56.7516975   0.2633284  21.3456097  33.3480301
   0.7773128  22.1445580  33.4652176   0.8589638  20.7402363  32.9064713
  52.5696907   9.7742815  49.2933540  52.1015358  10.5706854  49.0427399
  53.0713005  10.0253468  50.0689697  61.5526619   3.1626601  23.0184956
  61.0360718   2.7221107  22.3437500  62.4209442   2.7651296  22.9530563
  28.0498066  50.9233932  58.3018494  28.7247086  50.5642014  57.7258987
  27.5064526  50.1700363  58.5330353  70.4059830  23.9035225  54.0179062
  69.8871384  23.3390446  54.5909615  70.8435440  23.2989674  53.4184990
  58.0141220  21.7218304  36.9330063  57.7401428  22.3151131  36.2335892
  57.2762260  21.1217308  37.0408096  17.4231987  18.4553146  75.0839539
  16.5317402  18.1811180  74.8686600  17.3275127  18.9767551  75.8809280
  32.3074150   7.3903432  69.0323639  32.6872063   6.7492557  68.4315338
  32.0649605   8.1284075  68.4731598  53.7384033  60.9240837  60.4478188
  54.2774467  60.9844131  59.6591339  54.2228661  61.4203033  61.1075821
  71.7237854  62.6827850  68.2028732  71.2094421  61.9044380  68.4170074
  71.4653702  63.3289146  68.8601151  15.5334282  37.6585579  71.0655746
  16.2001152  38.3251152  70.8998566  15.8592787  36.8775063  70.6183472
  11.0296774  60.7533684  68.0415344  10.1991482  60.3433495  68.2830658
  11.3167219  61.2001915  68.8378906  42.0484428  49.7841721  58.1235275
  41.1515579  49.4610023  58.0375671  42.5754471  48.9960136  58.2550812
  13.7755318  34.9703636  81.5130081  14.4440994  35.5115089  81.0930023
  13.5800610  34.2889709  80.8697891  71.2341385   0.8774217  65.1455383
  72.1086655   1.1835752  64.9053040  71.3881226   0.2244625  65.8283005
  48.0393639  35.9185524  16.7123966  48.1926727  34.9862823  16.8660202
  47.1662598  36.0798264  17.0700436   8.9433403  37.7147865  62.1424675
   9.8038378  37.8529205  61.7466202   8.6657457  36.8576927  61.8191071
  50.0323296  44.3758698  10.4167051  49.1633759  43.9771690  10.4635201
  50.6379204  43.6466637  10.5499411  74.0759888  12.7528915  48.1330338
  73.8822250  11.8815174  47.7875023  74.3078384  13.2702627  47.3617973
  28.2548351  10.8725519  72.8008957  28.5707054  10.5571604  73.6476440
  28.4431934  11.8109980  72.8094177  16.7649059   5.7843404  61.1337929
  17.1253929   5.1856079  60.4797287  15.9304972   5.3890572  61.3862724
  32.2425270  19.8075485  14.3990784  32.6209831  18.9302597  14.3410559
  32.6296272  20.2844257  13.6649303   0.7295689  46.8494301  26.8041897
   1.5312256  46.3319931  26.7277851   0.0486091  46.2934074  26.4255524
  20.3084488  62.5741844   6.0695658  19.5085697  62.3877563   5.5779676
  20.2036285  63.4791527   6.3632889  73.2179031  11.9745131  79.5722809
  72.2736282  12.1309977  79.5632401  73.6056290  12.8427696  79.4625931
  78.5756073  44.9227180  74.9667511  78.9947433  44.4064255  74.2782822
  78.9395294  45.8018265  74.8620529  67.3414993  14.8018665  22.4859047
  67.5889130  15.5076742  23.0832748  66.5052490  15.0838909  22.1152611
  59.6927528   9.0062943  79.9412918  58.9010468   8.5111437  79.7309189
  59.4946938   9.4314756  80.7756882  25.5676289  21.8090286  76.9624863
  24.9228535  21.1828918  77.2918015  26.1328068  21.9883881  77.7139053
  33.7296143  56.4426117  72.4884186  33.2775650  56.1807632  73.2904892
  34.6545753  56.2753792  72.6692963  55.4705734  66.9637680  76.1523895
  56.1209564  67.5620651  76.5201950  54.6280060  67.3600464  76.3743668
  46.8273582  68.1038513  79.1011887  47.2250443  68.7562408  79.6777878
  45.8861885  68.2629929  79.1726532  72.2494583  10.9638557  55.6673508
  73.0570602  10.4515905  55.6274109  72.0162735  10.9714041  56.5956802
  38.9028091  36.7243652  52.2135773  38.1970062  37.2966270  51.9125938
  39.7025070  37.2248116  52.0514946  19.3519096  25.9168167  16.1793385
  20.1152306  25.3466835  16.0870228  18.7872810  25.4618130  16.8041553
  76.4101562  65.5869141  75.6220474  75.9051132  66.3996124  75.5960464
  77.2623749  65.8226929  75.2554932  20.6120796  62.4400826  82.4297180
  20.9711151  63.3166275  82.2918930  20.8256302  61.9648056  81.6267624
  45.5803528  60.3892326  59.0009499  46.1842842  60.8675880  58.4329033
  45.4680405  60.9570618  59.7633057   2.8783734   4.4115610  31.1095448
   3.4075842   3.6198454  31.2062626   3.5110257   5.0982828  30.8988419
  46.9155464  59.1969528  11.4412022  46.4782372  58.3455200  11.4487104
  46.8095818  59.5127296  10.5438232  44.4442940  28.3835087  81.4453659
  44.9480476  27.6764717  81.8485641  43.8070984  27.9362030  80.8884735
  81.3702621  55.6312027  40.0677910  81.0377502  55.5670547  39.1724968
  82.0546799  54.9638748  40.1174850  61.0716324  39.5275917  30.0879326
  61.8091087  40.0006332  29.7024593  60.4515572  40.2128372  30.3372917
  84.6867981  57.3558846  46.6333084  85.6084137  57.6138878  46.6502419
  84.6541672  56.5500107  47.1488037  29.8633480  67.6938858  11.5082102
  29.5019093  68.3074341  10.8685665  30.7820740  67.5992889  11.2567596
  74.3463593  33.8246651  45.7379189  74.5441818  33.0273933  45.2465401
  75.0208817  33.8616219  46.4160728  40.1399422  38.7074852  59.0406761
  40.6184273  37.9288521  59.3253098  39.9575691  38.5511436  58.1141090
  80.0714493   1.0801066  29.2370129  80.6372452   1.3066040  29.9751225
  79.1823578   1.1822882  29.5765800  45.4973679  69.7486725  29.4923477
  46.4153290  69.6631775  29.7497749  45.0113297  69.3054886  30.1877537
  37.2344704  59.1827164  35.7920456  36.6562195  58.7384720  36.4121323
  37.9635735  59.4964714  36.3270187   9.8882360  39.1434441  80.2119522
   9.0812569  38.8230438  80.6148911  10.5773087  38.9017372  80.8308105
  16.1462231  23.2556477  10.2526798  16.4417725  23.1487598  11.1568127
  16.6321163  22.5928535   9.7619209   7.3802710  63.5578423  76.2976227
   7.5770750  63.2852745  75.4014053   6.6648169  62.9836884  76.5709457
  75.0095978  36.9404602  77.0954819  74.6848450  36.6042175  77.9307709
  75.2899246  36.1607895  76.6161499  12.2507248  40.1775627  63.0806580
  13.1272879  39.8364639  62.9031219  11.8528872  39.5264931  63.6586418
  19.7602997  71.2884445   1.0541830  18.9465504  71.7494736   0.8504780
  20.1373272  71.0790710   0.1996404  80.9512558  51.9546623  67.3845596
  81.1182709  51.1178741  66.9508286  80.2570267  52.3595734  66.8646240
  24.0332947  47.3911667  64.8935165  23.9003677  47.5446968  65.8289261
  24.8298588  47.8778572  64.6817398   2.2573175  54.9935074  67.5097809
   2.3024604  54.1566010  67.9721451   2.3121970  54.7586479  66.5834656
  62.0481911  32.9267120  16.1669598  61.0969467  32.8607140  16.2506504
  62.3500481  32.0186844  16.1424427  38.9691277   8.8871603  13.3572731
  39.7021942   9.1241341  12.7892151  39.3490448   8.2906036  14.0022669
  75.7631760  64.5368347  50.5290298  76.2692795  63.7386932  50.3771706
  76.3634644  65.2475739  50.3037796  25.2189827  58.7772675  50.6765556
  25.9668941  58.3462868  50.2628937  25.1487503  59.6192017  50.2266159
   3.1994069  44.6698189  13.3058844   2.7829020  44.9014473  14.1360073
   3.3591559  43.7284012  13.3725443  58.4579391  10.8822813  32.2599983
  57.6937218  11.4016600  32.0100975  58.7124138  10.4286671  31.4564381
  25.1865463  25.5644417   1.4679822  25.2244072  24.6196938   1.6171504
  24.9293652  25.6518822   0.5501349   4.5791583  19.5449276   4.5276504
   5.3570075  19.6793537   3.9862518   4.8593626  18.9231663   5.1993127
  82.9724274  25.7194691  56.0833893  82.2271576  25.1297512  55.9692116
  83.3197479  25.8403988  55.1996574  52.8084412  10.3554935  71.2756348
  53.1303139   9.8691416  70.5166321  53.5921516  10.5348310  71.7951279
  37.0099525  56.6818657  80.1094513  37.6772003  56.9364777  79.4721222
  36.2015228  57.0739975  79.7794418  82.9683685  43.4358368  42.9240265
  83.5292511  43.9627342  43.4932518  83.2104645  43.7014427  42.0368576
  69.7399826  60.6526985  13.0478849  69.3476410  59.7798538  13.0688105
  69.7439041  60.9355202  13.9623404  80.0117416  25.2952595  45.8069572
  80.6358109  25.9955006  45.6160965  80.3339081  24.9017620  46.6178818
  72.0766449  51.7222939  50.6007118  71.5662079  50.9177399  50.5091553
  71.4522476  52.4242516  50.4173470  16.5942287  19.9432430  86.9844360
  17.0974789  20.7476540  87.1105118  16.3564072  19.6682434  87.8699036
   2.7420959  34.2648544  84.6216507   3.2649183  35.0150337  84.9047089
   2.4704285  33.8413315  85.4359360  73.3421326  65.6097107  42.8846283
  72.6747971  64.9943695  42.5808907  73.4379654  65.4178772  43.8174973
  22.5468655  38.3895874   4.5173259  23.3223095  38.0091972   4.9299078
  21.8420067  37.7741928   4.7190490  10.4113264  69.2455673  24.5388203
  10.7119808  70.1539459  24.5124073   9.5046701  69.2844162  24.2343578
  78.0881958   7.6248989  46.4106560  77.5532455   7.4322810  45.6406174
  78.5474243   6.8053870  46.5943451  84.9371872  61.4260979  70.5638428
  84.3825760  62.1606789  70.8265762  84.4281921  60.9692116  69.8942032
  71.8892136  55.0927048  80.6931381  71.4970322  55.9522476  80.5394821
  71.1907501  54.4708176  80.4891052   7.3689981  17.2474709  54.1413345
   7.8442650  18.0037804  53.7973175   7.2764025  16.6610088  53.3905220
  16.7733402  48.8697815  37.8221474  16.8549938  47.9555397  38.0936737
  16.7493439  49.3621025  38.6426811  27.8215218  67.7685547  85.0101166
  27.6072006  67.3768463  85.8567963  27.2289314  67.3412628  84.3916550
  61.9813156  29.4435635  73.2469788  61.6500397  30.3324642  73.1191406
  62.0708160  29.0916348  72.3613281  26.9425488   8.5735512  67.7689514
  26.2982864   8.8604488  67.1217728  26.8133049   9.1620369  68.5127335
   0.4822038  48.0889053  43.0783424   0.7827067  47.8925400  42.1910019
   0.7017613  47.3065147  43.5842018  10.6404419  30.9405975   6.2257872
  10.6967373  30.2975197   5.5190229   9.7210779  30.9243164   6.4917512
  20.3267403  53.2933540  55.8301430  19.4401989  53.6342506  55.9487495
  20.2800007  52.3901787  56.1437073  11.3392315  66.5199127  71.4572296
  11.7995872  66.5646744  70.6191940  11.6035423  67.3158951  71.9185028
  60.9365578  57.7557220  51.2696075  60.5952950  58.6438332  51.1646004
  60.8045273  57.3457718  50.4147758   4.6423669  68.4791107  61.6720009
   4.2875266  68.7542419  62.5173569   5.2297897  67.7535553  61.8835144
  17.0653992  53.0567627  20.1338272  16.3890705  53.2866402  19.4966717
  16.7959480  53.4985886  20.9390697  42.0655861  46.2809258  15.3039484
  42.0323448  45.6707458  14.5671930  41.1701775  46.2973900  15.6418896
  72.3368530  49.1847305  85.7858276  72.6377563  49.9860039  86.2143707
  72.8560333  48.4884529  86.1881714  46.1246338   5.0252237  71.0986328
  47.0411224   4.9077768  71.3485947  45.7864685   5.6671686  71.7229614
  29.8235493   4.3879552   0.8694174  29.0450020   4.2821302   0.3227017
  29.6447697   5.1697164   1.3920255   4.3468914  14.2209368  45.2741737
   4.0794406  13.6529560  45.9967384   4.4625211  15.0818033  45.6763802
  56.3198814  65.0359116  33.7670364  55.7915726  65.8340836  33.7730446
  57.0420723  65.2311935  33.1699295  77.2820740  38.3673935  18.0819378
  77.0594025  37.8331375  18.8443146  76.7238541  39.1410103  18.1603069
  65.3394547  25.6972733   9.1089611  66.1224060  25.8010406   9.6497478
  65.6754379  25.5907001   8.2190256  71.6949921  48.0400505  23.2599812
  71.2579956  47.2619171  22.9138985  71.1573181  48.7715607  22.9566154
  35.2956619  19.5445194  10.3526869  34.9332237  20.2478333   9.8139648
  34.7785530  19.5687809  11.1578217  78.4000168  12.1176910  72.1292648
  79.0998077  12.3979044  72.7191849  77.8175201  11.5946617  72.6800613
  66.0845947  28.5244999   2.4990275  66.5838928  29.0577812   1.8805249
  65.1733932  28.6309452   2.2258892  35.4896431  57.5521736  14.4786921
  34.6451874  57.4331665  14.0439882  35.7454033  56.6707458  14.7505493
   3.4073937  59.5197182  16.9758129   4.1910973  59.9416618  17.3279533
   3.4527965  59.6788635  16.0330276  71.2612915  11.7648449  31.6393642
  71.5165787  12.6742249  31.7945709  71.8705673  11.4561548  30.9687481
  65.6619186  70.0595016  36.9350853  65.7892914  69.4138718  36.2399750
  64.8158722  69.8323364  37.3208656   1.1120656  31.1595669  15.5409775
   1.3593425  31.9404526  16.0362606   0.9424457  30.4957371  16.2094002
  49.3541107  57.7730255  80.9145279  49.8867149  57.8356781  80.1216583
  48.4508095  57.7945023  80.5985870  25.3432007   5.4366546  60.9130859
  25.8983784   5.6011891  61.6752777  25.5284920   4.5286798  60.6733360
  63.4045334  34.7896729  20.3433323  62.5586510  34.7314911  19.8991184
  63.3511925  34.1417465  21.0458794   7.1287584  64.0258255  10.2768164
   6.6376362  63.4172173   9.7248850   7.5160856  63.4738579  10.9561863
  84.5856018  58.6487198  49.9147415  83.7940598  59.1755829  50.0247841
  84.4680710  57.9117889  50.5141983  71.1007156  21.3309422  33.7978096
  71.5540695  22.0536003  34.2319298  71.8023224  20.7998505  33.4210892
  66.0364609  67.6935120  11.2814932  65.6833191  66.8790283  10.9235344
  65.4154968  67.9435272  11.9656954   1.5593566  53.7153206  65.2564468
   2.0454953  53.7020226  64.4319992   0.6677507  53.9561462  65.0049057
  31.3775902  21.1553936   4.2590303  30.5460987  21.6266861   4.2067175
  31.1423626  20.2915115   4.5975676  10.0401306  51.5177040  88.1660919
  10.6690636  50.8028145  88.0680695  10.5759096  52.3108635  88.1580048
  57.3185844   7.8914413  39.7066307  56.4760361   7.5974288  39.3603668
  57.6022072   7.1809149  40.2819061  42.0551491  60.6594887  46.1094627
  42.5522423  59.9346390  46.4885712  41.6102066  61.0609970  46.8558197
  28.1685333  44.7337379  27.1385231  28.8608150  45.1877632  27.6189804
  28.5103455  43.8498039  27.0041428   8.1299572  69.2658157  62.6404610
   8.9082460  69.4456100  63.1678810   7.8394666  70.1272430  62.3407936
  71.7068329  21.7760773  21.8337860  70.8913879  22.2773170  21.8279114
  71.6447449  21.2268391  22.6152687  84.1797104  17.2640209  20.4499588
  83.9568100  18.1930332  20.5089741  85.1203079  17.2318363  20.6245289
  11.9528027   3.9891005  47.2140846  11.8139973   3.3995786  47.9553223
  11.5929747   4.8273463  47.5040855   5.5773749  24.5944481  80.7567139
   5.8330402  24.0373077  81.4918747   6.2745452  25.2476482  80.6974335
  45.5994339  52.5569191  57.8422050  44.6444244  52.4972000  57.8171654
  45.8995132  51.8204460  57.3094826  80.8534470  59.9196358  63.6979828
  80.3334351  59.1305733  63.5456581  80.9944611  60.2858009  62.8249016
  58.1925926  31.1319427  21.1507168  57.6076241  31.0989056  20.3937798
  58.2852974  30.2186279  21.4218140  40.0127792   9.7557602  10.8156567
  39.5826950  10.5701962  11.0763330  40.9229889   9.8670549  11.0901880
  43.4177361  52.9683762  32.5610886  44.1419144  52.3792953  32.7727089
  42.6869545  52.6494293  33.0906792  74.3156052  12.8057861  88.2811203
  73.7003326  13.0934420  87.6066360  73.8697052  12.0804090  88.7184219
   5.9704385  62.1087227  12.5665388   5.8364968  61.5848389  13.3563700
   6.8716445  61.9207230  12.3044024  70.6870117  46.8685303  56.4888115
  71.0659637  45.9901199  56.5208015  69.7667465  46.7409058  56.7191238
  51.4312057  50.9635162  37.8040314  51.4236641  51.9131584  37.6842041
  51.4416428  50.8419762  38.7534256  50.5900955  58.4794579  51.2688637
  50.8495674  58.2333488  52.1567459  51.1718178  59.2048836  51.0417290
  59.6671982  38.1312828  71.7800751  59.7019196  39.0441704  72.0658417
  60.5844994  37.8657799  71.7145157  49.4921494   8.6768694  14.7284746
  49.0434341   9.0581369  15.4831419  48.9139366   8.8605385  13.9880934
  54.1653786  56.2001915  65.8099213  54.7772369  55.5287590  66.1116409
  54.1880569  56.1333466  64.8553238  43.7752876  12.0810900  14.9729347
  44.1686897  12.2500782  15.8290358  43.1728401  11.3531094  15.1256790
  45.5682335  69.6785202  62.9708443  44.8160820  69.1175919  62.7814980
  46.1455536  69.5681305  62.2153664  18.3775482  47.8356628  48.2827911
  18.7549229  47.1139336  47.7798729  18.1284409  48.4828339  47.6229858
  83.5006256   0.0864677  47.0827675  83.2991486   0.4297946  47.9532623
  83.9810104   0.7933732  46.6517754  34.8577766  60.4638634  50.9204903
  34.0546761  60.3119659  51.4186707  35.5537109  60.4485054  51.5775032
  26.2748623  24.7988396  63.2959518  25.9101715  25.6782742  63.1968269
  26.8544044  24.8640289  64.0549698  31.4141693   0.4809251  52.4207535
  32.0834923  -0.0799168  52.8127899  31.1992607   0.0536442  51.5916100
  77.0063858  30.2794437  28.8397942  76.2599945  30.7815208  28.5126190
  76.6758652  29.8431854  29.6250763  44.2614441   3.0559633  26.7088051
  44.2889137   3.4314682  27.5888481  44.9567184   2.3980711  26.7073078
  55.4086761  68.2289886  50.8621941  55.0010605  67.5540390  50.3194962
  55.0320702  68.0965881  51.7321739  86.4148712  16.2530842   3.7457199
  86.0161591  16.8579044   3.1200583  87.3041000  16.1204357   3.4172418
  76.1204376  38.9861259  69.1026459  75.8299026  38.5092163  69.8800659
  75.8200378  38.4516258  68.3675919  86.1124344   4.1675897  43.6481743
  86.7180176   4.8950839  43.5058517  85.4928207   4.2259603  42.9209213
  56.9819527  43.4604492  36.1722679  56.5756798  43.1290474  36.9731064
  57.2830162  44.3394318  36.4024620  72.1239319  63.4100647  31.7153225
  72.9183884  63.8809433  31.9670048  71.4351273  63.7961464  32.2563591
  19.6092358  43.4354973  66.2923965  19.3907585  42.6350403  65.8151398
  20.5341835  43.5858307  66.0971985  58.3207054   2.8444138  76.6180267
  58.0342789   2.0295131  77.0304947  57.6133499   3.4643300  76.7957535
   6.6764226   4.2586231  24.5808125   6.4706469   5.1053677  24.9769325
   7.5427752   4.3801360  24.1923542  18.7690659  47.9108429  81.7405090
  19.6064796  47.9085236  82.2041473  18.5084839  46.9902344  81.7120743
  14.0157614   8.7890177  72.6290283  14.5008869   9.4094429  73.1730499
  14.0004292   9.1924839  71.7611542  15.0326614  63.3117828  55.0410156
  14.2333488  63.2429008  55.5631142  15.1073570  64.2445068  54.8393135
  50.9051170   4.2778978  63.1321716  50.6423531   3.6920297  63.8420601
  50.3479271   5.0488143  63.2392044  15.9018955  47.7451820  78.2827301
  16.7394390  48.0923691  78.5896759  15.6450243  48.3327713  77.5721054
  16.2141743  41.4211349  79.9913635  15.6641808  41.2596970  79.2247620
  16.7839031  40.6537056  80.0432816  63.9898453   0.5336456  28.9972153
  63.3093338  -0.0544565  28.6696873  64.7952347   0.2210678  28.5850677
   1.6354587  13.4782276  78.1351547   2.4089937  13.0213070  77.8048553
   1.4444674  13.0524874  78.9709167  63.9372787  13.1105614  13.0204744
  64.1325989  13.4832258  13.8802433  64.7943573  12.8967295  12.6517963
  48.5356827  50.8176575  51.2250671  47.7257805  51.2522011  50.9577332
  48.4442024  49.9211121  50.9024696  18.7365494  37.2350273  66.9644165
  19.1410370  36.3799706  67.1110535  18.9502163  37.4484634  66.0561142
  26.4453506  62.1830750   0.8903749  26.3892002  63.1322365   1.0006905
  25.6852703  61.8418045   1.3615898  73.8458557  20.4217625  81.7742920
  74.5908661  19.8846970  81.5045547  74.1516647  20.8795929  82.5573044
  11.1998730  48.7470512  61.2589417  10.5724831  48.0290031  61.3427238
  11.6013451  48.8166122  62.1250916  39.3971901  27.1833363  87.0628662
  38.5510864  27.3586426  86.6510315  39.2751045  26.3485374  87.5150146
  48.4181175  67.9138718  45.5748138  48.8463745  67.1831589  46.0207825
  48.8803787  67.9890442  44.7400093  65.6161728  66.6672516  84.0834427
  66.1731033  67.4449005  84.0471039  64.7604370  66.9711456  83.7807846
  12.9026699   3.0648463  68.8635406  13.8492537   3.2066913  68.8539734
  12.6221895   3.3783283  69.7233658  62.6301346  59.1990166  46.3020668
  62.5495949  58.4648590  45.6931648  62.3113403  59.9550819  45.8091545
  83.0157089  60.4029617  56.7564545  82.5696335  59.9123154  56.0661507
  83.2486038  61.2357979  56.3461189  78.4334793   1.6035898   5.2130871
  79.0941849   1.4658550   5.8918567  78.5015411   2.5337856   4.9978309
  25.0323696  65.2704010  35.0459099  25.5096359  64.7069473  34.4368401
  24.7452183  64.6805725  35.7429619  25.8142357  70.8618011  78.9511032
  25.4424458  69.9816132  78.8938675  25.4029675  71.3426971  78.2328873
  53.1276665  38.8828506  37.6628075  52.9483795  37.9668770  37.8751259
  52.3702278  39.3599625  38.0017548  48.9140434  10.6724768  59.2562561
  49.2128143  11.5039253  58.8879318  47.9594116  10.7423019  59.2619667
  56.6807404  69.1152039  16.5297451  55.9035606  68.7935257  16.9866333
  56.3714409  69.3228302  15.6480103  56.8873978  41.2261353  53.4464836
  56.9604530  40.5319023  52.7915497  57.5750198  41.8495331  53.2124329
  14.0586500  39.5534744  54.1353302  13.6463337  40.3058815  53.7109337
  13.9733067  38.8432503  53.4993019  36.4308014  68.6794968  78.0150452
  37.3299217  68.5118179  78.2973480  36.0351524  69.1550293  78.7454910
   1.6515729  37.9995804  48.8106613   1.5571920  38.0725708  49.7603951
   1.5008155  37.0726357  48.6255226  41.7381058  44.3961105  28.8851833
  41.5482674  45.3342590  28.8769360  40.9403572  43.9873543  28.5494099
  62.9226303  30.7523308  47.0704803  62.9356155  31.7072144  47.0051956
  62.0063515  30.5149517  46.9279251  59.0985641  45.7650795  70.9057693
  58.5668526  45.0358734  70.5867538  59.9729652  45.3924294  71.0188370
  63.0148239  61.9000130  67.6044083  63.3785896  62.0934944  66.7404175
  63.6566200  62.2550125  68.2194748  65.6923218  37.9014473  56.1167641
  65.1700439  37.1283035  56.3305588  65.9523697  37.7701759  55.2049675
  43.2876968  49.1537399   3.1689749  43.4199562  49.0862770   2.2233598
  42.6060410  49.8182983   3.2686689  54.4658775   5.8081670  19.8243237
  53.6022606   5.4966364  19.5534916  54.9616966   5.0101852  20.0076790
  12.1504850  52.5123291  29.9893742  11.4183331  52.2921066  30.5652981
  12.6631517  53.1495628  30.4867020  31.1642990  42.7553291  60.5599365
  31.5659046  43.4255219  61.1129189  30.2342014  42.7856789  60.7840576
  72.3492050  38.9215775   4.9508963  72.5877686  38.6847191   4.0546718
  72.6747208  38.1969109   5.4848690  47.0816689  52.1159134  62.4845390
  46.2708435  52.4523315  62.1029472  46.9969788  51.1642456  62.4262886
  61.3835068  32.3890038  12.4784298  60.9907722  32.8808098  13.1996231
  61.1328926  31.4801273  12.6438599  37.8956680  15.8653336  -0.1534902
  37.5547829  15.8859863   0.7407152  38.8385620  15.7390299  -0.0475129
   2.8506131  42.6095390  63.1600151   2.9878986  42.9414482  64.0472717
   3.5185745  41.9325676  63.0515137  12.4948053  62.4222450  31.0046921
  11.8783817  62.7209244  30.3360806  11.9981985  61.7884483  31.5223007
  35.0823593  24.2823982   3.0957513  35.4306526  23.8362141   2.3238423
  34.6620865  25.0691204   2.7483773  58.7004662  65.6144257   0.5704886
  58.1766090  65.0556335  -0.0035838  59.6028748  65.3325043   0.4207877
   0.6752820  24.2375546  21.6317978   0.5648866  25.0253353  22.1641960
  -0.0201410  24.2920628  20.9763241  53.6246338  68.1138535  36.5050850
  54.0006065  67.6833496  35.7372704  54.3805389  68.3399811  37.0470314
  57.7931519  14.6858282  64.5114441  57.1499557  15.1261024  65.0670395
  57.6809692  15.0881100  63.6501541   0.0089380  20.3447800  45.3946495
   0.9380535  20.2012005  45.2147598  -0.4363419  20.0599041  44.5966492
  78.7114563  71.4467087  87.1300812  77.7567139  71.4917145  87.1817245
  78.9774780  71.0461502  87.9577408  39.8399124  27.0358124  19.2822952
  39.7750854  26.6885223  20.1719131  39.2309036  26.5021343  18.7718735
  15.5562897  70.0649261  76.1854935  14.8704548  70.6976776  76.3987732
  15.5263624  69.9917068  75.2315674  73.3854065  65.8146591  34.8447495
  74.1370392  66.3522644  35.0942726  73.3100891  65.9329987  33.8978806
  81.8672943  52.7261047  26.1251545  82.0632095  52.1733131  26.8816395
  81.4830170  52.1277847  25.4843941  40.1179314  50.6031494  23.4771843
  40.0662422  50.0198708  24.2343788  40.8297729  51.2072411  23.6883469
  58.6269875   9.8054075  65.5479965  58.9153633   9.0388432  65.0525665
  58.9122276   9.6319933  66.4450989  14.9688282  63.4112167  30.2120228
  15.6965466  63.2536545  30.8135452  14.2071228  63.0363731  30.6542072
  52.0645790  28.5565548  67.4865723  51.3122253  28.0191689  67.2387543
  52.5535736  28.6741467  66.6721420  70.4309921  35.8951912  68.7797699
  70.4586716  36.1772346  69.6940536  70.5704575  34.9489250  68.8166962
  82.6522980  38.0584373  29.9022026  82.0755920  38.3972664  29.2174873
  82.9999695  38.8403473  30.3311310  24.2638512   9.4863863  66.5389786
  23.8904896   8.6147642  66.4081726  24.3741837   9.8349066  65.6543350
  26.5754509  22.8697548   1.4436163  26.8193188  22.1015835   1.9600220
  25.6808910  22.6898193   1.1544507  82.4261932   2.9393504  74.4146805
  82.9684601   2.1860759  74.6486664  81.5461884   2.5776370  74.3098450
  71.3654099  61.7922096  59.6479759  70.5513229  62.0429916  59.2113953
  71.5841370  62.5447922  60.1975288  80.9822006  15.1745157  12.5238571
  81.2587128  15.4477100  11.6491356  81.7171326  15.4076519  13.0910902
  57.3326683  58.7389145  75.5929108  58.2550621  58.6306763  75.3611679
  56.8593636  58.2258072  74.9379807  16.1231194  17.1842041   0.1161372
  17.0021896  17.1361027  -0.2595668  16.0199928  18.1020203   0.3675519
  50.0645332  32.4708138  22.1367245  50.9629555  32.6388969  22.4210072
  49.7519417  33.3173866  21.8176117  79.3144455   8.1392374  76.7236176
  79.8948898   8.8895302  76.5956573  79.9028549   7.4146175  76.9355850
  33.7877541  44.3283844  77.0093460  34.6383400  44.0955849  77.3815536
  33.1639175  44.1647072  77.7166443  67.4174271  56.8205109   1.4040642
  67.5527802  56.9742584   0.4690395  66.5391541  56.4440575   1.4602128
   7.1511860  41.2541008  11.1866827   6.4530015  40.7101135  10.8221951
   6.7875824  41.5945435  12.0040703  58.6106987  52.8430862  79.6774826
  59.4775543  52.6864929  80.0520096  58.6285629  52.3899345  78.8345337
  70.7258835  59.0423203  60.0892677  70.8589935  59.1256256  61.0335007
  70.6322632  59.9433861  59.7801666  43.6666451  52.0312996  35.5305786
  42.8613625  51.6771965  35.9078865  43.9614105  51.3566322  34.9188881
  70.8100281  71.7198029  17.9974785  70.7320709  70.7789612  18.1554871
  69.9702759  71.9681549  17.6109962  19.4456787  57.5415459  45.0212860
  18.7273235  58.1627312  44.9015884  19.3356380  56.9085045  44.3117905
  82.4207230   7.0415668  35.3569450  82.9716187   7.8125839  35.2217445
  81.5545120   7.3092976  35.0499649  58.2800827  14.6430120  32.7798729
  58.7588539  14.0113802  33.3165741  57.5126610  14.8703585  33.3048592
  30.6119251  43.9084435  24.5172710  31.1786232  43.7388878  25.2698250
  31.0155602  44.6565590  24.0772324  52.8883018  49.3909836  85.3318863
  53.0452271  49.1767235  86.2515030  53.7499046  49.6322212  84.9917679
  68.0713501  55.0159569  11.7509851  68.0353699  55.6002121  10.9936314
  68.9301682  54.5976677  11.6902161  45.8778152  36.1287079  35.6772652
  46.4059792  35.3982735  35.3551750  44.9966850  35.7657547  35.7672768
  70.8352509   1.7711865  49.0782890  70.9590454   2.2711823  48.2714996
  71.2684784   0.9343303  48.9102974   2.2238252  22.2221756  10.2503099
   2.8557634  22.7498646   9.7620163   1.5435992  22.0106869   9.6109381
  38.6707535   2.3541429   0.7174215  38.2458878   2.3489273   1.5751464
  39.2517204   3.1144588   0.7425327  19.4334564  34.4676819  83.9668884
  20.2089710  35.0253067  84.0290298  18.9393082  34.8259430  83.2295303
  59.9152298  47.6587563  87.8167572  60.8423767  47.4487495  87.9286728
  59.5960236  47.0080032  87.1915741  41.5064316  50.4659958  84.3133240
  42.2606010  51.0505180  84.2372131  41.3951492  50.1029510  83.4346619
  75.9468842  16.8336334  35.1270523  76.0281754  17.5198383  34.4646759
  76.6805115  16.9872818  35.7223778  17.1343994  50.5896149  21.1061649
  16.3018360  50.1438179  21.2621593  16.9173717  51.2965240  20.4983749
  10.6243429  63.6871414  49.3021889  11.3268414  63.7006111  48.6521530
  11.0719175  63.5407448  50.1355400  56.6960258  13.2056532  56.1591797
  57.3999023  12.6799364  55.7791595  56.9863663  14.1109400  56.0478668
   6.5363169  22.6319714  22.0902863   7.0452824  23.1541100  21.4701595
   5.9934211  23.2707729  22.5522690   3.9594705  24.3449364  20.8957481
   3.6685693  23.4773083  20.6149807   3.2115183  24.9163094  20.7215881
  20.3836651  59.8108978   4.3351135  20.7057877  59.3952637   3.5352910
  20.9005299  59.4139481   5.0361943   5.6259832  26.7914639   3.4077969
   5.5951829  27.5120125   2.7784364   5.0040054  26.1487846   3.0667143
  63.8080063  56.2206459   5.1255255  63.0253410  56.6854782   4.8295550
  63.5956497  55.2947807   5.0075870  68.0156021  35.7457237  33.0485497
  67.1925888  35.8642197  32.5743752  68.0798645  36.5160980  33.6130142
  19.9768982  17.9919796  13.3340464  19.8775253  18.7795296  12.7991428
  20.7514286  17.5566921  12.9778738  62.8724289  42.4079170  25.0498600
  63.2135277  41.7577782  24.4356880  63.4914360  42.3956909  25.7798691
  60.1084785  46.6718636  12.1718693  59.3633881  47.2605858  12.0515251
  60.2260284  46.2565689  11.3175011  52.8951721  30.5418549  52.7564850
  52.6258850  30.5894203  53.6737938  53.3508492  29.7032185  52.6838150
  55.0124779  47.0122032  42.7456589  54.4625206  46.5355492  42.1239090
  54.5982208  46.8625984  43.5955086  46.1175842  54.2694626  85.3245087
  46.7997360  53.7707329  85.7741394  46.4223022  54.3296700  84.4191055
  14.6927080  13.4744778  29.0811844  13.8361549  13.3318462  28.6784382
  15.1364202  12.6296768  29.0059338  66.8654251  37.4787750  44.1262894
  66.2945480  38.2427444  44.0445023  67.3590775  37.4597931  43.3064232
  22.6991329   0.3481861  52.3100395  23.6208534   0.0939660  52.3551598
  22.4377975   0.1431619  51.4123192  85.6530991  19.2172718  63.5057869
  85.1546326  18.8354053  62.7833328  84.9893036  19.6046047  64.0763855
  86.4784470   0.3846121  11.8726730  87.1604996  -0.0416170  12.3916731
  86.1986313  -0.2851141  11.2486534  75.5423355  57.1615639  24.0660534
  75.2530823  57.8272667  23.4420338  76.4505157  56.9830132  23.8219948
  61.4618340   1.6633077  27.4850216  60.7573318   2.0891964  27.9734154
  61.9981537   2.3860211  27.1590176  45.7903099  20.7431316  75.8808060
  46.3569183  20.6124439  76.6411438  45.0037575  20.2345257  76.0780106
  59.5893669  40.3869743  37.4671860  60.4880867  40.2048531  37.1926613
  59.0538177  40.1389542  36.7135925  52.2970886   5.8000813  74.8359680
  51.5539017   5.2538657  75.0920029  51.9358711   6.4095788  74.1923294
  46.9500237  13.9724493  72.8550568  47.4891434  13.6197596  73.5630112
  46.6827850  14.8375072  73.1656876  52.4968414  69.6686935  61.1628036
  51.9556084  70.3408279  60.7486382  52.7157516  69.0659714  60.4521408
  56.7388954  47.9200096  68.1096497  56.5322189  48.0459480  67.1835556
  56.8834839  46.9778137  68.1968079  60.4568062  48.5929451  67.4981689
  60.6032600  47.6905594  67.7818680  60.6522141  49.1218910  68.2716370
  47.8186264  28.2348595  78.3693619  47.8510513  27.9747601  79.2899780
  48.1814423  29.1205578  78.3577881  51.8143539  64.2306747  25.8619652
  51.6328011  63.7279930  25.0678730  52.5742188  63.7976990  26.2510300
  44.4685707  57.6330910  39.9692421  43.5635948  57.9234619  40.0829697
  44.6747589  57.8429070  39.0583687  55.1759720  67.9977341  25.6974392
  54.5237427  68.6898270  25.5886765  54.8242416  67.2573242  25.2031555
  45.5265007  35.8485832  17.6461086  45.0451698  36.2062416  16.9000282
  44.9601173  36.0164642  18.3992729  68.9117432  68.0013885  39.2757683
  68.6702118  67.7104721  38.3964119  69.5155106  68.7296448  39.1297226
  49.0644646  23.1973648  14.8355255  49.8361511  23.6808720  15.1304016
  49.1373405  22.3450050  15.2649469  42.0992775  65.8765564  77.6070404
  42.7154083  65.6179504  78.2924118  41.8850822  65.0594711  77.1567917
  20.6605949  12.5639429   9.6510153  20.7265434  11.6109877   9.5897017
  20.4190083  12.7291651  10.5623713   7.0474286  51.8257027  77.8232117
   7.2537651  51.6157799  76.9123917   7.8501124  51.6226997  78.3035507
  70.7326736  32.3163185  72.5283508  71.1295471  31.4490337  72.6092072
  69.7901230  32.1520691  72.5576019  81.8445740   6.7037902  72.5479507
  81.7039413   7.3728333  71.8779984  82.4098740   6.0570292  72.1256104
  67.9540939  29.7802258  49.4322968  67.5147476  29.4487514  48.6491432
  68.4516296  30.5380859  49.1251526  70.5192337   3.4943492  56.4435806
  70.3994980   3.4253745  57.3907547  71.3969193   3.1458983  56.2871132
  53.5069962  44.9334412  13.7290363  53.4592705  44.1258202  14.2405987
  54.1703491  45.4603577  14.1746311  73.7195358  51.4398003   5.4730396
  72.8900986  51.9168167   5.4462223  73.8894730  51.3071098   6.4056411
  42.2113762  64.5781097  19.7866650  42.7155647  64.0091400  19.2050266
  41.3015327  64.4482651  19.5191555  70.9074173  13.9838619  44.4165001
  70.9946518  14.6050549  45.1395111  70.2220688  13.3794231  44.7014236
  41.6631393   1.3991349  40.7912636  41.5190697   2.2805142  40.4468117
  42.5784798   1.3980573  41.0712318  14.1623688  32.9446373   4.1136522
  14.1922121  32.3102493   4.8298178  13.3614054  33.4448738   4.2700233
  85.8661346   9.0704527  73.7698822  85.7632370   8.2144651  73.3540268
  86.4738159   8.9140759  74.4927139  82.6990585   1.4287628  55.4266052
  83.3662949   1.9613719  55.8594437  82.1522751   2.0616424  54.9610710
  53.7135353  21.8892002  73.5513458  52.7778206  21.7386494  73.6855316
  53.7808609  22.1841412  72.6432114   9.1967163  10.4944057  29.9637642
   9.3857651  10.1731863  30.8454170   9.5197659  11.3954449  29.9627419
  67.7233353  54.4544678  40.0441437  68.3781204  54.6703682  40.7081299
  68.1659775  53.8353119  39.4636765  61.3471031  36.4742546   7.5131087
  61.5878754  36.2061806   6.6263175  61.9262810  35.9673080   8.0821352
  45.2563820  51.3100281  80.6694107  44.4674110  51.4750519  80.1531525
  45.9262619  51.0940208  80.0206985  17.8067875  61.8499832  14.2427387
  17.1506824  61.1692047  14.3920641  18.2534943  61.5802193  13.4402981
  68.8535233  63.0096779  14.9131184  68.0558472  63.4990959  15.1141424
  69.5651321  63.5902557  15.1828871   3.0389078  48.3199577  18.9517937
   3.5161724  48.2823296  19.7806683   3.7039115  48.5495186  18.3027134
  56.1551552  40.0508804   2.3277309  55.9765549  39.1170082   2.4382701
  55.4308128  40.3712845   1.7902356  72.2872925  14.3291073  31.6914215
  72.8271942  14.9503069  32.1801491  72.8214569  14.0922775  30.9332581
   6.1602139  42.6330338  33.5400467   6.7995338  43.2764473  33.8458595
   6.1812186  41.9414558  34.2014923  60.4483376  19.5101643  33.0022087
  60.6978722  19.2556438  32.1138458  59.6097260  19.0729771  33.1499748
  44.6739349  52.6987152   2.5865657  45.3757057  52.7952461   1.9428015
  45.1252861  52.4805946   3.4020026  67.8180618  64.9312592  27.2305851
  67.6758652  64.0634995  27.6087418  67.0031509  65.4034424  27.4014301
  58.4563484  65.2367020  42.6580849  58.8918839  65.7567139  43.3334541
  57.9099960  64.6202316  43.1456223  75.7648849  37.7072067   7.7791772
  76.4623413  37.5083046   8.4038525  74.9907532  37.2737923   8.1384916
  56.2354927  55.6623764  83.0453339  56.6003151  55.1523857  82.3221207
  56.1343536  56.5449791  82.6889420  59.0073395  70.0900955  42.8278732
  58.1435738  70.4363174  43.0520897  58.9085426  69.7596970  41.9349556
  14.2115574  64.3363571  18.1189003  13.2884493  64.3169098  18.3713379
  14.2655392  65.0300522  17.4615536  79.1293182  50.4605560  81.0875854
  79.2967148  49.5660591  81.3843689  78.6788177  50.8764381  81.8226471
  49.2367210  66.9596634  86.0984268  48.4433365  66.6240005  85.6811676
  49.9265823  66.8179321  85.4501724  49.6690445  35.4310493  20.5629063
  50.2747421  35.8622208  19.9600353  49.1372414  34.8646469  20.0037975
  42.7694321  44.4315605  42.2409325  42.6880341  44.4006996  43.1941643
  43.1710587  45.2818527  42.0622482  84.4731674   2.1779876  11.7090960
  85.2338867   1.6146822  11.8513279  83.7215271   1.6211947  11.9121761
  57.4707603  40.7332077  15.6387167  57.0965004  41.2561111  14.9296818
  57.9708710  41.3605804  16.1607571  70.5806732   5.5452805   8.2785892
  70.9106216   4.6999216   8.5831127  70.4567947   5.4287996   7.3366137
  53.5159225   8.0302935  58.1551437  53.7096825   7.5184431  58.9404449
  52.5618439   8.1072683  58.1487770  61.7654648  31.3397999  29.4979420
  61.3761940  30.9648781  30.2879639  62.6688385  31.5362053  29.7460785
  10.3986311  60.9350967  12.8500423  10.8223038  60.2007370  13.2943926
  10.8171463  61.7124901  13.2198248  62.5093002  59.3389931   5.3853426
  63.0766907  59.9454422   4.9094043  61.6245956  59.6738243   5.2389932
  36.3262672  51.7241631  66.6513214  36.4596138  52.3870583  65.9738083
  37.2077446  51.4159126  66.8615952  80.6499023  21.2856159  43.2856140
  81.5685806  21.5250816  43.4077721  80.2826538  22.0015869  42.7672043
  52.4866104  11.9491749  79.7397766  52.9917793  12.7328272  79.9564056
  51.6231422  12.2811890  79.4939728  85.0942001  56.8071594  69.0737076
  85.4157104  55.9347496  68.8461914  84.1846848  56.8125534  68.7754211
  26.6679325  41.7685318  77.3261795  26.7803268  41.1744385  76.5841217
  25.7249393  41.7708321  77.4904633  56.2192764  31.6907787  26.7200508
  56.4272652  31.2725716  27.5555592  56.3704300  32.6232224  26.8747559
   1.8561008  13.0715685  87.3466721   2.3137577  13.1990137  86.5156784
   2.2975619  12.3247490  87.7511520  52.2989502  40.6711006  70.5281296
  52.0714493  39.7763023  70.2755203  51.8967094  40.7865486  71.3890076
   5.6491518  46.0294151   2.4226027   5.5876336  45.1629257   2.8246517
   6.5565939  46.2970543   2.5680325  72.3568344   4.8450332  18.2465878
  73.0958099   5.2955236  17.8376789  71.8516235   4.4976382  17.5115280
  62.1608658  63.6806717  41.2296295  62.2252655  63.5931091  42.1806374
  62.7413940  64.4112930  41.0165176   7.7557120  48.1843605  82.1013794
   7.5449686  48.9050636  81.5077438   8.0601292  48.6137848  82.9008484
  50.7689667  67.9271240  56.4064293  50.4742966  67.2174606  55.8356628
  49.9926109  68.1648026  56.9133949  68.4901276  21.4648037  80.5203400
  67.5961456  21.7574158  80.6975327  68.6481476  21.7152653  79.6101074
  42.2280426  32.5006561   9.6747065  42.2886353  31.6893120   9.1704445
  42.9584923  32.4543839  10.2915783  37.0589142  57.2204742  65.9299927
  36.5923042  56.6309586  66.5224304  37.4511452  57.8771858  66.5054169
  16.9814224  44.1697273  74.3755722  16.7028408  44.4745407  75.2391205
  16.2857475  44.4570885  73.7842255  73.8673248  55.6932411  29.2712784
  74.7093277  55.2969627  29.0471802  73.4808273  55.9276886  28.4275455
  17.9926815   5.1250091  13.6443949  17.3402443   4.6566916  13.1235914
  17.4998398   5.4766588  14.3857994  27.4362583  27.6634045  89.0300446
  27.6283092  28.1651630  88.2378387  26.5252457  27.3891335  88.9248734
  48.7728004   0.9434065  37.3772964  48.7835274   0.2117891  36.7601624
  48.2243958   0.6388590  38.1002998  67.8463364  69.2644653  35.0295563
  68.6250229  69.4501953  34.5047874  67.1191635  69.6030731  34.5072556
  37.7133102  57.4657631  45.2503014  38.4642258  57.6883926  45.8005714
  37.0388947  58.0982018  45.4981270  25.7489338  12.4820776   0.2985316
  26.3970051  11.7989950   0.4706774  26.0962467  13.2580595   0.7383714
  24.2627716  19.8950043  59.1910324  23.5220623  19.8365002  58.5875778
  24.1385117  20.7298317  59.6425362   4.6302881  47.7801323  68.2916641
   4.4471288  48.6865196  68.5389328   5.5855584  47.7293091  68.2583771
  79.7197037  24.7298508  18.3321133  79.9819641  24.6082840  17.4196033
  80.1344910  24.0045757  18.7991867  25.1669388  31.9331951  12.3663464
  25.9169197  32.4001617  11.9979639  25.1455612  32.2012787  13.2849903
  53.7628860  48.1299667  72.8856506  54.5124092  48.6380043  73.1960449
  54.0691986  47.7214508  72.0760117  18.6600380  40.3649445   3.2588639
  18.3949814  40.1772728   2.3584440  17.8620052  40.6809998   3.6825221
  28.5554810  27.2344570   6.3918638  28.9745712  26.5605717   5.8566341
  27.6610374  26.9179211   6.5183854  39.5032921  51.9084320  69.5685806
  40.3050499  52.1523628  70.0310822  39.6119118  52.2752228  68.6911392
   4.3183308  43.7832413  82.3584061   4.8346877  42.9834862  82.4583969
   4.9689679  44.4749832  82.2384338  50.4087639  50.4957924  17.4241409
  49.6105232  49.9996681  17.2427464  50.3104095  51.3015862  16.9169388
  23.9166756  16.1856403  87.2460403  23.5367908  15.5102644  86.6840897
  23.9277039  16.9724159  86.7009735   3.8108399  30.9402008  27.0532951
   3.3162260  31.3892879  26.3677959   4.2948632  30.2562923  26.5904541
  33.8290100  10.5906343  35.3794212  34.6180687  10.0705214  35.2274323
  33.8041382  11.2074633  34.6478920   3.0986133  50.8105545  37.0288391
   2.7227111  51.1380730  37.8459473   3.4404635  51.5910301  36.5926933
  54.4284782  13.5680065  69.0355530  55.0706329  14.2088575  69.3408051
  54.5254059  12.8277807  69.6346359  30.2059040  39.7893028  79.0769882
  30.0619564  38.8516312  78.9493866  29.7898998  39.9833603  79.9169388
  21.3032513  22.8509426  72.1128998  22.2069073  23.0247135  72.3764191
  20.7917976  23.5342522  72.5461807  71.0084763  65.9629898  39.0358276
  70.6078949  66.4669418  39.7442093  70.2714310  65.5360184  38.5991516
   3.9498692  58.7873611  40.0492325   4.4482260  59.5300636  39.7082481
   4.0531144  58.8454819  40.9990692  21.2054539  70.1270065  29.0611343
  22.0743008  69.7987595  28.8296452  20.6478596  69.3489838  29.0619259
  29.1494923   6.9830141   1.4762452  29.1250496   7.7342305   2.0689578
  28.2919445   6.5699978   1.5775489  10.1987143  37.4095459  33.3063736
   9.2591324  37.5377846  33.1760979  10.6093073  37.9244766  32.6117592
   8.5549517   1.3499405  17.6360245   9.1703396   0.6450624  17.4343414
   9.0240993   2.1512682  17.4036331  30.0401802  62.3821373  43.2275124
  30.6695442  61.7063789  43.4794693  29.4024143  62.3935204  43.9412041
   9.8385849  40.2076950  83.0156860  10.1410112  40.6602020  83.8030930
   9.3551025  40.8740005  82.5273132  48.3381882  36.2177353  61.7136192
  49.0093079  36.4300728  61.0649719  47.6765480  35.7302246  61.2229118
  70.4314499   3.5664275  38.4422531  69.7331772   3.0902972  37.9928780
  70.3753510   4.4570336  38.0959816  21.8108578  43.0337753  73.0339355
  20.8810558  43.1979713  72.8766479  21.9401226  42.1213989  72.7749100
  85.9416122  42.7001953  30.7499275  85.6962967  42.5917931  31.6687870
  86.0067215  41.8068428  30.4124126  46.6228867  45.5950737  78.5604248
  45.7664948  45.8413620  78.2109070  47.2303200  46.2242966  78.1714096
  29.7890129   0.7694572  34.2678909  29.3049221   1.3617666  34.8432693
  30.0524006   1.3165042  33.5278931  74.3871994   8.7969036  88.1264114
  75.1926193   8.5967417  88.6033554  74.6761856   9.3147011  87.3750153
  52.2514305  27.1546307  34.7236252  51.7669106  27.6128674  34.0369720
  53.0156364  27.7073460  34.8871155  74.2855453  48.4923859  24.2447014
  73.3453598  48.4719696  24.0661945  74.6411896  47.7612648  23.7395153
  31.4510384  12.5556431  67.2126083  32.3057594  12.3661432  67.5996094
  31.4703693  12.1163216  66.3623962  54.3699913  12.6206884  11.1459427
  55.2204247  12.5706902  11.5823984  53.7979927  13.0471354  11.7840586
  31.8715668  69.0570374  63.5004082  31.1142921  68.7505035  63.9992065
  32.5493317  68.4020309  63.6672249  22.5728073   2.3326681  34.7206688
  23.4355240   1.9180739  34.7127495  22.6895008   3.1380932  34.2167778
  15.5586596  61.7032280  52.7208557  15.4022245  62.1867676  53.5319939
  15.5965757  62.3781662  52.0431786   2.3753576  13.3245344  21.5711021
   2.3061461  14.2789497  21.5480156   3.2742050  13.1563482  21.8539772
  86.2760391  31.5295906  86.4999619  86.9209595  31.2767639  85.8393631
  86.6607285  31.2484798  87.3301544  18.9460602   4.7179298  82.8833084
  19.0551853   5.6572227  83.0318069  18.7976952   4.6400838  81.9408875
  55.2629585  26.5737514  32.4160690  54.9223671  26.5096951  31.5238094
  54.9693260  27.4313526  32.7235298  81.7668915  10.0206108  41.5993500
  81.0811157   9.6140919  42.1291466  81.3161621  10.3120203  40.8067894
   5.3639750   5.5694876  50.8777084   5.1666822   4.6801782  51.1717072
   4.7663465   5.7175756  50.1448097  29.8907528  69.7203369  60.1056519
  30.6819077  69.5361176  59.5993233  30.1552734  70.4015198  60.7239189
  60.3599243  48.7248764  27.5090389  60.7851334  48.0062447  27.9770126
  60.6644936  49.5148773  27.9555435   3.2735870  55.4524918   5.5677686
   2.5963759  55.5501328   6.2371583   2.8427408  55.7080612   4.7521167
   8.6365910  60.1001587  68.9419098   8.4300241  60.5470924  69.7627640
   8.4048853  59.1853943  69.1023636  53.8817215  15.0320759  72.9620743
  54.8188019  14.9768496  72.7748260  53.7854118  14.6269217  73.8239365
  26.4766674  69.8939285  27.0385246  26.5294781  69.1231079  27.6035767
  26.4844761  70.6355057  27.6436901  18.0243130  15.9948997  66.2486496
  18.2859993  15.9773817  67.1692200  17.3785839  15.2927256  66.1697998
  40.3779030  59.7939682  23.2003498  40.5860634  59.5807037  22.2907238
  41.0636253  59.3628387  23.7103901  64.6977615  61.3253365  57.8607903
  63.9050713  61.8618584  57.8654518  64.9555130  61.2868576  56.9397507
  76.6128540  44.2687149  57.6481400  76.5805893  43.3325768  57.4510689
  75.7977905  44.6176491  57.2873764  76.5511856  15.8816786  60.2013893
  75.9088287  16.5441475  60.4558334  76.2174606  15.5288258  59.3765526
  11.4600182  69.2113571  74.7380905  11.4996738  69.8818741  75.4200516
  11.5341167  68.3830338  75.2120285  22.4363556  67.7422333  52.8483887
  22.1399498  67.0514374  52.2557869  21.9229660  67.6106186  53.6454697
  38.1427040  30.1365147  16.8436794  38.1097298  30.6609707  16.0436230
  38.8495674  30.5273609  17.3573112  40.3482895   2.7282622  29.0767403
  40.7421722   3.5936065  29.1874924  39.4686050   2.9063175  28.7440434
   7.1642232  14.9101391  22.9180508   7.8830180  14.5553980  23.4412365
   7.5764451  15.1826172  22.0982571  31.4375172  16.4387512  81.3199005
  30.4865150  16.3513470  81.3846130  31.7806873  15.7434149  81.8811264
  63.5511513  16.9526062  68.3257294  64.1399765  17.1044979  67.5865021
  62.8740005  16.3726807  67.9773254  41.2006912  62.8779945  40.3309937
  41.9859505  62.3929596  40.5846519  41.1301537  62.7423096  39.3860893
  63.5846367  47.5091019  85.1056366  63.6041679  48.4025307  84.7626572
  62.6537132  47.3143234  85.2136993  67.5543137  18.5669918  68.6613541
  68.2892151  19.0783405  68.9999771  67.8231277  17.6556377  68.7771301
  50.9390488  62.9024277  73.9203033  50.8581085  62.9081993  72.9665527
  51.6652107  62.3038902  74.0954361  44.9132614   7.4059176  13.3011875
  44.9848633   7.9763975  12.5359049  44.0761299   6.9560094  13.1870537
  86.4361572  21.6736183  28.6980934  87.0868835  21.8370438  29.3807926
  86.3636703  22.5065193  28.2319889  81.1454163  40.5270157  64.0712891
  80.7638397  41.3524246  63.7724113  81.8568497  40.7896385  64.6553497
   5.0811744  29.1710033  80.1058731   5.6399312  29.8601627  80.4651489
   5.4927444  28.3555164  80.3919220  10.0640926  39.8840027  74.5431824
   9.1721630  39.6048737  74.3363571  10.0689774  39.9843864  75.4950943
  31.0685215  68.3734589  78.7836609  31.7574024  69.0323257  78.8706512
  31.5244102  67.5891647  78.4782486  78.5941315  14.2653704  54.4068451
  78.0937500  13.5259447  54.7519569  77.9326935  14.8511724  54.0386429
  68.5069580  37.6714401  18.9387417  68.4979935  38.2215042  18.1554279
  69.4234772  37.6625137  19.2146664  70.4963913  36.5037270  78.2182236
  70.3175507  36.0429764  79.0379486  70.0009995  36.0190086  77.5580139
   2.0783169  36.5807228   4.3594193   2.3621814  36.7603531   3.4631016
   1.7179532  35.6946754   4.3235011   5.8084102  47.1821556  77.3965683
   4.9253039  46.8323708  77.2782364   6.3810353  46.5266075  76.9983368
   8.0437384  40.6451683  47.4959869   7.2867675  41.1924324  47.2868729
   7.7927194  39.7681999  47.2059059  29.4952984   2.2594669  68.6689224
  29.6769810   1.3463377  68.8912277  30.3585720   2.6475284  68.5260925
  29.1718559  40.7251434  81.4258194  28.9673290  40.3549538  82.2845154
  28.3243713  40.7923393  80.9859467  18.2611847  36.7460442  86.7652054
  17.6649933  36.6531448  86.0221329  18.4095707  37.6889610  86.8367920
  63.8291740   3.7368386  18.4531326  64.4677734   4.1067462  17.8435459
  63.0062141   3.7322342  17.9643097  15.8956804  64.3789520  13.3914480
  16.0405293  65.3065033  13.5782375  16.6866379  63.9440994  13.7100782
  85.6479187   4.0214090  34.9923706  86.4527740   3.5935340  34.7002144
  85.3207397   4.4729972  34.2143898  67.4764786  52.2410278  84.1582947
  68.0091858  52.9302864  84.5549927  66.9606018  51.8894844  84.8839111
   8.4902744  25.5722656  23.3426819   7.5833416  25.4210587  23.0765228
   8.8344164  24.6984634  23.5278034  80.7934799  38.9476547  74.8016891
  81.4817505  38.3602142  75.1138306  79.9876328  38.5936584  75.1778946
  44.1842728   3.8625858  13.4338875  44.6295853   3.2002547  12.9054508
  44.3665810   3.6093278  14.3387938   1.0022206   6.7648010  66.8829422
   1.2862799   6.2740517  67.6541138   1.8154106   7.0032854  66.4378815
  85.3550339  51.5281525  56.6159630  85.1125488  51.1494675  55.7709579
  86.3038559  51.6431313  56.5634727  54.5011063  51.1836777  67.3286057
  55.1288795  51.6572838  67.8743515  53.8617821  50.8326950  67.9485321
  69.3414459  24.6328163  86.9153137  68.3848114  24.6398563  86.9472961
  69.6124954  24.8720207  87.8016205  59.5889015  26.8092136  38.7537575
  59.0194740  26.5817966  38.0187302  60.4575729  26.5099297  38.4853020
  62.0797882  32.0230064  60.2068901  62.8307953  31.4306469  60.1704254
  62.4214935  32.8622475  59.8984413  81.9104996  50.6907272  80.4503250
  82.1947098  49.7867165  80.5853195  81.0298615  50.7232742  80.8240204
  80.3258591  29.2081661  18.1121845  80.2438660  28.9935226  19.0413990
  81.2464218  29.4460297  18.0016365  38.7223053   3.1628373  14.6098948
  38.9324226   2.9117370  13.7104330  39.3331375   2.6593289  15.1480370
  23.5916138  56.0553436   5.2352047  24.4545612  56.3171196   4.9142256
  23.7702065  55.3416023   5.8475032  32.4571152  41.4988022   7.1587567
  31.9253197  42.1855774   7.5609565  32.3911629  40.7597618   7.7634859
  72.9574738  10.9793558   0.8368570  72.1751938  10.4915800   0.5792887
  73.5876923  10.3048916   1.0901439  72.8980713  18.6682720  66.2057648
  72.1916656  18.1190681  66.5457764  73.6348038  18.5021992  66.7938766
  47.8800926  18.4958477  12.2889147  46.9576607  18.7315502  12.3879099
  48.0565224  17.9058647  13.0217323  74.9358215  61.6974335  43.2853661
  75.6465302  61.0655060  43.1768074  75.3151550  62.3950348  43.8198624
  78.5383148  37.7386932  44.7891159  79.3481522  37.8192177  44.2852211
  77.9783096  37.1761322  44.2541809  48.1420174  68.2886200  68.8441696
  47.3417816  68.1638641  69.3543549  48.8492699  68.2053375  69.4837723
   8.3141994  44.0075569  34.8021584   8.9421558  43.4476204  35.2586403
   8.7313871  44.2003403  33.9625053  44.1945686  67.4360657  74.2526855
  44.7248802  67.0406570  74.9445343  44.3095627  68.3788147  74.3719788
  41.2270546   1.1221476  68.6784286  41.4790688   1.9800817  69.0200043
  40.7968636   1.3131255  67.8449478   4.7513766  58.4488564  75.2787247
   5.4071217  58.8846359  74.7343674   4.5984936  59.0566139  76.0022507
  86.6315994  20.0941830  78.3890228  86.2281265  20.6927471  77.7603989
  86.8632736  19.3233185  77.8710251  85.7946854  59.8839722  67.3170090
  85.9029312  59.3727570  66.5150223  86.3433380  59.4372330  67.9617004
  84.4359055  51.6559296  40.9724617  84.3336563  51.7135468  40.0224838
  84.9762497  52.4121017  41.2014999  66.2480850  68.4902496  71.8613892
  65.6103287  67.9621658  72.3416214  66.6743622  67.8708878  71.2690201
  52.5093498  27.8415604  24.9421082  51.7355423  28.3784065  24.7710896
  52.8332481  27.6045456  24.0731163   6.0274601  59.5065880   7.0984445
   5.7653637  58.5860558   7.0858183   6.6282587  59.5947266   6.3585091
  49.8713074  52.4338951  61.6641426  50.5046616  52.8547134  62.2455292
  49.0662422  52.3882065  62.1799088  75.7661438  44.4829788  46.5940247
  76.4284439  43.8445625  46.3294373  76.2566833  45.1545982  47.0678711
  34.4675789  46.6435852  56.9690819  33.9790878  46.7696571  56.1556244
  34.3940811  47.4820213  57.4249916  66.2355347  44.5062904  10.5630980
  67.1749725  44.6659622  10.4725828  65.9861374  44.9856758  11.3531761
  44.0619888  24.5330620  79.2634430  43.1616554  24.3269176  79.0121689
  44.5310669  24.6092873  78.4325485   4.7876105  62.0582733  23.5820255
   4.0543537  62.1998177  22.9832516   5.4043269  61.5226212  23.0830555
  86.0007172  42.3090363  44.0318756  85.5086441  42.6437531  44.7815819
  85.4645157  41.5914726  43.6945000  10.6190357  66.7917023   2.2006376
  10.0138826  67.1487732   1.5506200  11.4522686  67.2249756   2.0156202
  41.4096184  56.2841415   0.9940913  41.9185371  55.4822159   1.1130229
  41.9210052  56.8024139   0.3727133  35.1612892  47.5971413  38.2251511
  35.3472176  47.2079659  37.3706322  34.4472694  47.0671616  38.5794563
  55.4357986  11.6284409  72.3630219  55.8168983  12.0303059  73.1437302
  55.8323708  12.1021957  71.6319199  13.5102959  36.2165222   5.6990561
  12.6142235  35.8898621   5.6179419  13.4336548  36.9897957   6.2579889
  50.5602493  68.9219666  33.8488426  50.8666573  68.0862198  33.4968834
  50.3203545  69.4336777  33.0762939  25.0874043  54.8330841  25.3882713
  24.2037029  54.6544914  25.7098427  24.9725780  55.5385246  24.7515621
   3.7841861  20.5823708  67.1588440   3.0214813  20.0040092  67.1621933
   4.3835144  20.1847553  66.5272293  13.3780041  71.4984894  32.0819435
  12.5799961  71.8823700  31.7185516  13.8507233  71.1629257  31.3202572
  77.2524948  47.8970718   2.6487114  76.3467484  47.6090813   2.7623518
  77.7448730  47.4033470   3.3044794  36.5934143  63.8280258  17.4364872
  37.1232224  64.5390778  17.0760155  36.8424568  63.0596504  16.9228592
  70.9078827   7.8233032  47.3491936  71.3937531   8.1198025  48.1187706
  71.5839462   7.5403056  46.7334938  77.8723984  46.0923080  82.2429581
  78.3921356  45.2993507  82.3745575  77.9700623  46.5810699  83.0601501
  11.8136263  26.4611969  63.2725716  12.2186460  26.3747349  64.1355438
  11.7296228  25.5617027  62.9562111  44.7534027  35.6761932  21.1317310
  44.2874870  36.1521378  20.4442520  45.2179909  36.3554535  21.6206055
  81.9093399  40.5895538  26.3751030  81.3552628  39.8258400  26.5362720
  81.5040817  41.0255699  25.6255112   9.5177889  60.2865677  30.3195515
   9.1288929  60.9963722  29.8085041   9.8643522  60.7164040  31.1014481
  80.7789078  21.6274033   1.2701559  81.1790085  22.4958763   1.3138570
  80.3675995  21.5098209   2.1264427  70.5910797  60.8460236   2.3582375
  70.1143494  61.6107826   2.0355854  71.5125656  61.1006622   2.3107939
   1.8505129  61.1177521  77.6894608   1.7461066  61.7157936  78.4295197
   1.6781870  60.2505341  78.0561676  42.9933243  25.6860485  76.0173798
  42.0773201  25.4159527  75.9524536  43.4832191  24.8645458  76.0543823
  76.3321457  11.9402027  46.5969505  76.7051697  11.1420240  46.9711075
  75.8739777  11.6445322  45.8102531  73.9551163  65.5445786  48.2657585
  74.6814346  65.0567474  48.6539879  73.1705093  65.0881882  48.5696297
  81.5962143   1.4890465  63.4612045  80.9292526   1.5801256  62.7806892
  81.1321182   1.0959308  64.2003326  63.6266518  64.5438156  55.1247902
  63.6137123  65.3102341  54.5514946  64.5557175  64.3856735  55.2923050
  47.3925323  61.7335968  48.2210960  47.2209358  61.8534470  49.1551285
  46.8027802  61.0270653  47.9579544  33.2612839  33.6931686  88.0451889
  32.9480324  34.5960693  87.9915848  32.4896317  33.1601677  87.8536301
   4.4968143  12.4597855   2.2616479   4.8030849  11.6569281   1.8399251
   4.9820352  12.4974871   3.0858874  26.3221321  63.0546494  21.9732533
  27.2746773  63.1330338  21.9208565  26.0032387  63.4692116  21.1715813
  27.5581837  22.0651550  71.1687927  27.8779335  22.9275780  70.9037933
  28.2066345  21.7527905  71.7997971  35.9106140  13.0353127  89.0800934
  36.8572769  13.0534725  88.9396286  35.5817261  13.7911110  88.5934372
  28.6224594  61.8852730  20.7431164  29.2645607  61.2022934  20.9367161
  29.1456108  62.6258240  20.4363155  39.0529556  40.7051353  64.0493011
  39.3220673  39.8041992  63.8700600  39.8705215  41.2029266  64.0537567
  47.9450417   6.9855776  67.7419739  47.1055603   6.5327110  67.8220901
  47.7395973   7.7877021  67.2617493  19.6966381  45.4870300  74.8155975
  19.2959385  46.3009644  75.1208496  19.0150414  44.8254585  74.9338608
  44.4360695  56.8158607  19.5489826  44.9930382  57.3520889  18.9846439
  43.6919441  56.5787697  18.9955425  19.3296700  46.8400269  44.7246666
  20.1309929  47.3561935  44.8123322  19.2701321  46.3491020  45.5442276
  40.7775955  26.5539074   3.8207369  41.2174683  26.7922592   4.6367846
  41.2232552  25.7574348   3.5322080  49.7020454  68.1707916  71.9891968
  49.4452858  67.4075317  71.4717636  50.1730537  67.8051071  72.7379684
   4.9743729  30.7983761  89.0668488   4.7188582  31.7153835  88.9666519
   4.9786820  30.4520664  88.1744995  68.9021149  70.9981232  55.6095505
  69.2961426  70.3624039  55.0121918  68.9846191  71.8366623  55.1553726
  77.6348190  59.8310318  61.6617470  78.1210022  60.4984436  61.1775742
  77.3071594  60.2881126  62.4363060  34.4697914  62.8505173   4.7936826
  34.8113518  62.5166054   5.6231837  33.5634346  63.0900917   4.9869452
  58.4258423  52.7291527   0.7171412  58.9939346  52.8524666  -0.0433159
  57.7978516  52.0615196   0.4412217  13.2210102  13.1800804  22.1535664
  13.1417494  13.4325247  23.0734692  13.8651857  13.7892084  21.7926884
  22.5648956  36.8048363  73.0828934  21.7836246  36.2634697  72.9698868
  23.0715618  36.3558655  73.7596130  31.2006874  22.2455330  83.4064255
  31.4344330  22.9515419  82.8038101  31.6874676  22.4426975  84.2066803
  34.5775261  53.8829269  54.8478813  34.2292595  53.6682587  55.7132454
  34.0223389  54.5979691  54.5368919  35.9136391  51.9434853  20.7587166
  36.5446472  52.5800133  20.4227200  36.3539276  51.5423813  21.5080452
  10.8182487  43.2678986  75.6563721  11.2135649  44.1277657  75.7998657
  10.9606743  42.7986221  76.4784012  77.7687378  60.0944481  88.4669800
  77.6999130  61.0394745  88.3312531  76.9332581  59.7462845  88.1555557
   4.9672670  65.5728607  84.8603745   5.0139012  65.7562103  83.9220581
   4.0335727  65.4551926  85.0353165  83.6267166  31.1573334  57.6659508
  84.3926697  31.1999931  57.0934830  83.2462387  30.2961597  57.4931755
  47.4291306  15.5185127  63.3521309  47.1377487  14.6580820  63.0504913
  46.8800430  16.1389561  62.8727722  46.5393105   1.6219033  34.3103218
  46.1343803   1.3763536  35.1421700  45.8759995   2.1518328  33.8682556
  69.3238754  42.7460861  58.8040428  68.7407150  43.0910950  58.1279297
  68.7556458  42.2155495  59.3625069  66.3650208  61.7500534  50.1306839
  67.1637115  61.2249413  50.0798836  66.6753922  62.6544838  50.1743660
  73.3322372  28.8709164  15.3366728  72.8646240  29.7061043  15.3421659
  72.6421356  28.2096882  15.3893681  53.8929520  14.1082163  34.2402267
  54.6404915  14.6672907  34.4520111  54.2541695  13.2219696  34.2222633
  80.6617432  25.3616066  84.0341492  80.7895126  26.3019066  83.9086914
  81.4342804  24.9597855  83.6367188  35.9155273  38.7035866  75.1140594
  35.3639526  38.9437904  74.3695526  35.9782333  39.5047874  75.6340332
  18.2462826  12.8357830  28.1599140  18.4021149  12.3250952  28.9543610
  19.0443974  13.3519220  28.0465698  10.6451445  51.7353363  36.0996552
  10.0644674  51.1583290  35.6035614  11.2507353  51.1416206  36.5434952
  56.1361618  12.4467373  61.6142845  55.2169724  12.2633047  61.4201775
  56.3324394  11.9045401  62.3783035  63.9877815   2.5278790  88.4586334
  63.2681160   2.1680744  88.9771423  63.7784653   3.4578161  88.3712616
  63.4581566  61.3457260  73.1137238  62.8839951  61.4353218  72.3531036
  63.9413872  60.5348778  72.9548569  30.4153709  46.6680984   8.1472206
  30.9085484  47.4884415   8.1541357  29.5895329  46.8887405   7.7164774
  18.9317150   1.3459197  56.9380112  18.0882187   1.6906354  57.2311287
  18.9974174   1.6195711  56.0231171  64.3301163  29.6432323  74.6597443
  63.9566803  29.2082291  75.4262619  63.6283417  29.6260567  74.0090103
  85.8313065  67.5892563  39.2474289  86.2724838  68.3841019  38.9477386
  84.8985596  67.7852631  39.1591797  52.3946800   1.8490683  88.4271851
  51.4554825   1.9855871  88.5516968  52.5907364   2.2781577  87.5943069
  30.6636467  55.1547623  35.7317047  31.4658604  54.6372604  35.8015022
  29.9688835  54.5584335  36.0108604  74.4932632   8.9246922  28.5165138
  73.5743179   9.1583138  28.3853893  74.9481888   9.7649288  28.5737553
  32.4583626  47.7623062  82.6302109  32.1000023  47.9451447  81.7616653
  33.3739700  48.0356636  82.5739441  56.9133453  43.9732971  47.9125443
  56.0013542  44.0731964  47.6395531  57.4090004  43.9656525  47.0937042
  52.8595657  64.3348160  30.9784241  53.0965080  63.6291122  30.3766994
  53.3275528  64.1272049  31.7871990  19.3030224   1.9632629  20.2551117
  19.1997795   2.5763919  19.5273438  19.5774822   2.5096819  20.9915428
   0.2038642  28.9175301  61.5722694   0.0979948  28.7363319  60.6383591
   0.7062719  29.7317066  61.6028328  15.6420717  45.8203278  71.9516296
  15.1169491  45.0201340  71.9645081  16.4315147  45.5809555  71.4661331
  22.6709290  48.1111488  81.1108475  23.0496254  48.9379501  81.4095535
  21.9040623  48.3697701  80.5997086  45.9333878  45.1561394  44.8188744
  46.7469864  44.8689804  45.2333946  45.2639618  45.0280037  45.4909477
  31.6911545  43.6625366  78.7080841  32.0338135  43.5721092  79.5972672
  30.8791561  43.1557045  78.7116241  77.4848785  57.6840591  28.2998848
  78.0740128  57.5074959  29.0333557  77.7246857  58.5629921  28.0062790
  24.5760193  24.7990570  81.2934570  23.7331371  25.2113476  81.4826584
  24.4893742  24.4777126  80.3959808  44.8498688  12.6780996  17.4870358
  45.6957016  12.4695787  17.8836670  44.2054062  12.4067173  18.1406822
  74.1053162   7.3833046  22.2817497  75.0101318   7.6806736  22.1862736
  74.1044006   6.4981585  21.9174042   4.3984661  71.8266907  57.2060928
   5.0868073  71.8460693  56.5412292   4.0146379  70.9533005  57.1280823
   8.6278887  21.7992020  87.2050629   8.3900566  20.8937988  87.4048538
   8.2300081  22.3121510  87.9084854  23.3469810  12.5713148  14.1927261
  22.6236267  13.1627827  13.9849854  23.6222134  12.2225218  13.3448915
  81.7849808  39.9490471  52.2673225  80.9923248  39.4366379  52.1080513
  81.4941177  40.6747398  52.8195915  17.8381424  60.8893471  58.9171677
  17.6309109  61.6994934  58.4513855  18.7372608  61.0115662  59.2219276
  67.0163193  65.2717590  14.2969236  66.8574600  65.7835007  15.0900927
  67.8571548  65.5916061  13.9699297   2.3285146  31.7068539  78.4169922
   1.6275152  32.1217041  78.9197159   2.2876461  30.7834949  78.6659241
  30.4491215  46.8569679   0.2281726  30.4292717  46.2343483   0.9549366
  29.7206860  46.5925560  -0.3336980  77.2460785  13.8375874  42.6823845
  76.9087143  13.4817839  43.5044632  78.1969604  13.7601109  42.7602005
  46.8081398  11.7044106  11.0140123  46.8854904  12.5461750  10.5649223
  46.6042213  11.9344196  11.9205151  41.7464714  55.1618080  65.4390030
  40.8389397  55.2449074  65.1462402  42.1749001  54.6540527  64.7499008
  39.4729385  44.5057907  65.5699081  39.8561401  45.0638161  66.2466660
  40.2183151  44.0345306  65.1976700   0.7820656   7.4361901  34.5042801
   1.0201577   6.5170770  34.6258316   0.9743731   7.6136775  33.5835495
  30.8311558  69.7325821  13.5713406  30.2624245  69.0000305  13.3343859
  31.7044067  69.3461914  13.6374464  66.2884674  22.4482670   4.8586102
  65.8431473  21.6068974   4.7585068  66.8541718  22.5128822   4.0891719
   4.8912792  57.1959190  64.0826950   4.6225719  57.5937576  64.9107971
   5.3540525  56.3982544  64.3392181  61.1362724  20.9863777  35.3461075
  61.0377274  21.9247684  35.1850395  60.5456543  20.5720634  34.7170219
  36.2317924  43.8245735  26.4592323  37.1095734  44.1816139  26.5943413
  35.6472588  44.5721512  26.5844688  40.4371147  29.0255680  65.6753159
  40.1879158  28.2439232  65.1821976  40.7452164  29.6405735  65.0096741
  35.3277016  42.3169289   5.2300034  35.3273201  41.6953354   4.5020947
  35.6773071  41.8196640   5.9694180  66.1763000  20.2148094  14.0424156
  65.9725189  20.7698498  13.2896643  66.3561478  19.3542747  13.6637774
  78.8473358  19.3999653  62.1021652  78.2427597  20.0468903  62.4657822
  78.6399384  18.5899143  62.5680351  46.4562187  43.0093040  73.4587631
  45.7632790  42.3561249  73.5558243  46.8944588  42.7738609  72.6409988
  52.7799683  61.5097466  86.8095169  53.4481544  60.9622688  86.3971786
  52.5727730  62.1721230  86.1503067  15.8577862  68.9160843   4.7018881
  16.0171700  68.8799820   3.7587419  16.3601246  68.1831970   5.0579181
  76.9960175  10.7140274  69.9899368  77.0000229   9.8591356  70.4204941
  77.5681305  11.2576694  70.5315704  22.4277821  43.8602524  66.1355896
  22.3919926  44.3599701  66.9512100  23.2659874  43.3995972  66.1735229
  53.1697998   3.0751355  85.7449799  52.8303986   3.7061167  85.1102371
  53.2414513   2.2565217  85.2540970  40.9299431  49.8502083  32.9971123
  41.4147110  49.3450203  33.6498146  40.9731483  50.7529297  33.3124733
  73.1282730  61.8024254  41.3225746  73.6726990  61.6045609  42.0846024
  73.0673218  62.7576370  41.3132935   5.8102727  35.4655495   7.6261492
   5.7028008  35.0537720   8.4835415   6.6287351  35.9567642   7.6972628
  56.9221954   8.9694948  18.9667797  56.7703209   8.8289003  18.0322227
  56.0499840   8.9327602  19.3593674  57.0571098  21.5098343  82.4067535
  57.7290764  21.9914913  82.8891373  57.2106323  20.5926266  82.6334457
  30.8865681  43.0422440  63.8810234  31.8339195  42.9874001  63.7555275
  30.5945110  42.1309166  63.9014130  84.1726151  54.1688423  28.0564499
  83.6426620  53.6625595  27.4407749  84.1559448  53.6562691  28.8646717
  40.2860184  54.0231781  42.2476501  40.7863274  53.5084724  41.6144028
  40.8675041  54.7468529  42.4808960  14.0269098  29.8494759  15.8011093
  14.3056593  29.6111240  16.6852570  13.3434315  29.2147369  15.5861759
  80.8254242  24.4251537  32.6743240  81.3878479  24.7913227  31.9918118
  81.4069977  23.8661060  33.1895561  15.8648844  51.9168053  52.7192268
  15.7951708  52.8242264  53.0158043  16.3488655  51.4735909  53.4160461
  78.6025925  15.5862322  38.3419189  77.8871155  16.1987476  38.1711998
  78.2580490  14.7345772  38.0732117  64.0603561  44.6281815  87.1337509
  64.7872009  44.1792450  86.7020187  63.3736115  43.9645576  87.1986771
   5.4543843  12.2392445  10.2450743   5.3420954  11.6936016  11.0234680
   5.9776344  12.9818878  10.5466089  -0.0886068   2.2733021  53.1846657
   0.8284962   2.1730037  52.9295273  -0.0603484   2.8198857  53.9699554
  25.0240650  49.1715431  69.8845901  25.4328384  48.9512939  70.7216263
  24.5126190  49.9596291  70.0678329  18.4472771  65.1690598  68.3594284
  18.0001869  65.8695374  67.8843765  17.8234100  64.9011688  69.0341568
   6.8199868  41.9386673  81.8998032   7.5981112  42.3945847  81.5790253
   6.3489475  41.6819763  81.1070480  83.1207504  52.9539680  84.8905716
  83.7000351  53.7132835  84.8266068  83.4070740  52.3741417  84.1848450
  60.7305298  68.6835403  36.6052246  60.1004028  69.4017639  36.5475082
  60.4550972  68.0680923  35.9258232  80.1384583  39.4901237  30.2123718
  80.7295380  39.4488220  30.9641399  79.3196106  39.1098366  30.5303345
  68.4094620  45.7889595  45.5983620  68.7974625  46.3967934  44.9688950
  68.7553635  44.9321556  45.3484306  42.0075417  61.4117126  30.9488411
  41.5609932  61.6923637  31.7476273  41.3004265  61.1580887  30.3556347
  14.8984203  64.2452927  37.6553612  15.5792770  63.6798859  38.0200233
  14.0861740  63.7553329  37.7835159  17.1311207  56.4692650  60.5303917
  17.4686012  56.6799240  59.6597824  17.8287659  56.7364960  61.1288185
  71.1027832  68.1350174  10.7665882  72.0224075  67.9087753  10.6275520
  71.1003952  69.0887756  10.8477154  50.8082962  53.9446182  39.3725510
  50.8428192  53.8491516  38.4207497  49.8814926  54.0860100  39.5656242
  19.8533878   4.8996735  55.1141396  19.8082600   5.7431102  54.6637955
  20.2098427   5.1080251  55.9777145  28.9948006  53.0975800  18.5293636
  28.8845673  52.1698723  18.7377739  28.8225422  53.5506058  19.3547878
  49.4675102  30.3485279  60.3420258  49.9301224  29.5542412  60.0749512
  49.8445816  30.5705242  61.1933594  18.5329609  34.3680649   6.9288764
  18.1916981  34.9972725   7.5643845  17.8990993  33.6508675   6.9378328
  33.5745583   8.3545799  75.2561569  34.4295540   8.7170029  75.4882431
  32.9523964   8.8467369  75.7918091  77.7575836  11.8214397  76.0999374
  77.1415710  11.2387257  76.5440140  78.3931427  11.2327480  75.6928253
  44.3812218  10.0667362   3.4859262  44.5673332  10.2842484   4.3993163
  43.8798027  10.8137703   3.1591995  79.1690903  13.5539932  25.2629814
  78.6917953  14.3250761  25.5693340  79.7907181  13.8966045  24.6207752
  53.1086845   4.5417838  51.4880371  53.0588074   5.2439733  50.8394432
  52.3293571   4.6612749  52.0308075  74.1338272  71.0979538  47.6450157
  74.9686813  71.4993362  47.4039001  74.2441177  70.1707840  47.4342613
  45.4230919  41.1839828  84.8714066  45.7983208  41.7247658  84.1764297
  46.0813103  41.1963158  85.5662689  40.3799896  57.9208832  18.4554806
  39.8705711  57.4735794  19.1312351  39.7346802  58.4346237  17.9698105
  26.0895462  53.5659790  75.5807724  26.7311077  52.8653145  75.6978149
  26.5744286  54.3689880  75.7712784  68.5235519  22.7203274  19.6087170
  68.3530045  22.0517387  18.9452896  67.9638062  22.4749985  20.3454170
  42.2047310  47.0973740  25.0116596  41.5219231  47.4866333  25.5579948
  42.3692055  46.2414780  25.4074078  34.3138504  69.9682922  68.7622757
  35.2576523  70.0072479  68.6075211  34.0534439  69.1059799  68.4384766
  49.6142731   9.7814951  40.1818199  49.1036415  10.0573511  39.4206429
  48.9814377   9.7597017  40.8996468  65.0636368  62.3558464  21.5294724
  65.4974442  62.4807358  22.3735390  65.7793655  62.3243713  20.8946686
  85.0568924  42.9962540  62.4432526  85.5967407  42.2952538  62.8084755
  84.8292084  42.6905098  61.5652390  39.4271240  48.4008751  58.7604294
  38.5272827  48.5894585  59.0267982  39.9027939  48.2917633  59.5838776
  64.3687897  14.8829870  65.1624832  63.8123589  14.1822557  64.8224869
  64.0587234  15.0221996  66.0573120  15.3125086   0.9498012  86.9320374
  15.8413954   0.1662829  86.7816696  14.5014935   0.6206030  87.3194809
  54.2746925   6.8950872  27.9429550  54.4114952   7.7030129  27.4482098
  53.9463425   7.1875663  28.7931747  14.9795008  49.0901489  76.0236282
  15.3524523  49.9125366  76.3411484  15.3576441  48.9765511  75.1516571
  15.6535711   3.6008296  26.8669224  15.3776970   4.4437451  27.2269478
  16.1860542   3.2077591  27.5584335   4.2421803  52.5548706  78.1361237
   3.8771155  52.8031883  77.2868347   5.1885066  52.5353470  77.9935837
  42.0543060  71.6585236  85.9954376  41.2751961  71.1896210  86.2943497
  42.6096306  71.7201996  86.7726440  82.2943039  67.3114243  80.7590561
  81.5293121  67.3354492  81.3338928  82.5579910  68.2275467  80.6728439
  62.0950661  24.5123024  28.5030422  61.6556549  24.1488838  29.2718582
  63.0270653  24.4684315  28.7167797  37.0203285  61.4266205  61.1774063
  36.9107552  61.7367249  62.0763283  37.9676819  61.4183273  61.0407066
  21.3278046  29.8490505  18.4534893  20.9215698  30.5654030  17.9655933
  21.2631588  29.0940399  17.8686714   9.8348885  55.1048737  39.8160057
   9.2002678  54.5047112  40.2075310  10.0506554  55.7174377  40.5191727
   7.0480547  38.0514259  47.0882072   6.1396585  37.9848213  47.3825035
   7.1058378  37.4445686  46.3502235  84.5305252  23.4253750  15.9222040
  83.8750839  22.7513542  16.1020012  84.1161804  23.9957104  15.2746935
   3.9768763  61.3135757   6.2597518   4.7174134  60.7723541   6.5334587
   3.6358972  60.8761024   5.4796348  17.2663307   3.1294434  41.5466385
  18.0851040   3.6249390  41.5285530  17.5394821   2.2197120  41.6650009
   3.9553649  19.2003269  84.7636032   3.4018650  18.9852657  84.0128555
   3.3754194  19.1167145  85.5205078  29.6972752  63.9057999  58.6593513
  29.4685879  64.1190109  59.5640488  28.8646164  63.6679230  58.2515221
  21.3728561  35.3444710  66.0990677  22.0930367  35.8219109  65.6872177
  21.8012409  34.7462120  66.7112808  39.5039940  63.3004799  53.1950264
  38.5952377  63.0135841  53.1050987  39.4530678  64.0937500  53.7282829
  13.7956648   7.1346307  14.1700954  14.2842875   6.7957730  13.4199915
  13.3090010   7.8814631  13.8213387  74.2216644  14.3483477  51.3568001
  74.5728455  13.7372189  52.0044327  74.7790070  15.1229553  51.4315300
  33.6434975  62.9214935  84.5649414  33.7920036  63.6225739  83.9303818
  32.9087410  63.2300491  85.0951843  47.7935066   9.3307266  17.3795204
  47.8479385  10.2405052  17.6720467  48.6429214   8.9540176  17.6093426
  63.4699287  61.0254593  25.7942295  64.0460892  61.3212395  26.4990616
  64.0584641  60.6175690  25.1590290   3.4345436  14.9712667   0.9523546
   3.7546694  14.1867895   1.3977168   3.7585738  15.6978903   1.4845704
   3.9161971   9.9722986  69.9988556   3.8534713   9.8345451  70.9440155
   4.8136411  10.2748375  69.8599472  71.6231384  45.1822166  74.7769547
  70.7913513  45.2456474  74.3075485  71.5675735  44.3529434  75.2517624
  29.3097191  10.9846678  14.1582346  28.4602470  10.5923319  14.3599815
  29.1668282  11.9265070  14.2517891   9.2866344  54.1559601  65.4715958
   9.8529158  54.7500877  65.9641037   9.5743761  54.2486992  64.5633850
  71.7322388  64.0676041  49.1077461  71.5156937  63.3845482  49.7423859
  72.0277481  63.5896149  48.3328705  74.8229675   4.2606373  14.9184790
  74.1072235   3.6397114  15.0540924  74.4862518   4.8756914  14.2668962
  13.9563923  61.4980087  12.6759224  13.0947447  61.6838951  13.0490732
  14.4374046  61.0711327  13.3848915  13.6744862  70.7347260  84.4716949
  13.6172695  70.0771790  85.1649399  12.9066296  71.2905273  84.6047897
  84.7121582  35.8858910  37.8732567  84.5312500  35.7761002  36.9397430
  84.2018433  36.6548271  38.1273079  60.0491638  45.9014664  81.3248291
  59.8776054  46.4694405  82.0759583  59.2374802  45.4078751  81.2074509
  54.6914940  10.2329388  59.0316391  55.4251137  10.4785213  58.4679718
  54.2399483   9.5405436  58.5490150  40.4770432  40.8956223  83.1154556
  40.5027885  41.6858978  82.5759811  41.3823662  40.7701683  83.3998566
   1.7253121  35.2646942  38.3960800   1.0965918  34.8696060  39.0001068
   2.0492382  34.5309029  37.8737259   2.0349338   0.3995522  21.8284721
   1.5795709  -0.2637458  21.3099060   1.3427980   0.8239884  22.3354568
  64.3628387  29.2042542  26.5791855  63.6568718  29.8376656  26.4502068
  64.6612473  28.9946804  25.6941643  65.2813034  19.3557491  55.6792526
  65.3313446  19.5527172  54.7438774  64.4798050  18.8409290  55.7730637
  14.0168114  59.9860382  54.6751595  14.6078854  60.4300652  54.0671234
  14.5857534  59.6789055  55.3809929  26.2136345  64.9182129  52.2119446
  26.3413010  65.0035019  53.1567497  26.0598698  63.9835014  52.0744438
  21.7263184  62.6805420   2.1302772  21.0589848  63.1672211   1.6464987
  21.2537613  62.2947044   2.8678761  82.0682678  11.7371979   7.0598669
  81.5365906  10.9429274   7.1116881  81.8643036  12.2148342   7.8639150
  64.6543961  62.3581238  10.2662725  64.1299744  61.5817528  10.4623928
  64.0645599  62.9268341   9.7714033  63.2736893  52.3744812  71.4333954
  62.5759430  52.9661942  71.7149277  64.0021439  52.5647964  72.0244598
  59.1711273  10.0972061  25.7746105  58.3688507  10.5744228  25.5628338
  58.8664703   9.2610312  26.1270695  60.6875076  22.8106079   5.1065564
  60.7166748  23.6341381   5.5935674  60.5923882  22.1372356   5.7801685
  15.9101982   8.3978872  64.6225433  16.4694576   7.7935319  65.1106186
  15.1236534   7.8895469  64.4246368  62.6177330  39.3310432  18.5433846
  63.3804283  39.8697739  18.3329144  62.3808556  38.9166908  17.7136669
  55.4065132  54.3968849   3.3913314  55.3104897  54.9793701   4.1448054
  56.3520737  54.3331566   3.2568324  71.2630234  18.4213200  12.9640942
  70.4812775  18.7459602  13.4109888  71.6894073  19.2084389  12.6251736
  26.8495998  63.2635384  24.5820026  26.0630302  63.0086555  24.0997448
  27.4939804  63.4606934  23.9021969   7.6814127   4.5336142  76.7083969
   7.5353761   4.2522793  77.6115875   7.4595938   5.4647574  76.7087402
  24.3586121  32.0775185  64.4405975  24.0128193  32.8517990  63.9965820
  23.5821762  31.6180630  64.7604065  58.1613998  56.7407722  11.9305696
  58.6544952  56.8424034  11.1164703  58.0485420  57.6340904  12.2553434
  73.4928360  51.2344742  61.5343628  73.7153931  52.1183662  61.8266602
  73.1963959  51.3483543  60.6313782  55.5588226  28.2209473  55.7904892
  56.1606750  28.9646225  55.7596321  55.8987999  27.6666718  56.4929352
  85.3607635  53.3814888  43.6486282  84.5853195  53.5497704  44.1839752
  85.3837585  54.1076546  43.0254211  56.2877197  53.7775688  87.1196671
  55.8023453  53.6276627  87.9309464  57.1553001  53.4099655  87.2882156
  26.1479492  23.9842014  83.9721680  27.0556870  23.7967300  83.7332153
  25.6725788  23.9640141  83.1415939  19.8433819  42.6217651  83.0863953
  19.3383694  42.5254784  82.2789764  20.6733246  43.0070038  82.8052979
  39.2509422  10.2541113   7.5707731  39.9263229  10.5035362   8.2015486
  38.4270210  10.3678293   8.0445366  43.7122231  61.9455147  56.2053146
  43.4087143  62.3428040  55.3890572  42.9792061  61.4019318  56.4941673
  10.1252775  40.0177689  10.1049938   9.5873709  40.2104492  10.8729544
   9.8250437  39.1573830   9.8120384  62.3528366  21.9696770  45.9464760
  62.9311562  22.5092258  45.4073410  62.1979027  21.1851578  45.4203987
  29.5883598  69.2769547  39.7571297  28.8875027  69.6920090  40.2598801
  30.2313290  69.9731903  39.6226578  63.1564255  68.5353088  26.2246151
  64.1048889  68.4084167  26.2481785  62.9462433  68.5980072  25.2928829
  86.9517670  18.4558811   1.7001985  87.2209854  19.3704548   1.7856789
  86.0184174  18.4601097   1.9124922  67.5827713   1.4522054  13.0233946
  68.4553223   1.7630343  12.7819872  67.5960999   0.5174631  12.8176985
  12.3102446  27.1388302  77.5346832  12.8074198  27.6699581  76.9126282
  11.4268637  27.1042805  77.1677017  18.5001698  58.6420021  50.9118805
  19.3339558  59.0839882  51.0721397  18.3356133  58.7723465  49.9779854
   2.0665038  52.3573303  20.8722897   1.1495603  52.6022797  20.9965763
   2.0422442  51.6665421  20.2101307  57.2336273  54.8829918  77.5159073
  57.6043739  54.0072098  77.6244583  56.7137260  54.8253212  76.7142792
  23.7571907  37.7102509  61.5129471  24.1093521  38.5869713  61.3594017
  24.1479511  37.1713295  60.8251228  32.8703384  41.5184669  14.3562889
  32.5280609  41.1472435  13.5431042  33.5133629  42.1676788  14.0711937
  41.8821411  59.9626808  42.1727333  40.9953613  59.9613571  41.8123894
  42.4219093  60.3420792  41.4792366  76.2026291  66.2908401  72.5113602
  76.3320923  66.5888290  73.4117279  77.0238190  66.5039673  72.0681152
  64.4483490   8.9277325  33.0772781  64.9475708   9.3580256  32.3831177
  63.7455750   8.4684858  32.6174545  79.8928528  60.6479912  41.7996254
  80.5278473  60.8633461  42.4827347  80.3029938  59.9372368  41.3068314
  27.4987373  61.8745003  10.7041969  28.0859547  61.9593697  11.4553328
  27.4842911  60.9360313  10.5163097  59.4112129  57.8586121   9.8474112
  59.9771996  57.5250130   9.1512775  58.6633186  58.2387047   9.3865261
  55.8832855  70.9805298  46.3123932  56.3807335  71.7575073  46.5675201
  55.9731407  70.3839264  47.0555115  57.4706154  56.5499649  73.1294174
  57.7260056  57.1205177  72.4045181  56.5138397  56.5418205  73.1021957
  61.2484131  13.3657742  30.7859745  60.7213402  12.6447144  30.4417419
  61.6843300  12.9980726  31.5547409  36.7297211  57.0868568  85.2083282
  36.4901695  56.2191658  85.5338364  37.1397820  56.9195251  84.3597488
  39.6538963  -0.0121509  37.0191040  39.1471825  -0.4796606  36.3550949
  39.1793976   0.8090671  37.1482697  21.1633759  65.6121368  64.4519272
  20.9012909  66.5311432  64.5064316  21.4009190  65.4848862  63.5334435
  13.7848778  42.3929596  57.7343330  13.9132128  42.4775047  58.6791153
  13.7501335  43.2948952  57.4156799  16.2369385  44.6254959  58.7522469
  15.6828604  43.8471222  58.8102264  16.1485176  45.0466614  59.6072540
  44.4578819  57.4394722  65.4305038  43.9231453  57.7108917  66.1765747
  43.8247719  57.2534790  64.7370987  45.7185822  59.7752113  46.7807617
  45.1772881  59.3106651  46.1424599  46.4489403  60.1218758  46.2682800
  15.2695570  46.0973320  26.4692402  16.0315475  46.6752434  26.5094681
  15.5611286  45.2870865  26.8872337  25.6386585  64.1029816  19.6206074
  26.1539822  64.7113876  19.0909691  25.2436447  63.5068512  18.9843464
  76.7799072  35.1682472   9.6571274  76.8149261  34.7477989   8.7979250
  77.6250458  34.9649010  10.0579062  80.7298813  29.7913666  36.7411079
  80.1356888  30.3544235  37.2372284  81.5762405  29.8938904  37.1763153
  43.8051224  37.2949524  15.8472509  42.8615379  37.3843117  15.9810438
  44.1703072  38.1244316  16.1552029  66.3922882   4.3678861  32.7808876
  66.6298218   3.9088860  31.9752045  65.4366531   4.4165792  32.7559586
  25.9255867  16.5614738  78.4889832  25.7002411  17.4869957  78.5831146
  26.0050354  16.2417049  79.3876877  74.7399063  32.1704788  33.1828499
  74.8038635  31.8145161  34.0690918  75.3277969  31.6233807  32.6619873
  54.6415749  68.3467789  88.4776917  55.4416428  67.8314438  88.5803909
  54.7700272  69.1047287  89.0479889  24.5891552  37.8820457  84.2979355
  23.6617622  37.9131851  84.0629807  24.6047230  38.0675926  85.2368469
  74.5971069  30.5282021  53.9696083  73.7488480  30.8926220  53.7168427
  74.5286255  30.3954868  54.9150887  51.3056183  12.5377874   3.7289541
  51.3867416  11.9086647   4.4457908  50.8029213  12.0742054   3.0591638
  17.4759388  56.7993813  82.0330582  17.4484768  57.5163002  81.3994141
  16.5666142  56.6909981  82.3116531  22.4284439   3.3581266  31.4530411
  22.9894543   3.3538175  30.6774883  22.2690659   2.4326892  31.6385040
  73.4870834  17.8838596  31.0131054  73.3296127  17.7825050  30.0744038
  73.8686295  17.0486736  31.2835102  64.9675674  37.3577003  18.8065758
  64.4078751  36.6578484  19.1430035  64.3568878  38.0421104  18.5329208
  41.5209312  26.2178059  14.9667664  42.0506363  25.4605770  14.7172661
  42.0498466  26.6751842  15.6204367  81.4338608  62.0129509  65.4113464
  81.3596420  61.3726730  64.7036896  81.1831589  62.8445892  65.0091553
  59.5702362  59.5786438  37.3408928  59.0285835  58.8537521  37.0288391
  58.9969902  60.0699501  37.9293137  36.6998253  41.7474518  63.1976547
  36.1931000  40.9663658  63.4198494  37.5806084  41.5622444  63.5234604
  73.5123672  30.1457691  61.5821457  74.3456955  29.7067089  61.4117584
  72.8491287  29.5303402  61.2697601  52.7846680   5.0909076  38.2990265
  52.0336914   5.3663111  37.7732773  52.9991646   4.2175455  37.9712143
   7.2968073  53.7243996  40.7324448   6.5302086  53.4131126  41.2137566
   7.3727407  53.1254311  39.9896774  81.4329147  55.6002388  71.2348557
  81.0836487  56.4681892  71.0325928  80.9208374  55.0029831  70.6896057
  39.5091743  70.8110580  86.5415344  39.0349083  71.6424103  86.5537262
  38.9329185  70.1998215  87.0003967  63.3319473  28.7005615  82.0234070
  63.6886177  28.2666969  82.7985077  62.7621460  28.0442219  81.6224365
  80.1999664  31.9679546  44.5102463  80.4136887  32.7716255  44.9842300
  79.2516785  32.0080338  44.3862000  26.8820496  49.9850044  53.2641220
  27.2786770  49.1730957  53.5799103  27.0232315  50.6121826  53.9733086
  77.9788895  64.0005264  53.3628578  78.8916779  63.9825592  53.0752373
  77.9478607  64.6977692  54.0179253  56.8634491  41.8291473  13.2194653
  56.3098183  41.7130127  12.4473028  57.4432678  42.5557899  12.9913607
  59.6841278  29.6350117  70.1753540  58.9670715  29.3658352  70.7494659
  59.6386185  30.5910969  70.1674500  48.8327904  63.1472664  46.5479202
  48.9546356  64.0784225  46.7331963  48.4224777  62.7973862  47.3387794
  20.7397213  30.2763920  57.7938194  20.9706898  30.9793434  57.1865768
  20.1271362  30.6817131  58.4075661  23.4758015  23.2064037  79.4714355
  22.9514980  23.9726906  79.7041168  22.8479099  22.5940189  79.0880661
  40.4770927  41.9124641  12.9755058  41.3229904  41.4885483  13.1203585
  40.6066780  42.4433212  12.1896114  30.6574764  68.4466095  72.3451920
  30.6258240  69.3940964  72.2129364  30.2077427  68.0831375  71.5823975
  66.9435272  71.0312729  30.6330128  66.5452194  70.9282532  31.4972878
  66.2970352  70.6697693  30.0267181  10.2127047  29.1240864  55.0968399
  10.2979803  29.6760235  55.8742218  10.5386515  29.6681347  54.3799019
  15.2197132  70.7001266  82.3915024  14.9286766  70.6751862  83.3030472
  14.8328123  69.9194794  81.9951096   3.1117775  41.8394547  34.7427597
   3.4211211  42.5434647  34.1727524   3.9019790  41.5182381  35.1770782
  53.8253593  47.4389343  35.1990051  53.2433128  47.0380554  35.8445702
  53.6915321  48.3804588  35.3078766  40.9887161  30.2727585  14.9918604
  40.5219879  29.4664402  14.7722111  41.0550423  30.2586021  15.9466553
  30.8133125  43.3154449  10.7249365  31.3753071  44.0764084  10.8709707
  30.5574188  43.3797302   9.8048182  64.2898407  50.3519058  11.2722549
  64.7584305  49.7003517  10.7505922  64.9795990  50.8987694  11.6482897
   7.3343778  66.0060883  80.5985718   7.5041270  65.3517075  81.2762222
   8.2016211  66.3314514  80.3572083  15.5852985  44.2770615  17.6688061
  15.0051184  43.7770729  17.0946674  16.1880608  44.7210693  17.0723457
  84.0192795  28.0351906  73.9486084  83.9253540  27.0921535  73.8141022
  84.8961411  28.2374935  73.6223755  18.4205437  45.5281143  88.1378860
  19.0116615  45.0775719  87.5347061  18.6851368  45.2225151  89.0055466
  73.9307861  56.5165939  60.6888580  73.6768494  57.0988693  61.4048958
  74.4658585  57.0635071  60.1136932  61.8792000   4.1452842  53.1128731
  61.2397461   3.8920233  53.7785988  62.6609802   4.3848100  53.6105461
   7.9487047  61.6705475  27.8708878   7.1380873  62.1126938  28.1231499
   8.0256948  61.8298874  26.9301891  20.8089657  53.8611145   5.6552982
  20.5730114  52.9846649   5.3513374  20.4254513  54.4510117   5.0063224
  61.4542160  22.7890282  71.7019424  62.2965508  22.6882935  72.1452866
  61.3728218  23.7311440  71.5535431  19.7071590  67.4248199  46.9951019
  20.2594833  68.1568222  47.2695847  19.9543800  67.2667236  46.0839958
  53.4586487  45.2977448  41.1236572  53.4432869  45.0635300  40.1956787
  52.5757179  45.0991364  41.4354515   6.3398032  45.5266266  81.8487473
   7.0918870  45.4536934  81.2611389   6.3793211  46.4245338  82.1780396
  37.4220695  65.8662567   2.2318482  36.9602318  65.0486603   2.0461645
  37.7662811  66.1449509   1.3832728  48.4750671  66.2275238  88.5104980
  48.2665443  67.0881195  88.8739777  48.9078331  66.4175339  87.6781311
   1.9153247  56.3110962  60.5206604   2.2827694  55.6364326  61.0916634
   2.1199625  57.1356277  60.9616852  57.9386482  66.2766266  78.5114136
  57.6699753  65.7586441  77.7526398  58.8373985  66.5409317  78.3148956
  49.0282249  58.1498680  46.3369827  49.5239182  58.9448280  46.1406326
  48.5481911  57.9616089  45.5305328   3.5666058  30.8264713  58.6074638
   2.8700626  30.2160282  58.3657646   4.1609745  30.8209019  57.8571815
  48.7451553  49.3288269  88.5176773  47.8611412  49.5137558  88.8347778
  49.3156853  49.5589523  89.2510071  62.6935883  56.5679932  58.0700417
  62.6984253  57.4701347  57.7501144  61.8687630  56.2041779  57.7482719
  23.9388409   3.4274139  70.7968216  23.1837425   3.4663737  70.2098465
  24.5200005   4.1215215  70.4858551  26.6803188   9.6785574  64.4351273
  26.1731834   8.8725395  64.5319824  27.5930271   9.3952160  64.4891052
  40.9872818   2.5284522  44.1878471  40.7209930   1.6114594  44.1211662
  40.4079742   2.9907408  43.5821037  47.3490219  40.0765495  66.0747299
  46.5940323  40.5916748  66.3591156  46.9927330  39.2053185  65.9008102
  24.2982521  68.4718094   2.9796855  23.3873882  68.6995316   2.7934027
  24.7312183  68.4988937   2.1264341   6.7088537  27.0428333  68.0636063
   6.5512447  26.4470272  68.7960052   7.5977573  27.3679562  68.2063522
  49.2402191  49.5038528  81.2659912  49.7265053  49.5804291  82.0868988
  49.8999176  49.6305618  80.5840988  35.5842476  42.3402863  12.6408577
  36.4522781  42.5518761  12.2973604  35.3785934  43.0630302  13.2337952
  84.4204178  21.7003021  71.8425140  84.0181732  21.9289665  71.0045700
  85.1145248  21.0819836  71.6141815  19.6089230   3.3092074  25.4482250
  20.4732609   2.9024105  25.5087910  19.0582523   2.7900000  26.0342426
  69.3379898  29.6604710  74.6338959  69.9990692  29.8844395  73.9788818
  69.2263184  30.4619045  75.1452332  63.9173126   1.9865875  69.6898651
  63.8370476   1.2372468  69.0997162  64.4050064   2.6376293  69.1853561
  73.0751343  42.6662445  53.5832596  72.5250549  43.4352684  53.4340935
  73.0533676  42.1914062  52.7524223  72.4733734  39.9354019   0.7222512
  72.0436630  40.6562920   1.1825745  73.0874481  40.3640785   0.1261096
  27.2880058   2.4074044  34.0349197  27.0529366   2.6705530  33.1451263
  27.6593723   3.1971974  34.4280396  22.0333290  21.7275963  60.9316750
  22.6127720  22.1619854  60.3057518  22.5039883  21.7713432  61.7640190
  11.6774387  43.7744713  28.4350491  10.7697906  43.4982834  28.3080635
  12.1861582  42.9670982  28.3603153  22.8188725  17.2334614  83.7397156
  22.2587147  17.8232422  84.2443085  23.7093315  17.5312729  83.9257889
  61.4519272  32.7636528  34.7349930  60.8288307  32.1315460  34.3766327
  62.2135353  32.2374878  34.9785843  59.4242401   4.3656759  69.3549957
  59.3163795   4.6417308  68.4448395  60.0291824   3.6251998  69.3106079
  79.6127625  59.8344994  46.8453941  79.3863297  59.8711891  45.9160843
  80.1960144  59.0792122  46.9201584  20.4747353   1.1763165  59.2707024
  20.1574898   1.4573762  58.4124527  20.6250095   0.2359125  59.1743164
  15.2354746  53.1300850   8.7506027  15.3082790  53.7631645   9.4648438
  14.3405609  52.7968330   8.8162203  31.2659931  34.4900360  76.0397873
  30.4782677  34.1382904  75.6250610  31.8923588  34.5851021  75.3222504
  76.5330353  54.8033905   2.0507467  76.5577545  55.7111473   2.3533998
  77.1111984  54.3344727   2.6524763  62.6883011  46.5073776  69.8740005
  63.6203156  46.6637001  69.7218704  62.3428688  46.2643471  69.0150223
  59.9665260   1.5401802   6.2874193  59.2557068   1.3741958   6.9066257
  60.7274094   1.1072898   6.6745849  79.1880569  17.1153526  79.7151337
  80.1022644  17.2734985  79.9506149  78.9913712  16.2540760  80.0835724
  48.2147560  70.5032043  46.6861649  47.8362579  70.8069916  45.8611298
  48.4314766  69.5846481  46.5264015  37.9639893  58.4520683  23.5776596
  38.7303162  58.6957703  23.0584469  37.3679810  59.1957588  23.4886093
  71.0179138  58.4271317  35.6376801  71.0119324  59.3820114  35.7039680
  71.1650772  58.1257248  36.5341911  68.5721283  23.6638832  68.2724457
  69.2665482  23.7869339  67.6252441  67.8090897  24.0975361  67.8904190
  64.2774582  71.1917191   9.2125340  64.0609512  72.0970917   8.9896765
  63.8088150  70.6667175   8.5637064  54.9802628  45.3866653  85.2051849
  55.2728119  46.2674637  85.4393616  55.7802048  44.8610001  85.2039795
  24.7088604  20.6068592  61.9038124  25.4656277  20.2665768  61.4265862
  24.3643703  19.8498917  62.3776855  84.2753067  70.5403061   1.7049756
  83.4557037  70.7375183   1.2515515  84.3946762  71.2704086   2.3123736
  59.0711708   5.4082360  66.8065720  58.3087959   5.8521571  66.4351501
  59.8136520   5.7502818  66.3086166  80.7656708  51.5915871  11.3173113
  80.7652740  52.5121460  11.0550117  80.9488144  51.6102676  12.2566423
  81.8248444   2.0565422  85.5911713  80.9911499   2.4260800  85.3002701
  81.5795517   1.3773385  86.2194595  37.8402481  51.5055084  37.4389381
  38.2215958  50.6502876  37.6374397  37.7387047  51.9264412  38.2925987
  56.9089546  44.1745758  73.6389923  56.9631805  43.2197266  73.5995789
  57.8200722  44.4645805  73.6836395  72.9053345  38.8097458  61.8151665
  73.1825027  39.7184982  61.9317017  73.1940308  38.3670692  62.6132431
   6.6057248  45.0441971   5.6152720   6.3975220  44.8460503   6.5283008
   5.8137617  44.8080101   5.1323199  64.4771576  19.5907707  25.2986145
  63.9245758  20.3206806  25.0191307  64.6076202  19.7343483  26.2359486
   7.3212538   3.6380429   3.2925324   6.7413044   2.9557791   2.9542913
   8.2028561   3.3253281   3.0895109  66.7450409  17.4938145  74.6128540
  67.0299225  17.5864792  73.7037430  66.6376724  18.3929749  74.9230347
  65.0345154   9.8841953  37.3663292  65.9790573   9.7753687  37.4769173
  64.6682281   9.0251408  37.5763092  80.3335648  60.5551262  57.6803436
  80.7487946  61.4118271  57.7797318  81.0384903  59.9274025  57.8393173
  19.5605412  27.1653805  19.5678329  20.0527058  27.7211857  20.1720562
  18.6948833  27.5711021  19.5203056  59.7860107  48.6088982  50.7806702
  59.8637924  47.6548691  50.7834663  58.9057732  48.7764511  50.4440155
  56.9952469  11.4149837  68.0072556  56.3835869  11.6798286  67.3202591
  56.7217102  10.5284405  68.2427368  57.6713524   5.2184625  83.1903152
  57.4294052   5.0898404  82.2731705  56.8609505   5.5004678  83.6145248
  72.6493378  66.3758163  78.8787308  73.2902527  66.3121414  79.5868301
  73.0269699  65.8594208  78.1667175  49.8777313   9.5980444  61.4916878
  49.4932747   9.8822145  60.6624260  49.5520439  10.2276726  62.1349030
  58.5018768  48.5842552  30.2060566  59.3504791  48.3149681  30.5576115
  58.7108955  49.2786980  29.5813217   3.9207013  23.7074108  50.5322418
   3.3110774  23.2545700  49.9495544   3.4466524  23.7867222  51.3600235
  64.1295166  49.1159706  43.2734146  64.1555328  48.3835220  42.6577225
  63.6162148  49.7878799  42.8247643  22.1624928  56.8106613  37.1002007
  23.0454769  56.6616173  37.4383659  22.1922855  56.4845963  36.2007408
  84.2640228  37.2192574  44.0986710  84.5535507  37.1270676  45.0063667
  84.9185486  37.7894020  43.6952324   2.1872079  39.4208031  79.2609253
   2.1461818  38.6926842  79.8809204   3.0693903  39.7766647  79.3674469
   1.2142054  58.2437897  76.9857330   1.1615309  58.5878410  76.0940628
   1.1040834  57.2983437  76.8845596  13.8537436  25.5150738  82.6512680
  14.6708784  25.6697540  82.1773453  13.1672611  25.7670059  82.0336075
   8.2717056  53.3055992  75.5268555   8.1894579  52.5278625  74.9749527
   8.1988983  54.0403519  74.9177017  41.6137428  31.7808743  77.4988785
  42.2048073  31.7185421  78.2492065  40.7923927  32.1061859  77.8673706
  80.0294189  42.3548317  10.0668859  80.4968109  43.1855354   9.9790840
  79.2693558  42.5638885  10.6098661  63.4068489  61.8135834  39.3081703
  62.6575546  61.2944374  39.0161514  63.0799332  62.3020935  40.0636253
  78.3253250  52.1223297  25.0329113  77.8195114  51.3118553  25.0922337
  79.2208710  51.8334503  24.8574524  75.4869308  62.0629082  83.1692734
  75.3693314  62.8252068  83.7361069  75.1308746  61.3317909  83.6741714
  84.2809372  23.2742596  43.5011520  84.6284485  22.4921684  43.0724335
  84.9229584  23.9578190  43.3093262  58.6215973  49.1718521  23.7702999
  58.3077049  48.9175606  24.6380787  58.0798492  48.6684036  23.1626167
  57.0690231  10.7352896  23.6188774  57.1233597  11.6321459  23.2888336
  56.2043877  10.6818876  24.0260487  10.2801151  26.2565136  14.7149553
   9.7287464  25.4771347  14.6457214  10.5806589  26.4175072  13.8205357
  64.2768402  23.4019794  60.0892525  64.5071411  24.2912216  60.3584061
  64.1079941  23.4722805  59.1496887  37.7588654  39.7722931  60.1907158
  38.6469994  39.4982948  59.9618568  37.8678665  40.6430664  60.5729485
  78.1875000  24.3648148  33.4635582  78.1446304  24.3390961  34.4194489
  79.0887451  24.6235771  33.2711029  62.2352600  46.0788078  67.3658981
  62.4553337  45.4757652  66.6558685  62.8657990  46.7935028  67.2772217
   9.6483641  49.1676407   4.3603878   9.3330650  48.4766502   4.9429283
  10.4657106  48.8231125   4.0005569  70.2572479  16.4844265  29.5181580
  69.8865967  15.6951733  29.9130402  69.5048904  16.9381676  29.1382828
  69.5924454  29.6556072  79.7765350  69.0799789  30.4436035  79.9572830
  69.7616196  29.6906414  78.8350525  16.3130512  29.7391224  76.9921265
  16.1015015  28.8488274  76.7113113  17.0879154  29.9736004  76.4814072
  50.7365761  27.9607410  63.1545334  50.0583572  27.6956863  62.5332489
  50.4404449  28.8088818  63.4849777  75.6357651   6.6393323  61.5663834
  76.1790619   7.2371860  62.0798416  75.6135712   5.8331900  62.0820122
  29.2422504  48.6103287  82.4253540  28.8493423  48.9237633  81.6107330
  29.8170605  49.3232574  82.7038498  84.1305313  16.8195744  48.4231644
  84.2001572  17.5194855  49.0723991  83.1897964  16.7228374  48.2752151
  59.9368515   0.2405867  67.8605652  59.9438210  -0.6394708  68.2369690
  60.4531860   0.7664372  68.4713898  85.4471283   4.7192903  37.6186981
  86.1752853   4.1980500  37.9568176  85.4813004   4.5918684  36.6706314
  21.6416759   0.8721066  44.8068924  22.4037037   0.3278022  45.0050812
  21.9269772   1.4289612  44.0824966  34.1536179  70.5789337  61.4338036
  34.1266174  69.9605255  62.1639252  33.8222122  70.0814590  60.6861916
  70.6880035   9.7253113  89.2444611  70.3607330  10.2117634  88.4878311
  70.2243347   8.8886127  89.2100906  44.0281639  59.9558067   8.0583458
  44.8099747  59.4340858   8.2394857  43.8241577  59.7712212   7.1415362
  11.3358517  63.2750244  13.7264881  11.9289770  63.8053131  13.1942968
  10.5245113  63.7819328  13.7581367  47.2316551  70.6540222  49.1682701
  47.3799782  70.8985443  48.2547913  46.9857407  71.4729462  49.5985298
  14.2725220  61.2642746   0.8409169  14.5630379  60.3530426   0.8795577
  13.8620949  61.4210777   1.6913246  21.7511616  67.8018723  59.1825943
  21.8697548  68.6645737  58.7852173  21.4012699  67.9857788  60.0543633
  20.4129372  62.9987297  38.3837662  20.7640781  62.2696457  38.8950119
  21.1328316  63.6279411  38.3381958  85.9562988  13.1271973  86.2268906
  85.4427109  13.1182270  87.0345917  86.8443527  13.3447924  86.5101471
  76.3127518  22.9990788  47.3069878  75.4082870  22.7245502  47.4580002
  76.2445908  23.7053471  46.6645164  74.3391647   8.8397598   4.3278346
  74.2924576   9.7193842   4.7024164  74.6477585   8.2890911   5.0473928
  52.6318817  44.3501244  47.6916771  52.7126083  43.7165451  48.4046211
  53.4030228  44.1961060  47.1459198  55.4015579  70.3862152  36.8947639
  55.0975800  70.3197327  35.9895554  54.9157600  71.1272964  37.2567406
  32.4601936  44.1847229  42.5940590  31.9219742  43.5556374  43.0744820
  32.6948128  43.7304497  41.7848511  68.7993088  60.4716187  62.6855621
  68.3680801  60.7168312  61.8669357  68.5237961  59.5680466  62.8400917
  26.1506882  55.2102814  70.4095840  26.8961868  55.7009087  70.0635452
  26.0759621  55.4982338  71.3193817  72.4159164   9.8053589  81.2218781
  71.6849747   9.4091311  80.7475815  72.7930756  10.4299021  80.6022568
  69.8899612  10.2195921  45.8820992  69.5140762  10.0986891  45.0101318
  70.1086578   9.3344364  46.1734772  83.9184647  39.8206482  61.6672211
  83.1588974  39.6234894  62.2153244  83.5623856  40.3284912  60.9381561
  20.6035194  49.6594696  11.7272758  20.8456326  48.7333946  11.7279625
  21.1246567  50.0438004  12.4322128   6.0765700  50.6723518  36.3164406
   6.1327453  50.3404198  35.4203949   5.3746824  51.3225403  36.2874374
  59.5405960  49.1862411  17.2475414  59.3945045  49.1078110  16.3048134
  60.2205658  48.5403442  17.4390907  13.7055197  27.2257996  73.7017365
  13.8745298  27.2736416  72.7607956  13.3945236  26.3317890  73.8440704
  74.2291565  11.4955978  44.7094574  73.5945282  11.5784330  43.9976883
  73.6946716  11.4385099  45.5014763  69.4887009   6.7020664  76.9285889
  69.6645737   6.6702590  75.9882202  68.7052765   6.1643400  77.0440521
  77.8217316  35.5986099  57.4567986  77.2880859  35.4574585  58.2388000
  77.5872803  34.8769035  56.8733597  39.4630356  50.2131691  19.3267479
  38.6568108  50.3492355  19.8244591  39.5018921  50.9571037  18.7256775
  72.8231735  41.7733879  50.9819069  72.3185577  41.5163956  50.2101936
  73.7353897  41.6283493  50.7307968  68.9563065  48.0201492  37.8181915
  68.2032013  47.4866638  38.0720673  68.8336105  48.1776085  36.8820381
  62.8273888  70.6843719  11.7283106  63.3060722  70.8501358  10.9161415
  63.4762383  70.2929382  12.3131266  58.1137199  37.6662674   2.8299446
  57.9712868  36.7612495   3.1072326  58.7658577  38.0048981   3.4433594
  36.1673737  46.6586380  63.1822929  36.0437889  45.7094917  63.1732864
  36.0988274  46.9003448  64.1059341  64.5547562  59.7235260  30.7304287
  65.2811356  59.1341782  30.9336052  64.0395050  59.7553635  31.5364857
  48.4110832   3.4752054  17.5032883  47.7054558   4.1092496  17.3755817
  49.1371689   3.8165343  16.9812469  22.3393402  19.5429058  15.8001289
  22.5496712  19.3089676  14.8961010  21.9584599  18.7469444  16.1710854
  12.6231871  60.5993347  56.9295807  12.8806238  60.3202934  56.0508919
  12.6914721  61.5538368  56.9073830  34.1896095  31.0526237   2.8232205
  34.8217506  31.7305641   2.5844171  34.6642265  30.2299519   2.7041507
   2.2417161   2.7335067  76.4545135   2.0035889   2.1317923  77.1598206
   3.0333610   2.3540461  76.0730133  69.0587540  52.1718407  41.6395226
  68.8853760  52.9797707  42.1226540  68.1962357  51.8787575  41.3455849
  22.6593208  39.9345169  18.3255978  22.9178295  39.8300209  19.2412872
  22.8592548  39.0897217  17.9223804  58.6656532  35.2708778  38.6422005
  59.1159477  34.4938660  38.9734344  58.5583572  35.8313560  39.4106941
  82.3481674  53.2539024   3.0916624  82.9279175  52.9821968   3.8032091
  81.4681473  53.0515022   3.4091921  61.2799416  62.2806549   3.2217293
  60.8607712  63.1264458   3.0630877  60.8749504  61.9600334   4.0275927
  77.9942780  31.2613602  22.9397678  77.4369125  31.4453602  22.1836491
  77.6353760  30.4555874  23.3114548  83.6932068  25.4654865   0.9198158
  83.7405548  26.4141655   1.0381387  83.5042801  25.1242294   1.7939336
  71.8798523  17.6533489  42.8048515  72.7115479  17.4016171  42.4034119
  71.6074600  18.4337921  42.3222122  65.2659683  55.5578270  25.8949718
  66.0645370  55.5137405  25.3690720  65.3243408  54.8045692  26.4827023
  70.5263214  64.3431549  27.1869469  69.6072235  64.5673294  27.0412388
  70.5411911  63.3861008  27.1941242  47.0454941  23.1092415   4.9909000
  46.7801819  23.5570393   5.7942171  47.0639839  23.7987709   4.3272448
  19.3852005  50.3082466  86.5631638  19.4004402  51.2240601  86.2851486
  19.0205822  49.8366318  85.8142548   5.0252662  38.1359062  11.6452436
   4.1354346  37.8396988  11.4536867   5.2135677  38.7835007  10.9659824
  24.3078690  69.3710861  41.0425224  23.7907181  68.6468430  40.6900139
  23.6575279  70.0091171  41.3361282  46.5341644  71.8852310  64.7030411
  47.3574333  71.6424103  65.1267166  46.3628464  71.1731644  64.0867233
  14.9090633  45.2794151  34.5210152  15.1031733  44.6558876  35.2208519
  15.7459612  45.7089462  34.3439903  68.2534561  36.4000435  65.2296219
  68.6427536  35.8156471  64.5791092  68.8331375  37.1616058  65.2447968
  49.9503746   5.7286105  37.1665001  49.3191109   5.3472004  37.7766304
  49.7753754   5.2886081  36.3346291   3.0972674  28.5206528  44.0596428
   3.9526854  28.1111431  43.9300499   3.2981155  29.3918114  44.4016571
  18.3476772  69.7499237  75.0870895  17.8637180  70.0113602  75.8704605
  17.6874180  69.7261200  74.3944702  78.8277817  70.6423798  12.9601622
  77.9508591  70.9819794  13.1388083  78.9431458  69.9327469  13.5921001
  42.7446175  12.4099922  43.5395737  42.2212868  11.8305101  42.9858971
  42.9625282  11.8777475  44.3047295  72.7778854  42.3663330  86.5500107
  73.6913147  42.1091881  86.6755066  72.7227554  42.6112862  85.6263275
  70.2555466  37.6505203  37.2372284  70.1375504  37.8555565  36.3097229
  70.9865341  37.0328026  37.2548599  15.7267809  44.6395454  80.0889511
  16.0773754  43.9095612  79.5786133  14.8695288  44.8136024  79.7002869
  53.4831238  61.8304062  46.2641983  52.7266464  61.2915001  46.0327835
  53.1066170  62.6048622  46.6821594  84.4169922  39.2645721  26.1075497
  83.6019287  39.6602516  26.4163265  84.4739685  38.4339600  26.5798512
   0.6250667  47.1377220  78.0502243  -0.0848341  47.4876060  77.5118408
   0.5505795  47.6085739  78.8802719  73.4066544   7.7655849  51.2526054
  74.2609177   7.3422132  51.3376198  72.7759399   7.0761671  51.4602852
  14.4800167   2.8450456  36.6200104  14.4045362   3.7991793  36.6327858
  15.2536278   2.6588387  37.1520653   2.7466018  17.3535461  24.1747112
   3.5567441  17.0349255  24.5726833   2.8830109  18.2957458  24.0752926
  70.1737289  13.0170746  18.2097721  69.9707794  13.8872633  18.5530186
  70.9868088  13.1367998  17.7190666  81.9399261  49.6552963  54.7072563
  80.9916077  49.7715721  54.6489067  82.2693863  49.9433784  53.8559647
  38.5013618   6.3965592  87.9296188  37.6715279   6.5566845  87.4802094
  39.1508102   6.8691554  87.4089432   4.0713339   7.8247290  56.9824028
   3.6355557   6.9995732  56.7692223   4.5831056   8.0341520  56.2010841
  33.7274055  64.6315842  76.3281937  34.6076126  64.9736099  76.1717148
  33.8705673  63.7479630  76.6672363   2.1317272  28.2915974  53.5214119
   2.4399946  28.8765202  52.8292618   2.5395584  27.4488735  53.3221092
  21.6176891  16.2030277  62.9054680  21.3255653  16.3692226  62.0092125
  20.8581600  16.4148865  63.4481125  83.7416000   3.0204144  24.9337654
  83.1569443   2.2736716  24.8042088  84.5070801   2.6516302  25.3745174
  14.6292372  56.7588272  82.7607956  14.4618254  57.3302956  83.5102158
  13.7825642  56.6876984  82.3199844  66.1784210  59.4874077  21.3024578
  66.9538345  59.6690063  20.7714310  65.8010330  60.3493996  21.4779072
  76.6255569   9.8922873  44.0875626  76.5980453   9.0313253  43.6701660
  75.7068176  10.1478643  44.1702042  50.6623116  15.8005276  10.7457857
  50.2126312  14.9664516  10.8812132  49.9935799  16.4636955  10.9167805
  85.3841248   9.9740391  37.5038338  85.5022354   9.8881664  36.5578384
  84.4928818  10.3083773  37.6045532   7.3339877  51.4463196  88.5117645
   7.6536388  51.8013115  87.6822815   8.0881815  50.9883194  88.8827820
  10.0899878  63.6645699   6.9966817   9.1647520  63.9017029   7.0594258
  10.4469795  63.8615074   7.8627090  20.7548695   9.4894981  60.9510269
  20.6579266   9.0203352  61.7797127  21.2884617   8.9091072  60.4082031
  59.9120865  41.7298203  70.3177338  60.5147934  42.4721718  70.2742081
  59.0872116  42.1085205  70.6217041  65.5556564  14.1110411  86.9986496
  65.3782654  15.0309896  87.1947632  64.8277283  13.6360102  87.3995285
  37.0260773  71.2890396   1.5074644  36.1427650  70.9409866   1.3856012
  37.5690536  70.7806702   0.9049914   8.5924101  69.8670883   2.6875129
   8.0864477  70.5111847   3.1828635   9.2741604  69.5796280   3.2948172
  68.4666138  53.2971115  48.9612579  67.7269821  53.8252716  49.2616196
  69.2302475  53.6942558  49.3800392  24.2481823  63.9607353  63.9704170
  23.4184856  63.5413017  64.1982574  24.3227386  64.6925430  64.5828934
  19.9364109   1.4058467   7.4378390  18.9965572   1.5189246   7.2959824
  20.0115623   1.1595777   8.3597584  41.0097427  54.0304337  80.0452957
  41.0036545  54.9850731  79.9755707  40.9549866  53.8585892  80.9853439
  59.0109673  17.1058693  72.7681656  59.0637321  17.9151917  73.2765427
  59.3447647  17.3441162  71.9032669  65.1354904  57.1381836  59.6949730
  65.2798386  56.8318329  58.7996826  64.2047272  56.9817543  59.8545036
  62.5530930   7.0396142  62.7276993  62.3259125   6.1643333  63.0415573
  61.8296547   7.2820458  62.1496849  54.9234047  66.1699295  46.6083832
  54.0133781  65.8731613  46.6113472  55.1700745  66.1768188  45.6835403
  73.8494034  28.7516994  37.4877396  73.3150024  28.4926586  38.2384415
  74.3119202  27.9524307  37.2357941  19.5174122  62.9297523  49.7840996
  19.5577641  63.0450096  50.7334785  19.5080032  63.8209038  49.4348259
  17.3407288  64.3283920  80.6693497  17.3836803  63.3737297  80.7242126
  17.8018818  64.6341705  81.4504242  48.3135719  36.1396561   9.8918247
  48.4519043  36.6177216   9.0741749  48.6806908  35.2712402   9.7265778
  26.4795723  28.2917213  66.9097061  26.0140171  28.6970901  66.1781540
  26.0976219  27.4169655  66.9814453  61.0118294  10.8810778  20.2803078
  60.7876167  11.2225294  21.1459713  60.4904900  10.0828209  20.1953068
  17.4128723   5.1558414  24.9898224  16.7053928   4.5771947  25.2742023
  18.1960449   4.6060019  25.0132256  68.7037125  51.5639877   7.0198503
  68.9831696  52.3347893   6.5258846  69.5049057  51.0548515   7.1427641
  47.7537918  48.6433563  55.4391975  48.5898819  49.1023560  55.3585548
  47.9239845  47.7713051  55.0831146  46.4462624  16.9066086  83.9412842
  47.0542946  17.3516636  84.5315857  45.5824394  17.2265072  84.2014923
  19.9643154  27.1094475  11.1569510  20.4511356  27.4959774  10.4290552
  20.4433842  27.3848228  11.9385481  18.0793114  45.3068428  81.5427551
  17.3094845  45.3654861  80.9769287  17.7257233  45.0977821  82.4073334
  52.7075539  67.7670593  44.2373047  53.2895126  67.8249741  43.4795456
  53.1543503  68.2660446  44.9211311  12.0207968   6.0956788  51.5673065
  11.3391218   5.4272852  51.6365891  12.3591700   6.0012913  50.6768990
  55.6680450  25.3305893   3.0855589  55.7383423  25.8747520   2.3012269
  55.1437302  25.8524971   3.6929603  46.0715485  69.8152924   9.2008600
  45.5640106  70.3516922   8.5918312  45.9392700  68.9173889   8.8967123
   1.3633022  49.7582893  23.0608597   1.5820538  49.0846367  23.7047329
   1.7117062  50.5681190  23.4337120   8.1004791  45.4973679  66.9936600
   8.0371275  46.0625572  67.7635803   7.2525377  45.5887184  66.5590515
  48.2665520  47.6232224  25.7622585  47.3813934  47.9564514  25.6149979
  48.2462692  47.2753220  26.6537666  68.6142273   4.2113042  59.3740501
  68.5351257   4.3020372  60.3236504  68.4234238   5.0851846  59.0332298
  80.4947052  21.5450668  34.4889679  79.8629837  22.2630749  34.4486351
  81.1593628  21.8453732  35.1088676  82.4250870  52.6421051  60.5911140
  81.6693192  52.4473267  61.1452942  82.4703979  51.9062729  59.9805946
  62.9690819  33.6532173  47.0487137  63.8676453  33.9570007  47.1772804
  62.5257454  34.3887596  46.6260338  55.5803795  64.5615311  14.8778934
  56.4469948  64.4807510  14.4795399  55.4157295  63.7036247  15.2691860
  24.8506699   9.1885958  74.3966064  25.2686558   9.5820208  75.1625977
  24.5833626   8.3177204  74.6904678  15.3281031  36.7245750   3.7702930
  14.7071085  36.4999466   4.4632149  16.1874752  36.5429535   4.1507220
  53.7959938  49.5016708  18.7012386  53.4267006  49.5255470  17.8184681
  53.0402603  49.3689766  19.2735043  37.4893723  44.0483475  72.5172272
  36.6903725  44.5264702  72.2953491  37.4235611  43.2302704  72.0246353
  80.0875397   0.7568996  11.4611340  79.5052185   0.8584309  10.7082586
  79.6845169   0.0636940  11.9838877  18.0016632  45.3667221   3.9753120
  18.3114338  46.2198563   4.2793479  17.8505154  44.8669662   4.7775784
  57.9876289  48.4796066  26.4855461  57.7256660  47.9138603  27.2118645
  58.9355278  48.5706367  26.5826836  62.4300079  37.4425201  43.1342545
  61.5420914  37.1949081  43.3921738  62.4179192  38.3995743  43.1225586
  24.3705368  51.7546768  71.0487823  23.5172062  52.1832886  70.9828110
  24.3775597  51.3685799  71.9246368  53.8861198  40.9659462   0.8348918
  53.8827209  41.5459785   0.0734590  53.6760597  40.1024818   0.4791638
  72.5444489  53.0482941  45.8320618  71.6138992  52.8249741  45.8113327
  72.9943771  52.2053490  45.7751541  21.4459496  42.5938034  63.9779854
  21.8686218  43.1024246  64.6699982  21.2967453  43.2249260  63.2739601
  75.7065582  37.6873093   3.8510020  74.9132385  37.6945114   4.3865571
  76.2019424  36.9316444   4.1669011  84.9732590  54.7811470  55.5722198
  84.7973480  53.8481789  55.4503403  85.0434113  54.8897514  56.5206490
  16.8556290  67.0224152  67.5525589  16.4060307  67.2276917  68.3722916
  16.1612587  67.0155945  66.8937531  52.1164703  42.6041489  74.0598068
  52.1165123  41.7764320  73.5790634  52.8710518  42.5410805  74.6453476
  81.3401642   2.8976333  38.4807129  81.0943298   3.7838967  38.2155075
  81.1057205   2.3497660  37.7316437  68.9944077  13.6630831  54.5300484
  68.1156235  13.7662621  54.8951874  68.8544083  13.2315903  53.6871681
  78.6652298  68.9630432  40.3752289  78.6471710  68.4648285  41.1923485
  79.4397278  69.5203171  40.4515533  12.3030577   5.4529715  28.1544304
  11.9333868   5.7752113  28.9764633  13.2424402   5.6192613  28.2327938
  11.4835224  67.1446762  17.5682163  11.9806108  66.4025040  17.9121780
  11.2180510  66.8691406  16.6908131  51.0612297  41.5809479  88.5676498
  50.5758018  41.1176262  89.2502365  51.1049118  42.4857330  88.8769913
  82.6585541  64.2047119  77.3361664  82.2968674  65.0276489  77.6650925
  81.9204025  63.5955124  77.3516464  57.5595589  43.8670158  59.2061577
  56.6629028  44.1594429  59.0426826  57.4678650  42.9538116  59.4779625
  45.0099602  47.5325584  77.3274078  44.9672966  48.4731407  77.1550140
  45.7032547  47.2142944  76.7492371  21.1995506  39.2624512  75.1930923
  20.4287853  39.7895851  74.9826584  20.8516598  38.3874016  75.3648148
  33.6975327  50.8178139   2.2348990  33.3017273  51.5308571   2.7360356
  33.6806602  50.0684929   2.8302686   5.1155586  24.7721596  58.0331535
   5.6401482  24.5674934  58.8072014   5.5855346  24.3585377  57.3090897
   3.8609340   7.3396668  36.6415138   4.7747593   7.4492145  36.3785400
   3.6328247   8.1670656  37.0653152  78.9359970  53.4355431   9.0682316
  79.1482162  54.1726303   9.6408548  79.7734833  53.1876411   8.6765852
   5.3060045   3.6036525  16.4294605   5.5394506   2.8746200  17.0041313
   4.7406421   3.2122128  15.7635994  72.6084442  33.8876610  63.2518005
  73.2685165  34.5460854  63.0349846  71.7816544  34.2726212  62.9611740
   1.1732693  50.3499260  62.5796127   2.0704412  50.6759682  62.6504021
   1.1412028  49.6047516  63.1795464  10.6303930  28.8338032  84.4811935
  11.4784060  28.6819096  84.8983688  10.4612894  28.0335312  83.9840012
  67.5051193  58.2508659  77.3783112  66.6572571  57.8424721  77.5531693
  67.5452576  58.3205185  76.4244919  64.6379089  10.6217422  70.5432053
  63.8022423  10.5298433  71.0008545  64.8230743   9.7458382  70.2044754
  33.6320190  45.7327385  39.3038025  34.5329628  45.4475441  39.4561157
  33.2869644  45.9135323  40.1781464  68.0335999  17.8905640  28.6539192
  67.8724670  18.6109219  28.0445328  67.6912766  17.1169205  28.2061253
  38.2840157  54.6467476  53.8209686  39.1134453  54.1918602  53.9671135
  38.0096207  54.3695755  52.9468307  71.9952011  32.5293388  50.3371201
  71.6670532  31.8073921  49.8010750  72.8034897  32.8019447  49.9028549
  81.4764862  13.1309471  80.7162170  80.5394440  13.2560101  80.5660629
  81.5221710  12.4731798  81.4101105  23.9961948  45.8376808  81.1541138
  24.8783493  46.0965195  81.4206390  23.4918098  46.6509781  81.1735153
  27.5662651  29.8009892  10.9199715  27.7365570  30.4956837  11.5560780
  27.6260967  30.2353973  10.0691233  65.0220566  26.6913433  73.9996033
  65.9507828  26.8701649  74.1469803  64.6229706  27.5566463  73.9089966
  81.4378815   5.6760492  46.2987137  81.8445053   5.0238400  46.8692474
  82.1744385   6.1111441  45.8692970  76.7189713  52.1786537  56.7610779
  76.3031158  52.8972015  57.2375107  76.6152344  51.4193153  57.3345604
  60.9648247  53.5824661  71.9862518  60.7463684  52.6683121  71.8050537
  60.5146904  53.7779274  72.8080826  21.7462502  62.1131477  22.1880970
  21.3235264  62.5444489  22.9307365  22.0841732  62.8321457  21.6541672
  17.5055180  50.6425743  57.6130562  17.4079800  51.5778847  57.7916985
  17.6525116  50.2485542  58.4729233  69.0153503  50.5534973  49.0312538
  69.1833038  50.1496887  48.1798058  68.9815598  51.4924850  48.8485222
  28.6156902  37.0786438  74.2455521  28.2072430  37.5235519  73.5029449
  28.7936249  36.1939430  73.9263763   4.9609523  47.7092705  24.6636600
   4.8971353  48.4950218  25.2065735   4.1472754  47.2344131  24.8329906
  65.1995239  66.9805069  36.4791908  65.4845734  66.0808563  36.6392288
  64.2516632  66.9144058  36.3633385  11.1272058  53.2377052  80.5859146
  11.8479424  52.7401733  80.1996078  11.1586590  54.0865974  80.1447601
  57.5712090  47.6033821  38.1425133  57.4731636  46.6525459  38.0922279
  57.3064613  47.8245773  39.0353775  30.9324398  69.1465073  19.9374847
  31.2597656  68.2885132  19.6674118  30.4374218  68.9728394  20.7381268
  17.8208771  63.6988258  58.4950409  18.6370564  63.9451141  58.9302711
  17.3164673  64.5113220  58.4544144  15.4449987  57.0578804  62.7506447
  15.9481268  56.7043457  62.0170860  15.9724617  56.8543549  63.5230370
  58.4469185  27.2549973  44.1917381  57.5621605  26.9749126  43.9572487
  58.4196854  27.3637009  45.1423531  66.8442230  37.7408676  53.5153389
  67.6942825  37.4719048  53.8636131  66.5577164  36.9986267  52.9831543
  30.6115093   5.3778110  38.0563698  30.8227654   5.2297101  37.1345940
  31.2065887   4.8001332  38.5342827  62.3018036  38.7758865   5.0687566
  63.1206055  38.2901154   4.9696498  62.5768318  39.6702805   5.2703815
  72.6869659  26.8120098  65.8310013  72.9490891  27.2442532  66.6438293
  72.7218170  25.8773880  66.0347214  57.2907867  52.9273643  39.1150208
  56.6455078  52.2346916  38.9734039  56.7879829  53.6498566  39.4910851
  77.3373642  17.6710663  82.4769211  76.9427185  17.0525036  83.0916290
  77.2998886  18.5142727  82.9283981  55.3318901   4.8351297  73.3811951
  55.8385201   4.0363002  73.2348022  54.5101738   4.5304384  73.7661285
   2.7555990  24.6614285  69.5793686   2.7146752  25.5810585  69.3169937
   2.8206336  24.6873875  70.5340042  46.3162193  16.9216766  61.3129425
  45.4689903  17.2930107  61.5590057  46.7211914  17.5925255  60.7632256
  82.8862915  70.7114716  31.8559341  82.6397095  71.6234283  32.0101013
  82.0528107  70.2519455  31.7540340  60.3505325  17.0628815  46.4205246
  60.2886429  16.1497784  46.1400833  60.0044250  17.5641823  45.6821899
  19.4405479  53.7527733   7.9219441  18.5435028  53.4823189   7.7259841
  19.7620602  54.1280441   7.1021676  38.5770340  60.7950516  82.6299744
  37.7199211  60.6609383  83.0344543  38.8789558  61.6329155  82.9807739
   3.4264266  19.5023899  73.5548935   3.6969705  20.2213783  72.9838486
   2.9757411  18.8907070  72.9726944  24.6805954  56.9934464  23.1340485
  24.8664246  57.8233566  22.6947937  24.7011509  56.3417053  22.4333038
  57.2609558  65.4832001   8.1356239  56.6548691  64.7434540   8.1764479
  58.1147118  65.0843430   7.9675527  85.0477066  34.0210686   2.5218079
  85.1835251  34.1627159   3.4586756  85.4582977  34.7776451   2.1031876
  66.8780594  44.4233894  35.7132721  66.9035339  45.3591461  35.5134315
  66.0489273  44.2996254  36.1752739  48.8966255  16.8524799  19.3190403
  48.0955849  16.4045868  19.0470943  49.1380959  16.4315338  20.1441021
   9.2533617  47.1734238  52.9758492   9.9566965  46.7274208  52.5040054
   9.4373245  47.0007248  53.8991928  20.6266441   3.5005090  17.7543869
  19.6812248   3.4720979  17.6073933  20.9258938   4.2529159  17.2439308
  44.2155952   0.5502372  87.7904739  43.9760704  -0.2202771  88.3054199
  43.8265076   1.2853522  88.2642365  33.0420990  55.7670746  85.3376617
  32.6469727  55.9555817  84.4864502  32.5773926  54.9910660  85.6508560
  30.8090572  40.4573326  59.0340042  30.5994663  41.1532288  59.6569252
  30.1558475  40.5517273  58.3407249  62.2306137  44.0747070   0.4823925
  62.1240349  43.4809837   1.2256055  61.4837761  43.8843346  -0.0852571
  76.7349930  21.5859070  77.5458527  76.7979813  21.2234974  78.4295578
  75.7973709  21.7211018  77.4086914  26.9272614  60.9095268  39.8823662
  27.2784023  61.1203957  39.0172272  27.6970482  60.8684464  40.4497948
  56.0609741   9.5547981  29.4304581  55.4599724   9.6608801  28.6930466
  56.2162704  10.4461031  29.7430115  69.4305496  13.3933058  88.2843628
  68.6490784  12.9016771  88.5370102  69.2065353  13.7809429  87.4383240
  33.0164642  33.0191078  68.3904419  33.3925858  33.7263107  68.9144897
  32.8653603  32.3111916  69.0167389  82.2890930  16.9824429  44.4442368
  82.4156647  16.5892334  43.5807571  81.5644684  16.4888363  44.8283005
  79.9096909  19.8025894  24.4909859  80.0100403  18.8958836  24.2010765
  80.7648621  20.2014599  24.3303070  54.8825111  53.6081085   0.2948185
  54.3564758  54.3825569   0.4941813  54.8244362  53.0694885   1.0839611
  29.5642090  60.9939499  77.0592499  29.7935352  60.8670769  76.1386261
  30.3969879  61.1894302  77.4887772   3.2475803  35.4371834  54.0123978
   3.1362147  36.0273705  54.7577209   4.1491542  35.5816422  53.7251205
   4.3398738   7.1323037  25.0275440   5.2012291   7.1457548  25.4448185
   4.3557835   7.8729591  24.4214020   8.3262558  13.4879856  73.2840042
   8.0511189  13.1820641  74.1482697   7.7879205  14.2626047  73.1215515
  11.8326416  56.1680031  32.1701317  11.6147671  56.1298065  33.1014214
  12.5668001  55.5618782  32.0708504  58.3784027  38.4049034  52.1001167
  58.3388176  37.5169868  51.7447701  57.5114632  38.5501175  52.4790077
  79.0293961  63.2610435   3.7394979  79.2234116  64.1201096   3.3645344
  79.4934845  62.6429214   3.1748929  78.2706146  56.4590721  23.5912533
  78.3016891  56.3047066  24.5354118  78.6648026  55.6758041  23.2073994
  24.2931519   0.0528433  67.1126633  24.3839874   0.8937723  66.6645279
  24.8166237   0.1477210  67.9084015  81.2580261  23.2080746  67.8985291
  81.2358017  23.9467373  67.2901535  80.4513397  23.2921200  68.4068832
  34.4340134  14.8996925  72.7314835  34.1641426  15.6851892  73.2072906
  35.3772812  14.8401604  72.8829422  69.6414108  49.2488632  69.2419968
  69.9189301  49.2679443  68.3261108  70.4483566  49.0959625  69.7336349
  17.1989822  55.2625542  22.3136864  17.9089756  55.6321487  21.7887688
  17.1167221  55.8581123  23.0585175  31.3532085  45.8905716  13.1973028
  30.3993416  45.9226990  13.2703581  31.5342216  46.1697807  12.2998009
  65.4262772  35.9137802  64.9357986  65.2481842  35.6892471  65.8490906
  66.3776398  36.0107956  64.8941422  14.3519821   2.1774595  66.1183167
  13.9393177   2.3869572  66.9561996  13.7104626   1.6299478  65.6656418
   6.2727633  48.7074623  72.7468414   5.7300377  49.3422966  73.2144547
   5.6463680  48.0955315  72.3603134  71.2685242  51.6380692  25.1783218
  71.3850861  51.8986397  24.2646770  70.4674911  51.1140747  25.1776142
  81.9862747  68.7239838  88.7529678  82.8519592  68.3557587  88.5762253
  81.7452469  68.3692093  89.6086960  31.4492435  50.9047813  16.9224854
  30.7897358  50.9661179  16.2314568  31.8586102  51.7698441  16.9403439
   5.7784672  38.9515343  55.0280075   5.3660026  39.3356934  55.8016510
   5.8449249  38.0183563  55.2304802  73.2669220  38.8341675  33.6422272
  73.1466904  39.4964561  32.9616737  73.8297043  38.1741600  33.2373810
  75.4641495  53.5633278  10.1158504  75.9134750  52.7227402  10.2038651
  75.9783325  54.1670494  10.6519117   3.1771863  57.2604218   9.2314911
   2.5124137  57.0256882   8.5840273   3.4232585  56.4279175   9.6347513
  34.2597427  17.6048851  86.1980362  33.6818810  17.6507339  85.4363174
  34.0570679  18.3941288  86.7002792  64.1693649  33.2759666  52.4742012
  63.2430077  33.4782295  52.6052589  64.2596970  33.1697998  51.5272064
  11.6648779  45.0771141  69.6950302  12.0917015  45.7834282  70.1799850
  12.3763733  44.6502914  69.2177124  61.7673035  67.0013504  70.6998749
  62.2918129  67.6688995  70.2577209  60.8793602  67.1363602  70.3688812
  74.0593033   0.4880348  40.4429398  73.6994095  -0.0444998  39.7336349
  74.7799454   0.9707486  40.0380974  77.2505188  28.5062351  86.0011368
  77.3648758  27.7709694  85.3990250  76.5078125  28.9940128  85.6451874
  81.0547180   4.5488338  35.4871445  80.6475754   4.7099714  36.3383179
  81.8757553   5.0399690  35.5175476  55.6493225   9.5966873  88.0516815
  55.6474190   8.7244091  88.4458389  54.9036751  10.0426550  88.4533691
  57.6016273  53.6058083  17.1473503  57.3814774  52.7717133  16.7325592
  58.4992867  53.7834206  16.8664665  38.5860786   9.0400896  77.1863174
  38.4424324   8.4366951  76.4572678  38.2626266   8.5691261  77.9543076
  61.3434334  71.7788849  38.5268555  62.1043015  71.8454590  39.1038132
  61.6033745  71.1432648  37.8600388  55.1976280   7.3975506  23.0685158
  56.1256180   7.6285200  23.0270596  55.1890335   6.4983606  23.3965645
  45.2136192  60.8924980  25.8652859  45.9069366  60.6652031  26.4848633
  44.4263954  60.4852829  26.2267876  15.8678675  11.6399317  81.0157700
  15.9659653  12.5920563  81.0075531  15.3704576  11.4572716  81.8129196
  65.1360626  52.6482544  41.7803116  64.1804581  52.6772194  41.7332954
  65.4264908  53.3281364  41.1723328  59.1173630  10.7027969  29.4965973
  58.3929329  11.0829954  28.9997234  59.8843536  10.8321409  28.9387207
  18.3415680  64.8069611  39.1256714  17.7978363  64.3534546  39.7698135
  18.7994843  64.1055450  38.6624641  47.4770737   7.1725311   5.5947590
  47.1341515   8.0602293   5.6978478  46.6988068   6.6155143   5.5784297
  84.4400558  53.4233971  16.0191326  84.7053528  53.0086441  15.1982594
  83.4837494  53.4396820  15.9811296  38.2827682  49.8250999  44.9618874
  39.2056465  49.8784180  45.2102470  37.9594231  49.0425415  45.4082985
  28.9861412  63.0018463  69.4095306  28.4677906  63.0574341  68.6067505
  29.0222511  63.9016151  69.7341003  59.7840385  46.7545204  36.6024551
  59.2158699  46.4986839  35.8758469  59.1949730  47.1697350  37.2323990
  22.9780121  40.6124229  59.5970497  23.6820679  41.0135498  59.0875053
  22.9556866  39.7027512  59.3000107  66.2738495  45.8335381  13.1411390
  66.0193710  45.8666573  14.0632982  67.1921997  46.1034355  13.1362543
  19.6495934  52.8182068  21.6902409  19.8743973  53.7484818  21.7069988
  18.8489323  52.7746620  21.1674805   0.2776373  17.7088852   6.7167559
   1.1949203  17.4963379   6.8889389  -0.1523702  16.8585033   6.6263328
  67.3254242  18.8802414  57.4369049  66.6327515  19.0870056  56.8094673
  67.0464783  19.3024712  58.2493935  64.1595764  57.7155991  77.9541245
  63.8802032  57.9168816  78.8472443  63.8742447  58.4696960  77.4382248
  84.2468414   6.4590869  85.3536148  84.8576126   7.1960754  85.3471451
  83.7957840   6.5292029  86.1949615   0.6770627  36.9259796  20.8562546
   1.1737250  37.5873108  21.3381290   1.3145047  36.5368538  20.2575226
  41.6079216  48.0157890  43.8505135  41.9883118  48.0178452  44.7288818
  41.1242981  48.8400917  43.7970161  54.0362740   9.7304535  27.5517750
  53.4111290   9.5540028  26.8487167  53.6027718  10.3853588  28.0989590
  15.8946342  62.8219490  49.6297035  15.1338491  63.3916473  49.5162086
  16.4550877  63.2910957  50.2477875  47.3947144  57.1106262  48.3132477
  46.7601280  56.9576645  47.6131516  48.1629333  57.4664497  47.8666382
  72.8367996  25.9475727  33.8798714  73.3070297  26.5258598  34.4804535
  73.5212860  25.4143772  33.4756203  47.7445946   0.3681147  51.6954422
  48.6799507   0.1918318  51.5941162  47.5376587   0.0629197  52.5787659
  62.0365410  17.8026199   5.5659685  62.0677490  18.5774479   5.0048089
  61.2451515  17.3395748   5.2911482  55.3189468   5.7088819  42.3358078
  55.6415939   5.5072107  41.4574814  54.5015526   5.2162952  42.4096642
  53.6834641  64.8624649  83.2073364  54.1884117  64.0820694  83.4359055
  53.6200562  64.8355865  82.2526169  36.2398300  42.4659691  32.1180305
  35.5556717  42.1411133  31.5326900  36.7604027  41.6914711  32.3310814
  76.6012039  51.9637070  28.9069786  76.8137207  51.0337372  28.8280582
  75.7700119  52.0597382  28.4420872  53.5715637  49.1966286  46.8114929
  52.8593903  49.0884171  47.4418335  53.1426544  49.5178146  46.0183296
  85.4062042   7.5637660  65.2311172  85.9531403   8.2529001  64.8540421
  85.8532715   7.3197131  66.0415497  74.6085663  47.1005669   2.7996423
  74.2155838  47.8447456   3.2557113  74.4506378  46.3545303   3.3781962
  82.3310089  67.4849319  32.6509857  83.2517090  67.6038208  32.8842316
  82.1937943  66.5385132  32.6920738  11.5747204  37.3930283  35.6550217
  11.5933266  36.4577293  35.8577690  11.1552687  37.4436150  34.7961082
  16.4232445  38.4972038  42.6328392  16.5510750  39.1978111  43.2724037
  16.9471798  38.7639313  41.8774719  35.5623436  35.0738449   0.1822530
  35.7239723  34.2938919  -0.3485745  35.1026840  34.7463646   0.9553636
  54.5384064  60.3977013  15.2460184  53.7113876  60.1479645  15.6582088
  55.1929398  59.8382034  15.6640825  62.9176216  63.1095772  51.6729851
  63.1117783  62.2231369  51.3684196  62.5489731  62.9868965  52.5477867
  39.0173836  47.7606316  13.0652990  38.7256470  47.0181885  12.5362444
  38.6385574  48.5261650  12.6332340  61.6517067  20.4931660  67.1269226
  62.1849174  20.9806900  66.4990463  61.6042175  19.6084023  66.7647476
  41.9070168  59.6233482  79.6463547  41.8092194  59.9564896  80.5383682
  42.8425026  59.7057533  79.4611282  18.7431889  42.3208351  58.2754822
  18.1604710  41.5712318  58.1539688  19.3810291  42.0255165  58.9252357
  64.8186340  51.6804390  50.3395271  63.8996315  51.4144859  50.3700256
  65.2773590  51.0163612  50.8541145  73.6676025  61.9640198  38.2909622
  73.4259949  61.8835487  39.2136650  73.4735794  62.8752136  38.0711555
  14.9353361  49.6057243  26.0088997  14.0736742  49.2218857  26.1714993
  15.3189316  49.7107201  26.8795662  62.9381142   7.6360412  30.9493008
  62.4152756   7.9649487  30.2180748  63.7973824   8.0407248  30.8304672
   2.3807988  48.6543617  25.8742447   2.8299563  48.8165665  26.7038097
   1.6164554  48.1304817  26.1141586   5.6452932  68.0477676  49.5304565
   5.3794608  68.9383316  49.3014221   6.3761730  67.8572769  48.9424438
  18.2126541  49.3642960  70.4598541  17.2855644  49.2618561  70.2448120
  18.2263737  50.0254936  71.1518478  54.4445381  56.3361588  62.4012642
  53.6591721  55.7892799  62.4201813  55.1135445  55.8097649  62.8389473
  51.2144089  34.2652283  64.3876572  51.1440392  34.5105705  65.3102036
  50.3105583  34.2558403  64.0727081  86.5320740  17.7461109  47.0150986
  86.5002441  18.6996307  46.9374924  85.9005890  17.5407047  47.7044945
  58.8300819  59.6638641   4.6537433  58.9125938  59.2471352   3.7959788
  58.0015602  60.1411705   4.6094313  17.9452591  26.0158329   8.0926037
  17.8522186  25.1061916   7.8095365  17.8631916  25.9797039   9.0455942
  41.7252502  31.9183846  22.0685997  40.8659554  31.6403656  22.3856926
  42.3225021  31.2295113  22.3601093  29.5243111  59.1576843   4.1276927
  30.3660259  59.6128883   4.1044230  28.8725224  59.8585434   4.1136580
  66.9212494   8.2073708   9.4007874  66.8186646   8.2128382   8.4491167
  66.0931473   7.8569551   9.7289429  78.2649384  61.3285294  22.5687027
  77.8769836  61.6251984  23.3919353  78.9328384  61.9843559  22.3686256
  36.9864388  64.1027451  39.5500526  36.0546875  64.0897293  39.3311729
  37.1687508  63.2206154  39.8738403  86.3265228  40.3267555  29.1799164
  87.0501099  39.8623314  29.6005821  85.5623932  39.7720604  29.3369102
  84.3233948  62.0204239  64.2229919  83.5701599  62.0917931  64.8093185
  84.3764877  62.8755150  63.7961044  60.4177399  14.6317797  73.4460526
  59.8630943  15.3793364  73.6691055  61.2194595  15.0233593  73.0994339
  36.7686501  55.3632927  70.2822571  36.1750145  55.0823975  69.5858917
  36.5350189  54.8154755  71.0316238  86.4904861   5.2946281   9.2850218
  86.0732498   5.6237669  10.0811443  86.1450653   4.4078164   9.1826506
   8.0353184  12.6337786  50.6102867   7.7193437  11.8755617  50.1188622
   8.3868446  13.2225208  49.9424210  51.9054794  63.7490921  59.9510269
  51.8832016  63.7891655  58.9949265  52.5644836  63.0832672  60.1475525
  20.1354198  66.3858261   0.2379215  19.9036713  65.5584869   0.6598589
  20.5869083  66.1267929  -0.5653777  60.8641968  70.0006180  30.5956917
  60.9221992  70.8569031  31.0195389  61.3486977  70.1053772  29.7768421
  19.1498413  19.6203384  64.2229004  19.0254650  20.0552025  63.3792992
  18.9854336  18.6949062  64.0418549  15.5810909  19.0895615   8.0640125
  14.7002172  19.3019409   7.7554860  15.4566469  18.8126926   8.9718065
  32.0463867   6.0091586  84.8259888  32.5871086   6.4567933  85.4767380
  31.5682049   5.3476920  85.3260193  42.5971260  45.6144981  19.3422604
  43.2817001  46.2832985  19.3593941  42.9863701  44.8856583  18.8590279
  54.3095932  31.6175117   0.1014354  53.7709579  31.5106049   0.8854480
  54.8959465  30.8609600   0.1086896   6.6073194   4.0966501  79.1420059
   5.6668963   3.9902527  79.2852325   6.8554959   4.8247333  79.7116852
  51.7275734   5.4286046  19.7438087  51.2490616   6.0286002  20.3158779
  51.2734604   4.5916128  19.8410549  85.0528030   4.4638996  41.0882339
  84.5276031   3.8290274  40.6010666  85.9588242   4.2071552  40.9166679
  19.6415558  60.1832657  85.3429642  19.3037071  59.5107765  85.9344406
  19.6177349  60.9894867  85.8583908  34.5937462  71.1241150  34.2942352
  34.6403503  71.9711151  34.7376900  33.6801033  70.8545456  34.3881454
  46.8310661   3.9664829  28.7874317  47.5579071   3.3604650  28.9312229
  46.3438072   3.9558566  29.6112614  33.5826721  50.9960823  25.6861172
  34.0423241  51.4581261  26.3871632  34.0863571  51.1959915  24.8970871
  62.6979256  39.1086121  55.4206467  63.2348061  39.2155724  54.6354408
  62.2141571  38.2962952  55.2711945  78.1650848  42.4388466  53.0860596
  77.6851273  41.6202660  52.9603767  78.3635254  42.7387657  52.1989861
  55.0340195  49.3577576  87.5948105  55.4192963  48.9774551  86.8054047
  55.7859802  49.6134033  88.1290741  36.3648911  55.7464447   0.3741730
  36.1074791  55.8827324  -0.5376368  35.5445366  55.5545387   0.8285152
   9.7600737   2.3304322  51.2172508   9.5770340   1.5018288  50.7743683
   9.7290859   2.9862556  50.5207138  74.7409897  24.9779396  82.8009567
  74.0860214  25.1713371  82.1302414  74.7444687  24.0228233  82.8639679
  52.9893646  24.8683834  15.0748816  52.3956108  24.4132080  15.6719608
  52.5473671  24.8357182  14.2264709  31.9150238  48.1900406  14.3334846
  32.3116226  48.0272064  15.1893044  31.7745895  47.3179474  13.9647512
   9.3373079  44.3700104  30.9299335   9.6904364  43.8691864  31.6652622
  10.0463896  44.9630966  30.6815758  39.6569252   4.9457884   0.8906831
  39.0031776   5.4620867   0.4192185  39.6686363   5.3207293   1.7713158
  47.6838646  69.7215500  33.0248985  46.7846222  69.6783142  33.3500557
  47.6731300  69.2019958  32.2210464  26.2671204  52.5306892  26.9897976
  25.6960335  51.8380356  26.6576443  26.0575066  53.2931595  26.4504128
  62.0057030  36.0634880  37.0403519  61.7342300  36.5799141  36.2815132
  62.7529640  36.5412636  37.4002914  30.5000477  23.5477943  75.3905945
  29.6530552  23.8287182  75.7368851  30.5582390  23.9660530  74.5315781
  64.4648514  63.3963852  45.0946274  65.2524033  63.9239388  44.9616432
  64.6943893  62.7984619  45.8059883  80.8496094   8.7657318   9.3658276
  80.5111008   9.1383390   8.5516968  80.6247482   7.8366694   9.3157177
  56.5537262  27.0229683  62.1209297  55.6920853  26.6061172  62.1141739
  57.1697464  26.3017025  61.9923897   8.7281837  58.5915565  12.6435318
   7.9822960  58.4997063  12.0507021   8.9390392  59.5249557  12.6203423
  64.2012939  65.6729965  75.7657928  63.8894920  66.5649109  75.9191208
  64.8882294  65.5436783  76.4197235  66.4872284  15.0974798  55.0393753
  65.9457932  15.4732704  55.7335434  66.3335876  15.6634598  54.2828751
  10.6554747  43.5686188  33.2434731  11.5168533  43.4104767  32.8571434
  10.5591459  42.8818512  33.9032478  25.5209370  58.1372948  56.6321678
  25.2953472  57.3809662  56.0905876  24.6786613  58.4685059  56.9437790
  81.6410522   6.4523330  58.1386948  81.1539078   7.1080647  58.6376305
  82.5280838   6.4894314  58.4965019   2.7734852  62.7680969  64.2908478
   2.0771413  62.7039070  64.9444656   3.5835242  62.7044945  64.7968369
  84.0435410  27.2503204  49.0675583  84.1171722  26.7737541  48.2406998
  83.2987823  27.8379097  48.9398384  12.5428419  15.7292995  16.4240837
  13.1395540  15.6389017  17.1670494  12.1904554  14.8492632  16.2914524
  18.2870140   5.3488345  66.0732346  17.4272461   4.9283657  66.0887146
  18.8754425   4.6781225  65.7266388  80.6479340  50.2579422  77.6582870
  80.0404892  49.6201630  77.2834778  80.7481689  49.9858513  78.5705109
  35.4633789  68.4638824  17.1888161  35.3847275  69.3458099  16.8251591
  36.0293274  67.9999771  16.5717869  80.8356781  19.3373814  49.3025208
  81.0764084  19.0522518  48.4210587  79.8785477  19.3482552  49.2976990
  12.1998310  61.8051872   5.5745811  11.5786257  62.3742447   6.0290155
  11.8676376  61.7554588   4.6782517  85.1991882  14.2203016   1.6910508
  85.4626389  13.6646633   2.4245975  86.0128860  14.6288576   1.3957429
  16.2657204  51.7386856  30.1020393  16.6422653  51.5716324  30.9660645
  15.4651861  52.2320099  30.2809563  24.6497173  36.0112801   8.7875786
  25.4063435  36.4741325   9.1474676  24.3391914  35.4631958   9.5082779
  32.5187073  29.7920971   0.3055994  32.4420204  29.5124149   1.2178105
  32.4107704  30.7426853   0.3366504  56.9605331  54.4629974  80.6475601
  57.5906792  53.8048363  80.3543549  57.0364189  55.1696358  80.0063629
  63.6760139  17.6018600  33.3106384  63.5813599  18.5511703  33.3886414
  64.3612900  17.4827175  32.6530457  60.2425537  38.4199181  61.4412460
  60.3802185  39.3444939  61.6472397  60.2401352  38.3854408  60.4846687
  51.3400688  69.8432693  36.4336319  52.1109314  69.2767487  36.4010658
  50.9615021  69.7832565  35.5565224  73.2386780  40.7150269  82.1463928
  72.9733658  41.5687599  82.4884186  73.4910202  40.2141495  82.9220734
  68.6906204  10.8062010  15.8243780  68.8764114  10.0900946  16.4317551
  68.7891159  10.4154787  14.9561224  66.0965958  15.9615088  44.1375885
  66.2369766  15.6005802  43.2622261  66.0743713  15.1958561  44.7116203
  57.0469894   8.2761354  86.1951904  56.6770287   8.9051456  86.8146286
  56.4415550   8.2856293  85.4538498  48.0425491  66.9330978  10.2770710
  47.3170090  66.8804245   9.6549406  47.7449722  67.5563126  10.9398575
  45.1164703  68.9662552  33.8761520  45.8115959  68.3220673  33.7417755
  44.3784981  68.6321945  33.3662148  75.1225433  29.8369083  84.9839478
  74.5040665  30.5257759  84.7406769  74.5912018  29.1918869  85.4506989
  39.1458244  41.5624542  51.8173218  38.5254211  41.9839172  52.4120483
  39.7464943  42.2626991  51.5621986  17.3576527  67.3415985  89.2472916
  17.0711613  67.4194031  88.3372955  18.1773415  66.8496399  89.1991043
   1.9403279  56.0774384  79.8884506   1.6266485  55.5853348  80.6471786
   1.1968799  56.0877495  79.2856140   4.8078637  11.3828812  52.9963608
   3.8959711  11.3360424  52.7091484   4.8947048  10.6746273  53.6343765
  12.2088461  39.2400970  72.4640198  11.5890398  39.4547539  73.1611557
  12.7809830  38.5758858  72.8483582  14.5212650  41.0355453  34.7641182
  13.7648001  41.1031113  34.1815147  14.3688507  40.2326088  35.2624092
  46.0973434   8.2436962  83.8541489  45.6588631   8.5322628  83.0537186
  46.7976379   8.8825235  83.9872513  76.9720993  35.7735291   5.0910864
  77.6125870  35.1771851   4.7032952  76.4295731  35.2139473   5.6467557
  16.6907520  51.9701691   1.6245028  15.7474966  52.1281776   1.5853477
  17.0327244  52.6915512   2.1526101   2.4644828  55.1339798  45.8880043
   2.2310119  54.3853607  45.3391037   2.2507987  54.8542213  46.7781181
  62.0388336  57.6248970  60.9786568  62.2521896  56.7368851  61.2652740
  61.2201347  57.5292931  60.4920082  33.9126320  50.1056786  10.8664532
  33.8666382  50.3235550  11.7973919  33.1785355  50.5777626  10.4734287
   4.2368193  26.9514828  24.2361336   4.6054478  27.6859741  23.7453537
   3.6905298  27.3615704  24.9066772  72.6482086  13.4124327  16.2851849
  72.4399033  13.3000479  15.3577099  73.0982742  14.2560854  16.3290615
  17.1850891  55.8184433  65.5335007  16.4026928  55.2893944  65.3779526
  17.9025154  55.2964172  65.1743088  83.6290436  41.0896645  65.1128006
  83.9095764  41.2594604  66.0120773  83.9616623  40.2131577  64.9195938
  47.5910149  23.5041027  78.5544739  47.9349556  23.6248436  79.4395447
  47.0552330  24.2816334  78.3975754  52.8649292  20.9500523  24.5143509
  53.6266937  21.3979664  24.1464901  52.8830223  21.1720028  25.4452877
  24.8813591  44.0485077   9.2807598  24.4515419  43.7110634   8.4948702
  24.4079723  43.6412926  10.0062332  29.3451004  28.7102489  63.1863403
  29.3964214  28.0663815  63.8927650  29.3884563  28.1897182  62.3842163
  83.7015076  25.7362118  11.5184984  84.0094299  26.4045124  12.1306963
  83.5566788  26.2100964  10.6995420  57.4878006  33.4705391  58.8796272
  57.7407036  34.3413353  58.5730553  58.2684326  32.9331818  58.7451019
  47.0313225  33.3438950  11.7241726  47.9740105  33.4215813  11.5774126
  46.6666908  33.1758842  10.8552380   6.7968802  24.5049782  64.9167023
   7.5895596  25.0306015  65.0244522   6.1344023  24.9615746  65.4352341
  45.1729050  46.3248825  30.5475616  45.2481422  47.2534256  30.3276100
  45.3743362  46.2830963  31.4823933  36.0417366  58.3309784  63.5095978
  35.5990677  59.1033325  63.8613625  36.3763046  57.8743515  64.2814713
  26.4932880  60.5280609  75.9130859  27.3863811  60.8703918  75.8753433
  26.2296772  60.6466866  76.8255920  77.6023865  11.7338171  12.1338263
  77.0473099  11.2613220  11.5134439  78.2243652  11.0771055  12.4470301
   7.6748176   0.8656498  44.9189873   8.4045038   1.2755191  44.4544449
   7.4889674   1.4605546  45.6454697   6.6475673  32.5712509  60.3208542
   6.0945415  32.3215103  61.0611382   6.4622855  33.5006561  60.1862869
  18.6008816  53.0065994  78.3932037  17.6868362  53.2907486  78.3897247
  19.0141945  53.5208092  77.6996689   8.1691628   8.8785353  55.0154610
   8.1977882   8.5375748  55.9094162   8.5679760   8.1898613  54.4835701
  64.5350266  64.6777496  13.4814358  65.4279404  64.9713821  13.6623268
  64.2606659  64.2361603  14.2851467   0.5537354  51.0469246  51.0603447
  -0.1942717  50.4502106  51.0349007   0.5357794  51.4159851  51.9433556
  60.3038864  58.1278496  74.8802490  60.0438652  58.6811638  74.1437225
  60.5596619  57.2979126  74.4777298  56.7008896  38.9666023  27.7649918
  57.5310402  38.5313034  27.9588928  56.8803024  39.4864502  26.9815407
  85.8460388  25.5371208  30.2221050  85.2076492  25.4339657  29.5163727
  86.1290894  26.4492340  30.1575985  77.9595184  64.4136887  31.7104568
  77.3364487  63.7994728  32.0987320  78.1253662  64.0650253  30.8345795
  72.1912766  53.8536453  26.6658306  71.8871155  53.3171310  25.9337959
  72.1839523  54.7485313  26.3261890  21.2388477  37.2669525  62.9313278
  20.9145679  37.2929802  62.0311089  22.1764565  37.4431381  62.8533478
  76.6691666  20.1804066  67.8027191  77.3399429  20.0044861  67.1429138
  77.1503220  20.2179337  68.6293411  10.6409121  21.8086395  85.3744431
  11.5616627  22.0393295  85.4978714  10.3001070  21.7000732  86.2623062
  78.9591141  48.1530266  58.8680153  79.4024811  48.9105568  58.4861717
  78.6871872  47.6295586  58.1141777  76.2699280  30.0823154  37.9970245
  76.6806488  29.2177315  37.9911842  75.3407440  29.9050903  38.1434631
  13.1480045  17.2530689   7.5140448  13.8145914  17.2283745   8.2005463
  12.3271112  17.4041309   7.9826035  39.9862747  70.8992920  23.3902493
  40.9394264  70.9752731  23.3459587  39.6656494  71.5259399  22.7416039
  20.5620098  53.4003105  18.5390835  20.1609859  54.2126465  18.8481445
  21.0374966  53.0638390  19.2986431  48.2900124  53.1221886   3.7200682
  48.6221466  53.9383507   4.0939589  49.0567551  52.5511780   3.6722336
  50.4402657  64.2838135  17.4340725  50.1703072  63.3916626  17.6518364
  49.6188431  64.7567596  17.3005714  33.0035934  59.3320160  11.6480255
  32.4938889  60.0898857  11.9344969  32.3500137  58.6526337  11.4821796
  28.0261326  39.0061035  76.1216736  28.8652840  39.4570847  76.2148132
  28.2351608  38.2095757  75.6337357  11.0718489  62.7166824   0.9438042
  11.7728033  63.3497505   1.0991164  11.1379585  62.1020470   1.6746151
  54.1690598  53.6344757  57.4293022  54.6756172  53.7002716  56.6197968
  54.7025375  54.0863686  58.0830765  73.4234924  55.0168953  12.8239336
  74.1799316  55.0726624  12.2400475  73.7601776  55.2863274  13.6784983
  21.4926281   9.4676685   4.6078930  20.8260536  10.0182009   4.1970105
  21.5635834   8.7068663   4.0313721  17.1456985  39.3018837  28.7740803
  17.5987949  39.7552834  29.4849701  17.8486137  38.9617805  28.2204838
  67.5005798  66.5333786   5.2158022  68.2341843  66.3034592   5.7860632
  67.7447739  66.1839676   4.3587642  34.3624229   5.6211991  75.1707687
  34.0367928   6.5144105  75.2819824  35.0371666   5.5268011  75.8431091
  30.4280910  63.3730659  18.4874287  30.4552383  62.6857605  17.8217621
  30.2456646  64.1745148  17.9968910   5.7319245  70.4881744  51.5353699
   4.9900479  70.1906662  52.0620003   6.4270825  69.8574829  51.7230263
  28.3174210   8.3219671  79.2650986  28.3072472   7.5234241  79.7927933
  27.5118198   8.7789850  79.5067062  82.6067429  44.3661461  10.7461424
  81.9721375  44.8409386  10.2094116  83.3532257  44.2232475  10.1642704
  61.2465363  28.3336735  78.0569687  60.8445625  28.0770912  77.2270203
  62.1857986  28.3499966  77.8732452  52.0836029  51.8373260  34.7480545
  52.9179726  51.9436722  35.2049484  52.1884193  51.0313339  34.2424622
  39.6149635  -0.0240668  74.8386002  38.6935310   0.0175349  75.0944595
  40.0879478   0.3405812  75.5866241  35.8264389  61.2244339  81.2007217
  35.3883438  60.4017181  81.4185486  36.1064186  61.5775909  82.0451889
  57.9967766  19.9556999  77.9609909  58.6452751  19.2721138  77.7925034
  58.4564934  20.7737560  77.7721176  66.7517319  57.4557381  16.8467445
  67.6720810  57.3558350  16.6034184  66.6200943  56.8214607  17.5514393
  70.8058853  36.5465889  51.9971619  70.1562958  35.8783226  52.2155266
  70.8476181  37.1031876  52.7747803  24.6305866  52.1771736  68.2105331
  25.4177361  52.5020370  67.7733917  24.9492245  51.8072891  69.0338669
  62.8794403  27.1341667   1.2100700  63.1565475  26.2353153   1.0325577
  63.3095589  27.6556644   0.5323743  68.1750183  46.4780922  57.4637108
  68.1101074  45.6875305  56.9279594  67.3030396  46.5814667  57.8447495
  66.7158279   5.7996655  12.1489153  66.0720749   6.3055320  11.6530190
  66.9717941   6.3771830  12.8680716  18.5004292   9.4090319  10.6174059
  18.0515499   9.9575148  11.2607613  18.0098610   9.5411310   9.8061571
  70.1819382  64.2323151  81.2729034  70.6482697  65.0625763  81.1757736
  69.4819412  64.4224167  81.8974838  53.6982460  61.7652626   0.7770632
  54.0817375  62.6211281   0.5856017  53.3970108  61.4423828  -0.0721954
   6.7406173  48.2454300  37.5597801   6.8659945  47.7627907  36.7427292
   6.6368604  49.1567841  37.2861061  57.1293259   1.1173488  59.3581657
  56.2773094   0.8052787  59.0533485  57.5554962   1.4570639  58.5712700
  70.5630722  44.5215569  69.3187714  70.6869049  44.4514961  68.3722000
  69.8362961  43.9286461  69.5097733   6.6430893   6.1989050  26.4802685
   6.0399013   6.5520487  27.1342449   7.5043201   6.2538333  26.8943882
  69.6564636  16.0737362  55.3273697  69.8224945  15.8284073  56.2375793
  69.0639877  15.3964643  55.0010185  79.6145554  28.6459713  11.5834160
  78.9759750  28.2527676  10.9885759  80.1419601  29.2172031  11.0250483
  16.1385250  10.8198214  61.5088081  16.3855438   9.9775639  61.8906670
  16.9657860  11.2015915  61.2153435   4.4803376  52.9088860  21.9024029
   4.4662566  52.5684624  22.7969112   3.6522148  52.6163940  21.5217552
  65.2189178  43.6421700  44.8656693  65.3347778  44.0844650  45.7066116
  66.0720596  43.7141609  44.4376450  81.4332657  40.8372650  48.7770653
  81.2496872  39.9031372  48.6773834  82.0703964  41.0308571  48.0894508
  19.5096035  19.6760120  83.8415298  20.1927433  20.1873322  83.4078217
  19.5414238  19.9600163  84.7550735   8.0270891   0.4555070  58.7621384
   8.1064835   1.2819494  59.2385025   7.2487259   0.0393665  59.1325569
  58.0974503  22.3963242  59.1543503  58.1498184  21.6298561  58.5833702
  58.1056175  23.1425419  58.5549164  33.8888702  52.1013565  67.9957352
  34.4332314  51.3184853  67.9119797  34.1633797  52.4965515  68.8232040
  71.3355713  50.5052567  28.7876320  71.1806793  51.4497261  28.7729645
  71.0345154  50.1998558  27.9318695  67.3665237   5.9738503  52.8695755
  67.2685013   5.9053216  53.8192749  68.0730515   6.6078773  52.7468491
  47.5826149  45.0750694  32.9741402  47.9611893  45.0555458  32.0952034
  47.2544746  44.1867180  33.1133766  15.1214285  28.2507153   3.8203213
  14.3481627  28.0657711   3.2873230  15.5185709  27.3930779   3.9718754
  44.9954453  27.5322762  62.0502625  45.0980186  26.5898075  61.9181099
  45.7850609  27.7951603  62.5231590  72.9578781  37.5478935  84.9689255
  73.7588425  38.0703201  84.9269943  72.6295090  37.6838455  85.8576965
   5.9320226  29.9585838  67.2452240   5.5910473  29.0642757  67.2586594
   5.4555449  30.4071045  67.9438171  76.8761902   7.1516018  24.3462486
  76.1763687   7.7248430  24.6590900  77.5679855   7.7500782  24.0643330
   4.4707012  38.4301109  20.2589378   4.4926081  39.3747101  20.4121799
   4.0276575  38.3344536  19.4158516  69.1904984  51.5645714  70.3270264
  69.2280579  50.6834717  69.9548874  70.0272980  51.9621201  70.0862885
  55.2154045  12.9403639  50.5886078  55.3654289  12.5194321  49.7421188
  55.6701241  13.7800608  50.5224800  51.8401833   0.4993141  72.3247147
  52.3581696   1.2293487  72.6637878  51.2714424   0.2504196  73.0532837
   4.9637241  43.8378906  22.0292721   4.5057945  44.0292625  21.2107925
   4.2724395  43.8158493  22.6909904  86.1346130   9.0739641  81.5720291
  86.8515701   8.7040091  81.0569305  85.5887756   9.5288582  80.9306564
  85.0933228  59.0510178  16.5629826  84.9782410  59.0795288  15.6131544
  85.6983490  58.3238411  16.7092209  67.3170013  16.8718090  24.5075836
  67.5246048  17.8060417  24.5261307  67.1726990  16.6402607  25.4250755
  18.0933113  36.4462128  32.1092339  18.0138435  36.2982864  31.1668777
  18.2597504  37.3852730  32.1910706   2.4710777   3.3428757  18.6784439
   2.1901667   2.7911792  17.9484081   2.8870194   2.7361724  19.2909260
  68.5171661   6.5508814  22.2991371  69.3061447   6.9931326  21.9858475
  68.0084229   7.2412767  22.7243061  83.7464905  21.6603031  83.4847717
  84.2300415  20.8913288  83.1829605  82.9227066  21.6314125  82.9981689
  14.5064859   7.4686236  17.4162807  14.3151054   6.8722329  16.6924553
  13.6607037   7.6070819  17.8425598  16.6781979  26.4569874  73.6358566
  17.6216068  26.6188889  73.6364899  16.2967167  27.2624836  73.9849625
  39.8010788  62.0129051  24.9996700  39.6591492  61.1508255  24.6086349
  40.1832390  62.5356712  24.2947578   1.5919476  50.5875359  18.5992603
   2.0678718  51.1913986  18.0291042   1.9508231  49.7256508  18.3880882
   2.3005252  10.3673573  56.4012260   3.1036565   9.9875402  56.0449257
   1.6628354   9.6543083  56.3673782  41.9845314  70.5933456  44.6983986
  42.4732132  71.2684555  44.2275963  42.3276939  69.7674561  44.3572617
  45.9751701   6.5777736   1.5426129  46.8067055   6.5994096   1.0689932
  45.8385468   5.6521382   1.7445138  66.5757675   0.8108192  41.4191055
  66.7097931   0.0544486  40.8479919  67.3749771   1.3286251  41.3223190
   4.8738956  53.1540146  75.1565323   5.2536550  53.8637962  75.6744385
   4.9164162  53.4674644  74.2531052  55.5751953  35.4206009   5.0444665
  56.1453705  35.9878387   5.5634794  54.8742638  35.1702766   5.6463513
  63.0013123  39.2275887  84.2365723  63.0390816  39.8700829  83.5280533
  62.4164886  39.6200066  84.8848190  80.0506821  36.0970192  51.5772667
  79.7774887  35.1803284  51.5416489  79.9159088  36.4218750  50.6870232
  51.1909218  61.8445625  68.0547333  51.3329697  61.1099281  68.6516953
  51.4400253  61.5059929  67.1947632  48.8012161  70.7543335   3.8357954
  49.4390526  70.4275818   4.4703259  49.1948433  71.5561447   3.4917116
   5.5055342  63.7097359   4.9421096   6.3342080  63.2319069   4.9769015
   4.8950319  63.1671104   5.4411831  80.0231552   5.2693334  37.9454422
  80.0717087   6.2043953  38.1442757  79.2375336   4.9679265  38.4017220
  70.3587494  22.2594051  44.0880928  70.2572861  21.7146397  44.8685837
  70.7108841  21.6652107  43.4253998  50.9444008  34.7966995  72.8767853
  51.4536591  33.9865990  72.9018555  50.0499115  34.5237045  73.0807266
  10.9250908   7.8198915   0.7799703  10.9369373   7.2568789   1.5539912
  11.3904400   7.3174710   0.1111992  63.8326111   4.7491345  55.0367775
  64.7491531   4.5217853  54.8802490  63.8628616   5.6408663  55.3833771
  75.6008911  12.9371452  75.0474167  75.5343552  12.3036890  74.3329010
  76.3980484  12.6879025  75.5150146  67.3811569  52.9428673  56.1871338
  67.6873932  53.8481522  56.2410583  68.0409698  52.4981117  55.6550865
   7.9324622  62.3879585  35.4007759   8.0081205  62.6888046  34.4952354
   8.3434830  63.0803719  35.9183273  26.2292004  64.1722183  45.8885689
  25.7197609  64.8308334  46.3607216  26.0962753  63.3650208  46.3855591
  74.0341949  50.2767601  76.7969055  74.6300659  50.4849548  76.0773010
  74.1448212  49.3360443  76.9349365  79.1198730  20.4986668  32.5120049
  78.7770615  19.8432465  33.1195679  79.6278610  21.0938339  33.0633316
  65.5195465  42.6843491  70.7580566  65.8416824  43.3138580  71.4031754
  65.7035828  41.8287239  71.1457062   1.9526532   0.7964320  66.3103409
   1.3961662   0.0189254  66.2651978   2.6870592   0.5994158  65.7289047
  81.9435349  25.0818691  42.5998573  82.6889267  25.5770397  42.9396019
  82.0648270  24.1981182  42.9469986  22.6743412  45.3336754  28.4701099
  23.4281082  45.1153679  27.9220123  21.9359970  44.8945808  28.0478821
  60.1214371   5.1000295  73.0752106  60.0481873   4.1755385  73.3122406
  59.2888069   5.4843278  73.3495636  26.4262695  56.0976448  73.1170273
  26.9724998  56.7210197  72.6381989  26.0961075  56.5942802  73.8657455
  68.8578491  35.1209183  15.3065329  69.0643692  35.8622246  14.7372808
  68.1410980  35.4347420  15.8579102  62.1443672  17.0041542  22.8399658
  62.9338264  16.9257908  23.3755455  61.6837196  17.7612476  23.2016888
  83.1914749  21.1929169  16.4661217  82.8604889  20.2968578  16.4048080
  83.5053406  21.2711926  17.3670044  46.9131432  12.8879213  38.4416542
  46.4546547  13.4663458  37.8321915  46.6894150  13.2273235  39.3082466
  35.5559273  10.3193235  88.3086853  35.2671471  10.1105652  89.1970901
  35.8122902  11.2406092  88.3504410   3.7514753  59.1025772  23.0098591
   3.8668046  58.3193512  22.4718189   2.8106275  59.2764091  22.9812412
  36.0064697  66.8822784   4.3377376  36.6265373  67.1623001   5.0110402
  36.5385933  66.3919754   3.7111008  40.9479256  55.6338158  49.1541061
  41.0485992  54.7079506  49.3751755  40.1739616  55.9139404  49.6427155
   2.3631177  67.9517593  76.5732727   1.6672553  67.3098450  76.7145233
   2.3734689  68.4741592  77.3752899   8.8925285  17.3618164  33.9854164
   8.9257526  17.8199978  34.8251801   8.0104675  16.9918346  33.9491730
  23.8146858  65.5198898  71.9805527  23.7344971  66.0179520  71.1670761
  23.0815773  65.8195572  72.5181198  12.5074625  11.2283478  65.3620148
  13.4517384  11.2407312  65.5182800  12.2992134  12.1198759  65.0826492
  46.9618607  -0.0043246  21.0541744  46.9878502   0.8843110  20.6993752
  46.7430916   0.1131729  21.9786034  19.7519989  68.6494598  52.9027634
  20.6731796  68.3938141  52.9507217  19.3675804  68.0424271  52.2703362
  42.3448029  19.3685284  73.1631699  42.7360725  18.6338749  72.6904907
  41.4911461  19.4928207  72.7483749  83.1547165  17.8331852  55.8108749
  83.1182098  17.2290649  56.5524521  82.4644775  17.5302277  55.2209435
  50.5821342  56.3855019  57.7111435  50.5081673  55.8117714  56.9485168
  50.7230492  55.7893066  58.4466209  64.4901199  64.7812881  66.9096146
  64.6785278  64.1873627  66.1829834  63.7736664  65.3301468  66.5907440
  48.1319046  58.9584503  62.5540695  48.2518005  59.7319336  62.0030899
  47.2868805  58.5998306  62.2828522  47.8639832  38.1177368  14.8466301
  47.7230949  37.3568916  15.4100971  47.9201546  37.7542114  13.9629316
  51.1285133  57.4268494  53.8622475  50.2622719  57.0457878  54.0059319
  51.4891930  57.5401688  54.7416229  67.7085648  36.3382492  37.7415428
  67.5500183  36.2741318  36.7997437  68.5588226  36.7721710  37.8122940
  80.3077393  63.1311302  22.9543762  81.2611771  63.2123375  22.9299889
  79.9871597  63.9819260  22.6550255  47.4632912  58.3086166  14.1311598
  47.4202347  57.3538132  14.0788708  47.5274582  58.5957184  13.2202883
  22.2853222  12.7465067  28.2508545  21.7866383  13.5471516  28.4136906
  21.8606014  12.3503704  27.4899864  59.3823700  56.4884338  35.3784332
  59.9781265  56.3107338  34.6506081  59.9436531  56.8491173  36.0648003
  45.4648743  10.0701456  73.6493454  46.3916435  10.0402203  73.8869095
  45.1197319  10.8251553  74.1258621  57.0340309  45.7218819  87.3223343
  57.2134285  45.2573738  88.1398163  56.1208572  45.9983063  87.3993530
  80.0326614  34.4637413  48.4363213  79.2594528  34.9128342  48.7779274
  80.2792969  33.8509407  49.1290550  82.8939819  13.6404982  18.1781769
  83.1982269  13.4096413  17.3004665  82.7460480  12.7988720  18.6094666
  34.9358673  13.3889275  81.5632095  34.8992882  13.7689877  82.4409637
  35.8692551  13.2542934  81.3992157  61.0348282  17.7587776  18.5059910
  60.3242493  17.1175213  18.4961491  60.7740135  18.4152241  17.8600140
  63.7205696  18.9956474  11.4964066  64.5145416  18.5508175  11.7930059
  63.3330498  18.3949261  10.8598576  39.2254829  61.7920074  12.0335264
  38.9863701  60.8652153  12.0228472  39.4057426  61.9822617  12.9541464
   3.2223215  62.4026260  37.7260208   2.7207627  61.5927734  37.8198814
   4.0971055  62.1138153  37.4660721  28.8248672  56.9280586  59.8916283
  29.4669094  57.5878563  59.6295624  29.3502369  56.1650696  60.1325989
   4.0954380  59.3432693   4.0931449   4.3051839  58.5081978   4.5113535
   3.5332010  59.1070976   3.3553479  58.0861244  15.5315704  49.3488121
  58.5158653  15.8185787  50.1545296  58.1257858  16.2940540  48.7715073
   1.2276614  25.0027142   5.9203849   0.7667440  24.3062992   5.4526310
   0.8884534  24.9560452   6.8142486   1.3853158  24.9598598  63.0363464
   1.9035833  25.2672520  63.7800827   1.4373738  24.0053825  63.0863075
  80.2175751  53.6166496  53.1527252  79.9190750  52.9178047  53.7347374
  79.9139099  53.3514061  52.2845840  53.9107933   2.3386884  54.2079811
  54.4512291   1.6936655  54.6641655  54.4082718   2.5527344  53.4187202
  16.4647236  35.0110893  11.3650885  17.3120174  34.5814819  11.2477789
  15.9072371  34.3384323  11.7562084  62.9688530  50.3694229  66.1582108
  62.4638596  49.8573303  65.5265656  62.8515663  51.2773972  65.8788147
   4.4186568  53.9327660  72.5795364   4.9560165  53.3297920  72.0658264
   4.0247869  54.5152779  71.9300919  19.8819981  70.7269135  24.8799992
  20.3567276  69.8957596  24.8861332  19.0030346  70.5029678  25.1857834
  82.1781845   9.9881630  26.8561096  82.9203491  10.5707827  27.0172863
  82.3100433   9.2590513  27.4621143   8.8100395  43.7745209  69.8078384
   9.0081425  42.8391075  69.7632294   9.6582346  44.2044563  69.6985168
  59.4318199  24.6476955  82.7842178  59.5785866  23.7347870  82.5366516
  60.2135582  24.8898716  83.2806702  53.6115379  41.2579994  78.3517685
  54.2514381  40.6868248  78.7766418  52.7626762  40.9248238  78.6427307
  66.6396866  35.9295731  58.4160957  66.6033401  35.7836304  59.3614044
  66.7807465  35.0587769  58.0445518  38.3365402  43.9758072  19.0603046
  37.7566299  43.3072701  18.6956215  39.0108986  43.4802933  19.5249939
   3.1963518  41.3075676  24.4560642   3.8889337  40.6637955  24.3073368
   3.6542296  42.0793228  24.7891941  37.5183830  65.3832855   9.0630264
  37.4912300  66.1110687   9.6841774  37.8441544  64.6432266   9.5752859
  29.6804276  44.3153267  44.8426170  29.7474136  43.3630066  44.9121628
  28.9295807  44.4612236  44.2671394  74.1632843  19.4414234  15.9524069
  73.9283295  18.5210190  16.0702343  73.8269730  19.8766518  16.7357998
  62.4121361   8.0473757  67.9444809  61.9390144   8.5736618  68.5890045
  63.2863121   7.9389224  68.3190231  29.3960304  50.8696556  80.4269485
  29.8064365  51.4703522  79.8048859  29.9578037  50.9058838  81.2011108
  65.3340683  47.9647179  23.5810280  64.8908234  48.2983704  22.8010044
  65.0276031  48.5293427  24.2906113  62.2491875  66.6836014  47.4397888
  61.6640358  67.4272461  47.5840836  63.1131248  67.0781860  47.3208542
  38.5306625  71.2815475  13.3485003  39.1103172  71.8728333  13.8287239
  38.0845985  70.7780304  14.0294809  77.0840454  10.2712793  83.5811844
  77.5320282   9.4367533  83.7194214  76.5016556  10.1103849  82.8387756
   1.4679987  54.1725426   9.2995119   1.5156641  54.5244408   8.4106207
   1.3424357  53.2314072   9.1781168  28.5473042  12.4506378  61.1114578
  28.2770348  11.5605240  61.3370323  29.4977894  12.4482784  61.2246170
  83.4177017  17.2651463  83.4375458  83.5010681  16.4400806  83.9156113
  82.4985809  17.5109634  83.5425110  62.9111824  21.6718884  24.9260426
  61.9774246  21.8338966  25.0604916  63.3390846  22.4736443  25.2265759
  82.1867981  22.4513397  58.3879623  82.3209534  22.0070038  57.5508232
  82.6198044  23.2983551  58.2816391  55.8844032  27.2247334  28.9809475
  55.5972328  27.1893768  28.0685253  56.0678253  26.3135719  29.2097931
   2.1789193  14.1608219  30.9867992   2.5631263  13.6391687  31.6914234
   1.2458745  14.1974611  31.1973152  12.1134872  58.4216309  26.7227631
  12.9879570  58.7902260  26.5975685  11.9132204  57.9922638  25.8910370
  35.2690201  41.3727264  27.7079659  35.6799355  42.0871773  27.2211971
  34.4206429  41.2496452  27.2821255  17.3430653   3.8009584  59.1831703
  16.9272556   3.0262101  58.8048859  17.9815483   4.0755534  58.5250130
  41.5203247   1.2241526  57.2115631  40.7057877   0.7270738  57.2868652
  41.9859085   1.0462368  58.0287590  39.7042007  15.8213110   6.1916623
  39.6318321  14.9479837   6.5767541  40.0659637  16.3630886   6.8929715
  27.5275841  23.8727932  66.2155457  27.6187744  23.0102482  66.6204376
  28.3928318  24.2721977  66.3053055  45.7056351  34.2319756  64.0178909
  45.5752449  35.1801910  64.0288849  45.5284348  33.9763222  63.1126480
  69.3639908  22.8123684   5.2162776  69.1770630  22.3294029   6.0212841
  68.7688141  22.4363937   4.5677137  10.1295624  68.8221893  56.1899567
  10.8633060  69.1352310  56.7189713  10.1506100  69.3683929  55.4041786
  12.0018635  36.6437683  70.8333969  12.8115435  36.8006706  70.3475647
  11.8775740  37.4371033  71.3543625  15.5517006  13.6448040  67.7210388
  16.1176014  13.9031343  68.4485321  16.0239887  12.9313774  67.2918549
   6.4850750  58.5085678  28.9950638   7.2785320  58.9161682  28.6479034
   6.0051203  59.2287254  29.4040203  74.6225586  47.2450027  37.5871887
  75.5155334  46.9689980  37.7937050  74.4752350  46.9313622  36.6949120
  33.8508911  21.2438297   8.7239990  34.0033150  22.1667747   8.5210905
  32.9056282  21.1298656   8.6254263  86.1478271  45.4139099  62.7022781
  85.8749008  44.5019112  62.6022873  86.7241592  45.5747375  61.9551468
  60.6997452  34.5272751  86.4136581  61.3401527  33.8234100  86.5170517
  59.9014473  34.1858635  86.8166351  25.8757381  57.2757187  27.9387951
  25.9608116  56.6414375  27.2269802  25.2793121  57.9414825  27.5963497
  76.6435394  60.1994400  54.6905327  76.8948059  59.2993088  54.8975601
  77.1440811  60.4127312  53.9030113  73.7207642   8.4808388  15.9596701
  74.1215363   9.3329248  16.1315975  74.2522736   7.8609953  16.4591885
  79.8420410  10.7150412  25.1446114  80.7222748  10.4833536  25.4408436
  79.7014160  11.6001520  25.4808178  16.4335766  69.5931625  59.1861458
  15.4795656  69.6408768  59.2479477  16.7478142  70.1134338  59.9256096
  39.7317009  70.8189621   7.9478068  40.2053261  71.6304474   8.1305981
  39.7405624  70.7462540   6.9934134  13.6762648  38.7283287  19.6257038
  13.5012493  38.0960999  18.9286480  12.9918709  38.5649185  20.2746525
  68.8531418  54.5134010  70.7082367  67.9804764  54.8872948  70.5862274
  68.7819290  53.6223221  70.3659897  14.1618328   8.4914474   9.2629147
  13.5127773   9.1513863   9.5067186  13.7733936   8.0385275   8.5144434
  51.6784782  71.4010391  56.6357880  51.9022293  72.2180099  56.1900139
  51.8540916  70.7187500  55.9878082  55.5124779  18.1041679  77.5606842
  55.4060974  18.7632446  78.2466354  56.0236664  18.5450974  76.8820877
  81.8352585  70.1755600  14.2940712  82.5154266  70.5978088  13.7693653
  81.4329529  69.5421600  13.6997824  54.5893135  31.8558388  31.2063007
  54.3126564  30.9985847  31.5300426  53.7939453  32.2411118  30.8386307
  69.6040649  22.3993893  61.6190605  69.3737564  23.2978039  61.3823318
  68.8020477  21.8989925  61.4687271  16.2752838  15.8148565   7.5014110
  15.3991518  15.5086060   7.7355804  16.8344517  15.5102539   8.2161007
   7.6978240  25.6242867  78.4573746   7.3233824  26.3255558  78.9905243
   7.3883910  25.8066845  77.5701218  84.0723190  26.3338776  46.2860680
  84.2414780  26.5495377  45.3689499  84.4136581  25.4456844  46.3901482
  74.3835297  37.5476875  43.2245407  74.2929077  36.7012596  42.7868423
  75.0659103  38.0013351  42.7297745   5.1434960   3.7892134  42.5089760
   4.4681344   4.4333067  42.2962265   5.8486629   4.3027978  42.9029350
  33.7442780  64.2872543  15.7870684  33.4152489  65.1831360  15.7138147
  34.2871933  64.2952042  16.5753632  51.6238632  19.3777237  40.6375008
  50.6925774  19.5221519  40.8050690  51.9601669  20.2404194  40.3948402
   9.5487862  20.2488289  82.4511261   9.9209814  20.9929695  82.9243698
   8.7931423  19.9848557  82.9760590  47.9638977  40.9059715  78.0398254
  47.8234787  41.5115814  78.7676620  47.6648865  41.3861198  77.2676315
  62.8097992  52.6751633  68.3913116  62.6855507  51.7665710  68.1169891
  63.2184410  52.6109886  69.2545166  61.4205589  61.2206230  45.1944962
  60.5291519  61.5548973  45.2939224  61.9289932  61.9773674  44.9028320
  65.3858490  62.2629166   6.4860620  66.2367859  62.1688614   6.9141889
  65.2347260  63.2077103   6.4584999  66.4637985  55.4293633  37.0254211
  66.6621017  56.1641502  37.6059303  67.3123016  55.1748123  36.6628380
  46.0377083  18.5126877  64.8259201  46.8374977  18.6491604  64.3180389
  45.9195633  17.5628605  64.8360519  53.8870773  66.2208099  12.4014654
  54.7124481  66.1012802  11.9316721  54.0927124  65.9941254  13.3084173
  73.7203903   6.9779382  59.7537041  74.2341156   6.6916146  60.5089073
  72.8186340   6.7458959  59.9755745  32.7673798  48.3804321  17.0422478
  33.0419006  48.2745171  17.9531021  32.3378563  49.2355461  17.0194359
  86.6712341  22.5234203  46.8638611  86.6469650  21.7179108  46.3473396
  85.8226929  22.9363728  46.7035980  28.1497135  60.0117722  60.2749138
  27.5456161  60.3088341  60.9553909  28.0909500  59.0567818  60.3027344
  77.8539581  39.9762802  25.8712444  78.3481827  39.1565475  25.8680000
  77.4427185  40.0114365  25.0075989  -0.1344497  20.7474213  11.3826027
  -0.1717410  21.6235275  10.9988317   0.3867639  20.2366085  10.7632170
  39.3292809   9.5061007  88.0655289  39.3409042   8.9701252  88.8585205
  40.2498131   9.5823555  87.8144684  64.1989975  53.7052193  14.3890591
  63.7903061  54.2921486  13.7528868  65.0971222  54.0265274  14.4688978
  19.4790421   6.4998770  22.6050606  19.9750347   7.1934838  23.0399551
  18.6564808   6.4520869  23.0922356  80.2603912   5.6560402  69.3149261
  79.6479340   6.3831964  69.2036591  80.8862152   5.9678879  69.9686279
  40.2678871  54.2075424  28.0936794  40.8434525  53.9054451  28.7963123
  40.7380180  53.9900284  27.2887592  69.7707443  67.8505325   3.5076983
  70.2284317  68.1334915   4.2993326  70.4272308  67.9181213   2.8143814
   8.5790424  15.4297342  20.4923840   9.3871632  15.2431774  20.9702644
   8.7713537  16.2268829  19.9986210  28.6168194  47.6687050  34.0077248
  27.7419910  47.7404099  33.6259308  29.2113323  47.8537292  33.2807083
  59.9882355  12.2015219  75.1984253  60.9079514  12.0083694  75.3802185
  60.0144653  12.9347448  74.5836716  45.9086838  28.5915928  41.1017838
  46.5850716  28.4570942  40.4379768  45.2015648  27.9990177  40.8466988
  64.9966507  32.0351562  54.8511314  64.0738678  32.0202904  55.1050797
  65.0124054  32.5348396  54.0348587  39.7843018  34.9718895   7.2763319
  39.8348618  35.9268379   7.3180900  40.6506615  34.6991501   6.9742265
  83.5383453  34.1060066  81.8718338  83.7236328  33.9880981  80.9401703
  82.8292389  34.7485352  81.8955688   2.5902250  16.0807896  21.5339165
   2.5331476  16.6527596  22.2993088   3.5296044  15.9728489  21.3850975
   7.7054396  70.1359940  30.9729099   6.8960495  70.1973572  30.4656086
   7.5844679  70.7552185  31.6927433  21.6811790  52.0251923  38.5180626
  20.7346306  51.9271736  38.6213570  21.9351444  52.6384392  39.2077408
  76.2021408  15.5526581  71.2925186  75.6883011  14.9156618  70.7960892
  77.0525513  15.5687561  70.8534546   2.4170332  59.5884476   1.9485471
   2.2277763  60.5170326   2.0832264   2.1486747  59.4178009   1.0457202
  48.2510109  46.2957802  28.1912937  48.1357498  47.2236176  28.3963909
  48.6189880  45.9178391  28.9900341  34.9399681   8.0230370  79.0775452
  34.9719048   8.2158871  80.0145721  34.1986923   8.5342722  78.7529221
   9.2515335  46.6836853  62.3489113   9.4697924  45.7517929  62.3359871
   8.3727751  46.7291107  61.9721451   6.2356658  23.5449657  55.8272896
   5.9542193  22.6307278  55.8617401   6.0637541  23.8146610  54.9251022
   6.8738980  62.9437065  25.1392860   7.3976331  62.2542496  24.7311401
   6.0229368  62.8870964  24.7046680  30.6825504  62.6234932  85.0749817
  30.4885464  61.9205132  84.4549713  31.0939140  62.1811829  85.8175278
  57.5445404  57.4873085   5.7820401  57.7917061  58.3035774   6.2166080
  58.3620186  56.9936447   5.7168026  58.6221962  45.8497353  57.3196831
  59.1472969  45.1776314  56.8852043  58.1849556  45.3871155  58.0345535
  69.5693130  13.5413322  29.5712051  68.6191483  13.6548805  29.5480728
  69.7831802  13.5017881  30.5033684  68.9917831  64.3382950  37.8328514
  68.0884476  64.6019287  37.6575737  69.0105896  63.4018669  37.6353951
  55.8616714   4.0224066  16.9280090  56.3174248   3.1982386  17.0990810
  54.9822922   3.8876081  17.2812157   4.3935199  46.3847237  74.0986176
   5.1893234  46.0011101  73.7301483   4.0674567  45.7215691  74.7070084
  80.4461975  12.1631651  69.9369965  81.0703964  11.6784172  70.4770203
  79.7094193  12.3392496  70.5221481  61.6035194  18.3515034  65.0166245
  61.2145424  18.7491741  64.2376556  61.3811646  17.4230213  64.9479675
  62.3801270   6.8475089  82.6811981  61.5536499   7.1346664  82.2929840
  62.7573090   7.6429067  83.0571060  66.9805832   4.7367101  24.9304695
  66.5351639   4.8655539  25.7678642  67.1560669   3.7964132  24.8947086
  52.8772926  27.1798077  12.9116669  52.9012108  27.0760536  13.8629265
  53.7215271  27.5740681  12.6924372  44.7981186  66.5915756  29.8660851
  44.2173805  67.1320496  30.4016819  45.6348534  66.6060028  30.3307362
  68.4778061  58.3586006  34.3441734  68.1372604  59.2487984  34.4325562
  69.3090820  58.3719673  34.8185425  26.6185684  69.0294495  72.0717850
  27.2958107  68.7550278  71.4535065  27.0795479  69.1247330  72.9052353
  36.8923607  16.9297829  71.4927673  37.3619194  16.8307896  70.6645508
  37.2953682  16.2857494  72.0750427  46.7868271  44.7440262  13.1982145
  46.1361046  44.9733582  13.8616896  46.3062096  44.2096748  12.5659904
  13.1454325  39.7579765  59.6554947  13.6860695  40.5184860  59.8689537
  12.5380545  40.0758095  58.9874344  75.5546722  19.3643532  20.4424572
  75.7002335  19.7732182  19.5893040  75.1881561  20.0635757  20.9837418
  82.7924042  69.9917297  80.3727188  82.9075851  70.2435532  81.2889938
  82.2776184  70.7031097  79.9917145  46.9304810  16.1066113   0.7567610
  47.0862427  15.9580173  -0.1759180  47.8048553  16.1236629   1.1458776
  79.7406235  20.9501266  72.6396713  80.5050430  21.1531162  73.1788330
  78.9949417  21.0634022  73.2290421  26.0707550   0.5782751  60.5445442
  26.6630936   0.5838284  61.2964325  25.3098145   0.0800216  60.8427811
  61.5681496  64.5020294  31.5846176  62.2106552  64.4286499  32.2903328
  61.3987274  65.4412842  31.5116577  76.5426407  52.8138542  64.9370575
  77.1244736  52.0759735  65.1193619  75.6651001  52.4774818  65.1187363
  49.7604294  46.7679596  56.9052505  50.6626892  46.4726868  56.7828865
  49.3553696  46.6634483  56.0443001  68.1229858  21.8567562  31.0107861
  68.1390991  22.6897678  31.4820251  67.2873077  21.4592724  31.2554855
  71.6635666  52.2966003  68.6398087  72.5089722  52.7417946  68.6973495
  71.8864594  51.3772087  68.4939651   5.2317686  61.3809128  28.4486294
   4.5975890  60.7842941  28.8462391   4.7933974  61.7074928  27.6628742
  63.8799286  61.2567978   3.9715297  64.3327713  61.3586693   4.8086619
  63.5916519  62.1412468   3.7459741  79.5155716  69.5067825  26.2376633
  79.1870041  70.3471756  25.9182663  80.1625214  69.7399597  26.9034824
  70.0133133  69.2246704  22.5476875  70.9476013  69.4046707  22.6522293
  69.6196976  69.5165024  23.3699608  21.4607620   0.9469098  17.5759888
  21.2795162   1.8867899  17.5786285  20.6602211   0.5476515  17.9165154
  47.8657227  39.0146790  39.2519188  48.4743195  38.8348045  39.9684982
  48.0186157  38.3079376  38.6247215  86.1002350  43.2024307  69.5295258
  85.9774017  42.2747421  69.7308807  86.8836746  43.4521790  70.0195084
  73.7130203   0.4911378  30.8708057  73.9110413   1.2768310  30.3611927
  73.4454269   0.8227336  31.7279339  35.9033394   6.9700170   1.1187630
  36.5565758   6.8725996   0.4259226  36.3577957   6.6986456   1.9162960
  37.9736824  64.2155609  73.9107132  38.0694122  64.4080429  74.8434601
  37.7096786  65.0485992  73.5201111  21.7755547  60.9738617  14.7854662
  21.2384109  60.4812660  14.1649361  22.4197273  60.3398590  15.1006069
   7.6194196  58.8770638  45.7342491   8.3768339  59.3657379  45.4121437
   7.4766340  59.2125854  46.6192741  30.8187389  64.1082458  39.6037941
  30.1794262  63.7211304  39.0057526  30.8254299  65.0383835  39.3779106
  67.9094467  32.6809616  14.8239861  68.1969147  33.5802650  14.9816122
  67.2668762  32.5107155  15.5127211  73.5065079  43.4223785  21.4515991
  74.2976074  42.9154053  21.2689018  73.5023117  43.5250893  22.4032631
  50.0240784  12.2228413  83.5384903  50.6060638  12.7767067  84.0588379
  50.6131210  11.6393194  83.0601959  20.0669212  45.3090668   8.9611835
  20.5742722  45.5423737   8.1837559  19.4791641  46.0525055   9.0956154
  85.0831909  66.9012299  32.9972878  85.2835236  66.6465530  32.0965996
  85.6345520  67.6670151  33.1579247   6.2268047  22.4240284  52.3989449
   5.4004598  22.4403305  51.9161186   6.3026257  23.3015747  52.7736397
  85.7983322  35.4888916  22.6575603  86.3225174  35.4546509  23.4577427
  86.3739624  35.8980942  22.0114727  10.3085575  41.4780273  61.5374069
  11.1815853  41.1552505  61.7607269   9.7745676  40.6877823  61.4561615
  83.1598358  71.0059891   6.8095098  83.4407883  71.9186783   6.8751278
  83.8952179  70.5585175   6.3909249  68.0054474   5.0705814  43.1942215
  67.2060394   4.5449195  43.1649551  68.7052078   4.4343386  43.3417625
  86.1451035  14.3768444  14.5935020  85.9250412  14.7863073  15.4302483
  86.1827698  13.4403105  14.7877121  68.3816681  17.9145908  51.9316902
  68.7930069  18.2471218  52.7294693  68.8461533  18.3562298  51.2207451
  33.1324768  44.9971466  71.2255936  32.7271461  45.2510300  70.3964462
  32.7221565  45.5660820  71.8768845  11.9595699  69.3638916  12.2511683
  12.3892765  70.2097473  12.1242485  11.0919714  69.4752808  11.8624563
  73.9848557  24.2871418  31.2513695  74.1477966  23.3536339  31.1162739
  74.5252304  24.5176849  32.0070686  70.7890549  33.0672188  28.4306450
  71.4940491  33.4115448  27.8823223  70.2988663  33.8421936  28.7051601
  81.3492203   1.4754088  42.5582924  82.1689224   1.9248794  42.7639236
  81.3970947   0.6541472  43.0476456  22.7831573  49.7560539  62.2851257
  22.7582321  50.1988220  63.1334000  21.8803024  49.4760780  62.1344643
   6.1955500  61.0386620  55.9461784   5.9047985  60.1292686  56.0147285
   5.5887442  61.5267296  56.5027809   2.9083021  10.3767328  76.0498657
   2.2242579   9.7397928  76.2563248   2.6074934  10.7989044  75.2451859
  24.8178005  24.8030968  53.5610275  24.7399540  24.5312214  54.4754944
  24.1419544  25.4720554  53.4516716  59.9286461  19.3647499  63.2493095
  59.5694237  19.5656815  62.3851242  59.2629700  18.8157215  63.6636505
  45.7750931  11.1451864   5.7114978  45.5927505  11.2418976   6.6461792
  45.9663200  12.0338421   5.4115729  54.6276436  46.9613380  76.7594528
  53.9635391  47.2838135  76.1501846  54.6135101  46.0107498  76.6480103
  12.4872484  33.3090134  87.6764145  12.3183718  33.4721527  88.6043625
  13.3877602  33.6040916  87.5413589  47.3278351  63.8641777  72.6431351
  47.8777428  64.6430588  72.7278214  46.7094879  64.0822220  71.9457550
  82.9333801  21.7799892  79.4450531  83.7170944  22.3198414  79.5479431
  83.2591705  20.8800201  79.4573669  16.9864788  61.8383217  35.4220276
  16.1979904  61.3170052  35.2712021  17.3810902  61.9320908  34.5550117
  46.4938545  63.2751884   5.8564682  46.9306068  63.1505394   5.0138869
  46.1700134  62.4050751   6.0894179   3.0844128   4.6158066  57.0886993
   3.0093381   3.8006768  56.5925560   2.3047743   5.1158724  56.8471832
  43.8721428  25.2854977  20.2787075  44.2309189  26.1729031  20.2833271
  44.4978676  24.7715111  20.7891178  13.3365059  68.3572845   4.7914467
  14.2505503  68.6411972   4.8035669  13.1330776  68.2443466   3.8629568
  71.6808090  27.5957317  46.5153122  70.9754639  27.3017731  47.0917664
  72.3861923  26.9648399  46.6589890  70.6570053  71.3897400  30.1808357
  70.3767853  70.5068207  29.9396534  71.6003647  71.3112335  30.3227348
  82.3174133  21.7387199  73.6526566  83.0222626  21.6597519  73.0098648
  82.7572632  22.0102806  74.4582748  71.8385925  45.8929596  85.0149231
  72.6163406  45.7451553  84.4768829  71.2992935  46.4907761  84.4972382
  51.4011192   8.2350931  36.9372940  51.2172356   8.8259945  36.2070503
  50.7345734   7.5518003  36.8661766  35.6854210  51.9979439  47.2823181
  36.0371895  51.1126251  47.1890373  34.7481079  51.8691750  47.4275665
  27.8363075  12.6718454  56.9050446  27.1402359  12.0868139  56.6059570
  27.3855934  13.3286381  57.4358101  45.3118095  30.9569988  75.1205750
  45.3515358  30.2640877  75.7797623  45.6764565  31.7258186  75.5589600
  46.9934654   6.4654584  14.6421909  47.6424141   7.1581373  14.7658491
  46.3450966   6.8475161  14.0506830  58.8209686  12.8222389  20.0913963
  58.6625786  13.0835953  20.9985008  59.4896355  12.1400023  20.1519814
  51.8980179  67.4935684  88.5980530  52.7671738  67.8816071  88.6991425
  51.5264778  67.5051498  89.4801254  62.4839249  53.8780785  82.8859711
  62.9768372  54.6205025  82.5365753  63.1156693  53.1592331  82.9059067
   8.1071062  36.5331116  51.8772774   8.7799549  36.3889198  52.5426445
   8.1388178  35.7480774  51.3305168  50.9346542  63.6005058  52.5097504
  51.4266968  64.4204712  52.5520859  50.1031036  63.8409996  52.1011887
  46.5705223  15.4468908  81.2803726  46.9609261  14.5853090  81.4269867
  46.7115860  15.9167652  82.1022949  57.2384834  51.3926582  57.1961098
  56.9508133  51.5519791  56.2971687  56.8818970  50.5311317  57.4125671
  48.6974258   5.7317214  64.2502213  48.3625336   5.2510376  65.0072021
  48.3247528   6.6088643  64.3394699  43.8893929   2.5821471  77.3260269
  44.4151268   1.8227905  77.5774460  44.1905251   3.2837136  77.9033966
   0.0384946  43.6907425  34.6854057  -0.1339548  44.3956223  35.3096161
   0.3723446  42.9718971  35.2221031   8.0891323  44.9309502  43.2537308
   7.9133463  43.9978256  43.1328621   8.1091166  45.0498772  44.2033043
  86.4696884  16.4449883  60.3408127  86.2023468  17.0881023  60.9974442
  86.7515030  15.6853209  60.8504372  45.0256004  37.0153580  64.9215698
  44.6908340  37.6823692  64.3221893  45.9648514  37.1917076  64.9757309
  18.0764523  40.9506416  65.6214523  17.7871742  40.7954521  66.5205994
  18.1772232  40.0751686  65.2477951   9.8877316   3.2034497   6.1286955
  10.3129005   2.4445398   6.5280943   8.9510784   3.0246823   6.2120876
   7.1946740  33.4602661  12.0353527   7.5200005  32.6103897  11.7385330
   7.3575826  33.4629631  12.9785833  58.7665825  30.8632603  74.8925934
  59.0798874  31.6414165  75.3536224  58.1134567  31.1962376  74.2771378
  31.9126682  71.1568680  68.8465576  32.7987328  70.9030380  69.1047974
  31.7595730  70.6899338  68.0251160  47.7898216  51.6487503  25.0165558
  46.9134369  51.6079941  24.6337719  48.2435951  50.8861275  24.6577682
  45.6302795  43.9649811  51.1495094  45.4811440  44.3595467  50.2902641
  45.6510429  43.0230980  50.9802094  21.2749958  51.7513542  25.5269775
  20.4853802  52.0349159  25.0661812  20.9487705  51.2894440  26.2992783
  78.6283264  41.7600594  55.5848274  77.7266006  41.8269463  55.8988914
  78.5730667  41.9674721  54.6520042  45.2015457   4.3913269  83.0480347
  44.6903419   3.9906337  82.3449326  44.6125603   4.3909063  83.8025742
  82.8151932  22.7015057  39.3567276  83.6009445  22.2073059  39.1230736
  82.7241287  23.3504829  38.6590424  70.0294495   5.5276356  88.5967560
  69.8825150   6.4389567  88.3435059  70.5262146   5.5830131  89.4130859
  32.5838165   8.0405455  72.8990631  32.2971916   8.8623524  72.5006790
  33.0699158   8.3090582  73.6787109  46.6528130   5.4434738  76.6067429
  45.7753334   5.5090566  76.2299728  46.9152641   4.5370612  76.4462204
  61.0345154  54.6804047  45.0945625  61.7465897  55.3176918  45.0393906
  60.6403656  54.6855507  44.2222939  25.6977921  34.7182541  19.9290829
  25.4838276  35.6355591  20.0993652  25.4507713  34.2614441  20.7331581
  62.9845886  18.3075829  57.1594238  62.1268272  17.9031849  57.0292892
  62.8058701  19.0818539  57.6930885  33.3543701   7.1323180  40.9871140
  32.5111160   7.2463179  40.5487556  33.6615753   8.0239391  41.1510315
  79.0797119  36.6916466  84.7316360  78.3149033  37.0978355  84.3238220
  79.6128845  37.4291229  85.0284348  72.8557892  42.4467430  12.6310453
  72.7747650  42.6823006  11.7068272  73.0421600  41.5078888  12.6234770
  69.2002106  66.1236038  84.9256668  68.4596558  66.6262207  85.2650604
  69.9160995  66.7569275  84.8743286  81.2579498  62.3085213  61.9057159
  82.1013641  62.2882996  61.4535255  81.3903046  62.9173660  62.6323662
  59.5086594  51.6961060  43.0868301  58.7813263  52.2441902  42.7921753
  60.2884369  52.1197395  42.7280655  27.9755878  57.7635422  71.9336777
  28.2747192  58.6692467  71.8533707  28.7791901  57.2543983  72.0396576
  67.4642563   4.1814003  79.6304245  67.1484451   3.5651302  80.2912598
  67.0191193   3.9178877  78.8250351  61.3983154  24.3123131  38.0727081
  61.1517105  24.8244495  37.3025551  61.4010696  23.4054337  37.7664490
  59.7710342  58.9198952  81.0476532  59.4357796  58.9061775  80.1511917
  59.7709923  59.8461075  81.2892380  43.1539040  61.7292900  51.5346146
  43.7634010  61.4770050  52.2282257  43.3545456  61.1349602  50.8116035
  65.2624817  14.1149740  78.0172729  65.4559402  13.2541714  78.3885193
  64.5409470  13.9566212  77.4085464   3.7208750  67.0249405  14.9930296
   4.2485466  66.3134689  15.3558025   4.3530312  67.5886612  14.5471220
  53.0391273  20.1996937  87.6414490  53.3044853  19.2930717  87.7958984
  53.0505180  20.6037178  88.5091248  73.1749725   2.1258733  11.5024481
  73.0299225   3.0206265  11.8100338  72.3095932   1.7181054  11.5351791
  20.5097866  35.4347992   0.9346169  20.2891655  35.3854141   1.8647349
  19.9863987  34.7445679   0.5273376  43.0284195  66.2844772  66.2045212
  42.4801826  65.9197083  65.5098267  43.0399094  67.2257843  66.0312119
  44.5583496   5.6895657  42.1447754  44.5647163   6.6463599  42.1719055
  43.6316872   5.4578791  42.0826950  13.6050186  51.6257591  56.9884186
  14.1446972  52.0248451  57.6708488  14.1244621  50.8855553  56.6745567
  59.5031891  68.2447433   9.4074459  59.9271431  67.9621353  10.2177696
  58.6907158  68.6612778   9.6948729  78.6802979  18.8832569  52.7939377
  78.5739594  18.4865360  51.9293365  78.4365005  19.8003216  52.6682930
  85.3870468  22.3917904  24.7167091  86.3038940  22.1242924  24.7805290
  84.9133530  21.5809841  24.5311375  55.9817963  25.3484097  35.0326767
  55.5185547  25.4894123  34.2069893  55.2877502  25.2838974  35.6887054
  32.1464005  21.0583801  79.2358780  31.6728020  20.8572655  78.4287338
  32.0849380  22.0099926  79.3188782  31.8977947  61.1911240  49.0386734
  32.3959351  60.8391418  49.7763748  32.5550842  61.3556480  48.3625565
   4.1708307  33.7751427  62.6975822   3.9634795  32.9866180  62.1961212
   5.1189256  33.7364998  62.8235016  76.8076782  20.2564487  27.0164204
  77.5801926  20.8082294  26.8939476  76.7296906  19.7682190  26.1967983
   1.9407158  64.8467636  74.6713715   1.1614436  64.6717758  74.1437912
   2.6617970  64.8436432  74.0418777  51.5563850   6.0412817  25.9566383
  52.2287636   5.5453162  26.4237099  51.6965752   5.8253641  25.0347061
  35.1961327  51.2744484  36.6057968  34.7209282  51.5302010  37.3963699
  36.1073036  51.5029716  36.7895699  76.0496063  44.6354294  14.1199131
  75.3283081  45.1728783  14.4472027  76.0517273  43.8654366  14.6885405
  48.4588051  18.6949368  57.9674339  48.4863815  17.7395821  57.9148254
  47.6914253  18.8830070  58.5077934   6.0570908  28.4148636  83.6299820
   6.0084033  27.5699139  84.0771103   5.1538825  28.6034451  83.3752594
  66.0054321  62.9882889  72.3404541  65.5494614  62.9731598  73.1819382
  65.3648605  63.3489151  71.7273865  44.7389030  56.2304840   1.7884142
  43.8680305  56.2200432   2.1855266  45.1507835  55.4219322   2.0930986
  35.1541481  34.7611465  79.2596512  35.0782623  33.8717957  78.9139252
  35.1703644  35.3196716  78.4824600  85.3404160  28.7912312  69.6016312
  85.1429749  29.6281338  70.0221634  85.6037827  28.2177696  70.3213654
  66.6590042  55.1682167  14.2613316  67.1104813  55.1279907  13.4182520
  66.4175339  56.0891876  14.3600121   8.6122456  37.5833664  22.9077454
   7.6960874  37.3303947  23.0212879   8.5778885  38.3693199  22.3624668
  51.3436203  49.1449814  48.7145424  50.8480453  48.4017830  49.0584793
  50.7445679  49.5683365  48.0996132  64.3439636  66.9358978  73.4132156
  63.4430466  66.9529877  73.0902710  64.3007812  66.4165039  74.2160797
  41.7703781  50.8260574  55.3222733  42.2343178  50.1755142  55.8493271
  41.5677414  50.3715134  54.5046196  77.4410858  32.6631165  14.4390459
  77.8101044  31.7937069  14.2835283  78.1481018  33.1514740  14.8607788
  54.8733025  24.1011200  28.5806084  55.0828934  23.9120750  27.6659698
  55.1810570  23.3323269  29.0606880  31.0928230  53.0718498   6.1732068
  30.9413815  53.9871101   6.4089975  30.7420216  52.5732117   6.9111304
  15.7959795  51.5773048  47.5491028  14.9617634  51.8536949  47.9284744
  16.4189816  52.2496414  47.8248978  49.5193901  20.6829987  24.4169674
  49.9887123  21.2117577  23.7716904  49.5666695  21.1937237  25.2251492
  73.3133621  50.7262383  21.1229630  73.7900772  50.9722595  21.9157104
  72.5295792  50.2800026  21.4435749  82.7606049  48.2898674  29.4460144
  81.9424057  47.7934494  29.4269657  83.3201675  47.8540878  28.8031979
  14.5724382  64.5459900  41.2903938  14.6181297  65.3915176  40.8440437
  15.3379688  64.0663910  40.9738808  61.1180038  67.2513657  56.2842979
  60.8282356  67.3739471  55.3802872  61.3133621  68.1353531  56.5951500
  63.8712502   7.3522286   4.8302016  63.9195786   7.9271278   5.5939994
  64.4094162   7.7870283   4.1687226  26.3140469  53.1550064  46.4738693
  27.0624542  53.7517624  46.4726334  25.6601524  53.5897598  45.9264717
  72.3468933   3.4072750   8.6551952  72.4691010   3.3332584   9.6016731
  72.2004852   2.5080690   8.3615532  45.1825829  63.9550514  29.3392906
  45.1969910  64.9113007  29.3793907  45.3522949  63.7513123  28.4195518
  27.4720516  50.7176476  47.9606819  27.1983166  51.4761086  47.4448929
  27.3206635  50.9785194  48.8691177  24.2260075  18.4688911  72.1753082
  23.9641056  19.3339634  72.4904099  24.2472038  17.9237919  72.9618454
   8.9133644  64.9320145  17.5319595   8.9867945  65.6015244  16.8518162
   8.9038458  64.1035919  17.0525341  -0.2064445  28.0802402  45.5539131
   0.4541181  28.4446983  46.1430321   0.2518737  27.3860760  45.0802994
   5.5388746  54.2202454  80.5124893   4.7675481  54.2938919  79.9504776
   6.2783461  54.2140121  79.9047318  64.2406845  52.6838074  47.8291588
  65.0997086  52.9377518  47.4917946  64.4199829  52.3339043  48.7018852
  27.3520908  69.3252487  42.9686584  27.5373325  68.4857101  43.3894882
  26.5935001  69.1515808  42.4113312  45.3974113  45.2066460  87.7852325
  45.5987701  46.1333466  87.6551743  46.0257645  44.9154587  88.4459991
  45.5161400  17.6455879  78.4265900  45.1836624  16.8128719  78.7616653
  46.4492874  17.4897633  78.2810440  80.4470139  26.8450451  36.9908257
  81.0935287  26.7516060  36.2911644  80.0632248  27.7102757  36.8483124
   7.7221518  18.0332260  17.1245117   8.0710678  17.6030960  16.3438206
   7.2428827  18.7899609  16.7870426  16.3783550  10.4378843  27.9139194
  16.6984730  10.9939566  27.2036095  17.0419693  10.5186634  28.5989933
   3.1218522  59.7366371  57.6363220   2.3788657  59.3213882  57.1984024
   3.8828645  59.4721794  57.1194496  23.4123363  60.6901436  31.4512444
  23.9520855  61.0553818  30.7501717  22.8921833  60.0099564  31.0234394
  74.5621490  33.3654175  82.5783920  75.0752487  32.5764236  82.7528915
  75.1631927  34.0874367  82.7618713  12.9219666  46.6219826  28.4152832
  13.7012062  46.1726074  28.0880508  12.1957827  46.0447350  28.1793327
   9.1823483  57.8701744  64.6378784   9.4176054  58.2628555  65.4785309
   9.9563923  57.9970856  64.0892639   5.8656182  41.2614174  26.3025360
   5.6600976  41.8450966  27.0328178   6.0519276  40.4180298  26.7151127
  66.2316971  29.3197308  10.3892145  66.5430756  28.9688530  11.2235775
  65.8515472  30.1690884  10.6134968   8.3280745  14.5908642  86.4447250
   7.7687011  15.1485195  85.9040298   7.7726789  14.3374977  87.1819992
  58.0013237  14.6812897  29.9744015  57.2783623  15.2305641  29.6713219
  58.0527306  14.8506222  30.9151001  62.6801720   4.1048098  82.9031143
  62.2371788   3.9905443  83.7439041  62.8608513   5.0434766  82.8532028
  73.7824783  22.1541328  10.5343609  73.1736526  21.5740871  10.9916468
  74.2160263  21.5897102   9.8942871  36.4515381  53.9519539  64.7077026
  37.0611725  53.4967880  64.1268387  35.8204613  54.3636971  64.1174164
  54.7683029  10.4233532  80.6250153  53.9557686  10.4402866  80.1193085
  55.2560692  11.1884956  80.3202667  57.8091240  71.1693497  17.9275475
  58.6918449  71.3424072  17.6003056  57.4853020  70.4560776  17.3774433
  55.8667526  27.2545109  39.2263412  55.3906021  26.4295597  39.3210640
  56.7512932  27.0572453  39.5344124  48.4982910  29.5511627  42.4606552
  47.6187630  29.7356491  42.1310654  48.7073059  30.3007317  43.0180511
  72.8912735  26.5558586   5.2344069  72.3185577  26.8358078   5.9484458
  72.7639008  27.2154713   4.5525560  84.9456940  31.2874928   1.5007987
  84.7009048  31.2339363   2.4246185  84.8208466  32.2087631   1.2729617
  58.6160240  40.1951981  82.6883163  59.3746796  40.7276306  82.9274597
  58.2892685  39.8559265  83.5215988  76.9263535  49.7064934  45.8042488
  77.3633652  50.3387489  45.2337151  76.0006943  49.9466934  45.7632484
   7.5175219  20.0633259  53.2182503   6.9682679  20.7909718  52.9265556
   8.3339729  20.4769154  53.4985733  57.3127708  60.7930679  50.2524719
  56.9468193  59.9094086  50.2142563  57.8616524  60.7912903  51.0366631
  12.9721203  20.6533356  67.7053375  13.8361502  20.7946301  67.3184052
  12.6690311  19.8308792  67.3207169  17.3815823  44.5274925   6.6342735
  17.6957111  43.9247360   7.3082447  17.1769047  45.3327065   7.1096396
  59.6606102  55.4149742  73.8619461  59.4667282  54.4890022  74.0075989
  58.8131104  55.8068657  73.6512299   1.9284737  52.8668175  29.2847576
   1.0833354  52.6952705  28.8693733   1.7862848  52.6646118  30.2094879
  11.4548893  48.9638405  44.6211166  11.7485781  49.0319405  43.7126350
  12.1942215  49.2861061  45.1366386  83.9920731  17.7915306  61.9724693
  83.1711731  17.7585850  62.4636536  84.1399155  16.8882961  61.6922150
  32.4694519   5.3753285  15.1020546  32.7890968   5.5653577  15.9840679
  31.7059288   4.8146682  15.2396221  30.7667255  27.8189049  12.0646009
  31.5552502  28.2926331  11.7999516  31.0908985  26.9838600  12.4020090
  10.4367685  39.9376488  41.7536545  10.6255178  40.6803551  42.3272324
  10.0293264  39.2891159  42.3277893  31.5570469  55.0403481  62.7418327
  32.0093422  55.8824463  62.6915131  32.0486946  54.5430908  63.3954735
  55.9470100  71.3297424  73.5480804  55.9917488  70.5104675  73.0551071
  56.0154572  71.0618973  74.4644852  12.1536913  64.9195938  27.7906551
  12.9908447  64.4654694  27.6948566  12.3532534  65.8343277  27.5914974
  67.6912231  63.5361938  75.4648666  68.4192429  63.1903572  75.9812088
  67.7271957  63.0473213  74.6427078  69.8889160  12.0095882  84.2242126
  70.6629791  12.4365244  84.5913467  70.2283554  11.2207918  83.8013535
  51.8693542   1.1382762  20.1025448  51.6627960   0.4135404  19.5123539
  51.4612198   1.9024403  19.6954651  42.8281631  23.3586254  87.1571426
  42.4561844  22.6916943  86.5800247  42.3453598  23.2614098  87.9779205
   7.9694672  44.2744751  37.9854584   8.7609768  44.7688980  37.7726440
   8.2448406  43.3581505  37.9580650  77.4709396  68.3993149  47.7224350
  77.0945740  68.3741150  46.8426933  78.4042816  68.5561981  47.5792427
  45.0050087  69.6422119  19.2011375  44.2771988  69.0341034  19.3305016
  45.4097023  69.7186737  20.0652008  53.8330765  71.6237411  77.9413986
  53.5644646  70.8548279  78.4442368  54.5383263  72.0134354  78.4580994
  81.3737335  45.6321144  77.7320251  81.8071442  45.3990479  78.5530396
  82.0277710  46.1397362  77.2516251   3.2496803   9.4504566  22.0291615
   4.1735582   9.6937208  22.0883541   3.2557075   8.5842171  21.6219463
   0.5258824  59.3351860   9.3961658   1.1756074  58.6424026   9.5150928
  -0.2084021  58.9026451   8.9603148   1.3276781  56.2078438   7.1797791
   0.4164730  55.9438438   7.3072238   1.2871784  56.8949051   6.5145469
  64.2895203  54.3781929  50.7044449  64.8549805  54.4910202  51.4684868
  64.2256317  53.4298058  50.5917168  75.3317871  31.6852570  63.1158371
  75.0472717  31.6760502  64.0297318  74.6718674  31.1678181  62.6543159
  47.1026306  37.4875488  31.1432552  47.2608223  38.2597275  30.6001663
  47.1477623  36.7518730  30.5325394  49.1608582  48.9113045  85.6837692
  48.9065323  49.1786118  86.5670013  48.9140549  47.9878845  85.6326065
  53.0029869  17.4869099  10.6900339  52.2580795  16.8860168  10.6735287
  53.7686806  16.9221153  10.5853767  64.2333450  43.6435699  21.6635303
  64.2181091  44.4123650  21.0934849  63.4684753  43.7496223  22.2291813
  85.6879730  62.5011597  38.7026672  85.0593109  62.7562599  39.3779030
  86.5418243  62.5813141  39.1278152  35.2137642  70.1227798  65.9749298
  36.0069618  69.7623444  66.3713608  34.9779053  70.8596497  66.5385132
  79.6698990  25.2152424  11.1517611  79.1696014  24.6452465  11.7357435
  80.3778534  24.6604900  10.8242235  11.9841633  37.9789925  81.7982559
  11.2704515  37.9542923  82.4356232  12.7207747  37.5643005  82.2473297
  79.3452682  11.6369085   9.2915392  79.7696609  10.8906498   9.7148857
  79.0606003  12.1934509  10.0164213  71.9755249  22.9910698  71.8948212
  71.9601517  23.9167442  71.6516647  71.1967926  22.6212101  71.4788589
   8.4510546  29.0673561   4.5189333   9.3325405  28.8294659   4.2314920
   8.2723770  29.8991165   4.0802069  84.8255539  59.5626755  30.7825661
  85.0225143  60.1905060  31.4777393  84.9853210  58.7068596  31.1804237
  14.1945105  28.1683102  70.7578659  14.7362680  28.1904755  69.9690475
  13.6569166  28.9582767  70.7014847  73.2313461  57.1284180  43.6676826
  73.1238403  56.9267197  44.5971947  73.3486481  56.2754211  43.2495079
  27.2614651   7.8292136  83.6406860  27.7597580   8.5972738  83.3613663
  27.0672932   7.9923587  84.5636749  64.7208099  20.5101700  19.1161118
  64.7457428  20.2884693  18.1852741  64.2431564  19.7867107  19.5219250
  58.0198708   2.1688008  70.6121750  58.5784264   1.9912539  71.3689575
  58.4273872   2.9223950  70.1852570  21.3279686  59.7124100  35.3126869
  22.1515846  59.2857552  35.0763512  20.6612053  59.0399857  35.1730232
  62.6014938  15.4917336  11.5886526  62.0705681  15.8410196  12.3044386
  63.4670105  15.3587914  11.9752188  48.0820618   9.5539150   0.7061042
  48.3829041   8.6595869   0.8670518  47.7654610   9.8569117   1.5570960
  53.1700783  36.9361076  54.0435829  53.0771561  35.9835739  54.0602989
  53.4629059  37.1637115  54.9260101  50.4643326  58.0393333  78.3033295
  50.9358864  58.8675461  78.2142944  50.0054283  57.9342117  77.4699097
  19.6477661  32.1161423  21.9871578  18.7909851  31.9960041  22.3967037
  20.0943546  32.7505913  22.5477505  23.7689743  35.9486580  76.1673584
  22.9606152  35.5186005  76.4463501  24.4595184  35.5007553  76.6559982
   5.5184302  56.3031731  69.4339752   4.8466673  55.9597130  70.0230408
   5.8101487  55.5413246  68.9332504   5.3409204  16.1873436  48.6602745
   6.0152879  16.0359802  47.9980431   4.9805169  15.3185825  48.8380318
   3.8547001  41.9451523  85.9785156   4.5258694  41.6114998  85.3831711
   3.6980259  42.8423843  85.6841431  25.2896614  16.8755531   1.9967386
  25.3558044  17.3599415   2.8196747  26.1884613  16.6098900   1.8022815
   4.2948632  44.8114548  88.2421417   4.8759408  44.7409592  87.4847717
   3.8724074  45.6644478  88.1413345   8.7421999  22.7293434  66.4229660
   8.1375275  23.1590137  65.8180008   8.5270014  23.0987530  67.2793884
   2.6366053  19.8934422  82.3501282   2.6338565  19.1103191  81.7997284
   1.7617490  20.2661324  82.2407608  67.4416428   2.7727554  62.5758476
  68.0162048   2.0801547  62.2496414  67.9207764   3.1549566  63.3110924
  59.9309006  16.3718166   9.5728798  59.8937759  17.3056049   9.7799873
  60.6691132  16.2895565   8.9691334  35.9586601  12.9249573  15.7499275
  36.0882034  12.6870689  16.6680012  36.3249397  12.1899996  15.2580853
  66.8824463  66.7884064  16.4348526  67.6002655  67.0406342  17.0156765
  66.2730713  67.5255814  16.4731255  29.0704994  12.8007345  64.5125046
  28.2303143  12.6831741  64.0692215  29.7246685  12.6045055  63.8418388
  67.5260620  49.5949326  73.2841873  67.1077423  49.7087059  74.1375885
  67.7148590  50.4857979  72.9893188  85.8197021  28.5590420  11.0588207
  86.4457550  28.9994469  11.6335735  85.2068634  28.1301785  11.6560898
  70.6492615   1.0802498  25.8466625  70.5168533   1.6369617  26.6139774
  71.1575241   0.3381301  26.1740150  10.3593054  21.8367214   4.8149314
  10.4561100  21.5432968   5.7208910  10.5439224  22.7754288   4.8461771
  81.5014420  11.7021856  19.7578907  81.9872284  10.8774920  19.7692413
  81.4291306  11.9502697  20.6795502  10.3437233  13.0619135  86.6565247
  10.9196815  13.2721224  87.3915863   9.6999350  13.7701988  86.6465225
  86.4729919  48.6920662  66.1411209  85.5845032  48.4132500  66.3626480
  86.3574753  49.5369377  65.7062836   0.6927517  51.6464844  59.8648605
  -0.0324427  52.2546730  59.7219162   0.8245226  51.6494827  60.8129425
  42.0745163  21.7653255  63.6836815  42.2307930  22.2628117  64.4863739
  42.4669876  20.9087696  63.8525238   0.7642331  17.4798222  12.9232922
   0.5668630  16.5435944  12.8958645   1.6860040  17.5377426  12.6718655
  18.5700703  21.3144798   2.1716347  18.5069962  20.4393959   2.5543642
  17.8559475  21.8056202   2.5778906  71.0007935  41.9971771  22.4304619
  71.4948959  42.4421844  21.7419415  70.1771927  41.7478447  22.0112419
   4.5845490  49.8913803  70.3874588   3.8739800  50.2173233  70.9398041
   4.7786655  49.0211411  70.7356491  28.9929256  27.2320004   2.0906899
  28.2523117  27.4932995   1.5434748  28.6020031  26.7031784   2.7862175
  70.8334045  49.9380913  64.1260071  70.3019333  49.2834396  63.6730194
  70.7039719  49.7501373  65.0556107  86.9659119  13.9471388  53.5583534
  86.7683029  13.0197687  53.4273300  86.4971619  14.1810503  54.3594742
  35.6367836  57.7271729  37.3836899  35.9388924  56.8374557  37.5663681
  34.7708626  57.6105576  36.9927750  39.3501778   2.3621578  66.8068695
  39.1697731   3.1647503  67.2962875  38.6255112   1.7777945  67.0296097
  24.7371426  60.5417099  68.9293594  24.0790520  60.5056686  68.2352066
  24.8671646  61.4767036  69.0878220  66.1118240   4.9958382  87.9988174
  66.9762192   4.7381449  88.3192062  65.9409027   5.8375354  88.4213867
  57.6367874   5.4242692  43.7702065  58.0213127   4.5921993  43.4944687
  56.8545609   5.5184441  43.2266197  25.6873207  20.2771950  48.5481796
  25.3864346  19.8668900  47.7374077  25.8271618  19.5455456  49.1493149
  63.8241310   2.1015024  55.8458290  63.2835274   2.7748377  55.4327927
  64.7053909   2.4750085  55.8563499  79.7058945  65.2670975  49.8544312
  79.4021835  64.3974380  50.1146011  78.9923401  65.8544540  50.1035957
  74.7854919  14.3766212  13.9378004  74.7058411  14.8816051  13.1285543
  74.2861633  13.5771227  13.7713470  63.2394524  47.2061272  46.5649948
  64.0622787  46.8174324  46.2681732  63.4503937  47.5939255  47.4143143
  58.0887756  62.3715096  80.5310211  58.3706017  61.8560905  79.7752762
  58.8259926  62.9547424  80.7115326  59.0639114  12.4274597  34.4789886
  59.0880699  11.7121115  33.8434372  58.8203087  12.0070210  35.3036804
  37.5146141  32.4983101  83.5791321  37.0894585  32.8556900  84.3587189
  38.4321060  32.7566071  83.6670151  23.9278908  13.3339710   9.3342400
  23.3140678  13.2587099   8.6036310  24.2487736  14.2344751   9.2856827
  54.0370827   4.5314255   2.8332729  54.6324501   4.2437654   3.5253870
  54.3652611   4.1041050   2.0421169  83.2221832  16.4547882  58.1653519
  84.1701736  16.3242702  58.1425514  82.9617462  16.1668568  59.0402794
  66.3421707  26.2079296  63.0383568  65.5879669  26.1525440  63.6251640
  66.5720444  27.1370869  63.0308151  50.5633698  41.1097336   4.0429387
  49.8604774  40.6824722   3.5534284  50.8370323  40.4573746   4.6877375
  64.6317825  13.5992689  60.0336037  64.2185822  13.3103828  59.2199440
  63.9568520  14.1148224  60.4750786  13.6179380  33.1791420  62.8373642
  13.5418577  33.8082771  62.1199875  13.1465759  32.4054489  62.5284119
  67.0622177  13.9048138  38.8888512  67.2312088  13.6179371  37.9914246
  66.7411880  13.1208525  39.3344688  80.9089813  31.5489922  24.6630306
  80.9529495  30.6016388  24.7927265  80.9959412  31.9154987  25.5429993
  21.4400501  26.4259338  72.5613174  22.3366470  26.5402126  72.8764114
  21.5396557  26.1533623  71.6491623  81.1864319  31.2379208   1.5583478
  81.0791779  31.1498585   0.6112607  82.1178055  31.0772667   1.7098819
  27.1506844  63.2884216  31.1000710  26.7788677  63.8492012  30.4192581
  27.9682312  63.7209435  31.3465900  54.8901253  43.8015556   4.2375236
  55.0610580  44.6260185   3.7822533  53.9971771  43.5683708   3.9835517
  17.6430569  69.2285233  81.0543365  16.9843426  69.7407913  81.5232849
  17.4719620  69.4074097  80.1296997  76.7378998  40.8996124  83.2366257
  77.4569778  40.5704727  83.7759018  77.0496445  41.7441101  82.9112473
   7.9824080  35.8873444   4.3857250   7.2695742  35.2569504   4.4891634
   7.7387662  36.4000626   3.6150167  50.4871597  10.8064384  11.4646397
  51.2794495  10.8583860  11.9992552  50.5090141   9.9263210  11.0889425
  37.5618362  39.2313385  51.2951660  36.9081573  39.3215332  50.6017685
  38.0647850  40.0448837  51.2574806  82.2143402  60.7523918  79.0102310
  81.9625702  60.1025314  78.3540878  81.5665817  61.4508514  78.9164200
  47.3416786  50.3671227  79.2542725  47.7857590  50.1205444  80.0655823
  47.8834381  51.0658493  78.8875122  29.1767807  31.0985489  76.8604126
  29.1479912  31.0441055  75.9051971  28.3055420  31.4073143  77.1090851
  52.3448601  19.9627819  17.5238857  51.7349129  19.6913319  18.2098236
  52.0465965  19.4995689  16.7411289  72.2534256  43.1042061  84.0189819
  71.4330292  43.2497482  83.5478134  72.8740234  43.7085114  83.6116562
  75.6698532  26.1617413  53.2426147  74.9194031  25.5689278  53.2022629
  76.4232941  25.6087589  53.0358200  56.8013191  62.3419266   4.3899608
  57.0854568  61.9519844   3.5632534  56.8714485  63.2856712   4.2462368
  18.2665462  54.8485336  50.5615463  18.7287178  55.6298637  50.8651123
  18.5330982  54.1605263  51.1713257  44.1065102  34.7715836  75.7003403
  44.4156837  34.7662468  74.7944641  43.3687515  34.1617317  75.7052155
  24.9525528  59.1563148  89.0927963  25.5457115  59.5017662  88.4256744
  25.5266094  58.7123489  89.7169647  52.1424866  49.2775116   9.7442350
  52.8483009  48.6342049   9.6793251  52.0128784  49.3967590  10.6850929
  59.7014008  62.4148483  76.0862885  60.5293503  62.3582268  75.6092911
  59.8697701  63.0481606  76.7839966  69.8172531  51.8461609  53.8715668
  69.6225662  52.3763580  53.0987663  70.4921875  51.2340698  53.5782547
  41.7620811  71.0662766  62.7859955  41.8908653  71.9993591  62.6156578
  40.9538383  70.8474655  62.3222084  16.6871014   0.9141964  44.4736786
  17.5308533   0.6458191  44.8373947  16.8054600   0.8557097  43.5256271
  30.2035961  59.4187622  79.8822784  31.0710182  59.0649185  80.0787582
  29.8537674  58.8352280  79.2089767  10.4065456   7.1807957  20.3052425
  10.7627611   7.5742235  21.1018333  10.8620586   6.3425012  20.2277718
  44.6126060  63.3190193  42.2072105  44.5649376  64.0211716  42.8560066
  44.4061279  62.5241470  42.6989212  80.8351212  27.9917030  83.5748062
  81.4601593  28.2520695  84.2513885  80.1876221  28.6965694  83.5628738
  82.4446106  33.0413780  34.4553986  82.4836884  32.6331406  35.3202934
  82.8924408  33.8801003  34.5659752   9.5771379  60.0292969  41.6506729
  10.4624071  59.7693024  41.9054909   9.4969110  59.7454262  40.7400589
  83.6020432  34.9999275  64.2153702  82.6453552  34.9687691  64.2154922
  83.8186874  35.7036400  63.6037407  45.2501488  28.0143909  72.7669907
  44.7817345  28.0393505  73.6013794  45.8801155  27.3007221  72.8672333
  57.5256920  34.8641777   3.1681995  56.8404846  35.0651665   3.8056378
  57.0787582  34.3628197   2.4861987  75.5064926  65.5392532  38.6721382
  74.5928726  65.3303680  38.4774284  75.9460373  64.6893616  38.6988869
  43.9800415  52.6145554  47.0676956  43.0343933  52.5409317  46.9390068
  44.1814041  51.9648666  47.7411880  17.8264389   8.4911137   1.2622911
  18.7763977   8.4033003   1.3403840  17.6972523   8.9834480   0.4516432
  51.5915146  23.8073597  38.4167252  52.2588768  24.0165081  39.0702705
  51.2861214  24.6593418  38.1051254  72.4661713  46.2030334  77.5221634
  72.2665024  46.4764557  76.6268463  73.2470703  46.7042503  77.7571487
  43.6186371  47.5746193  45.8151245  44.1192207  46.7776031  45.9895172
  43.0879440  47.7010498  46.6016464  25.4675636   0.6364865  54.5708809
  25.1050339  -0.1463944  54.1562691  26.3306580   0.3644573  54.8828087
  78.6594620  16.3270245  34.5625992  78.3950577  15.7103138  33.8799629
  79.6001816  16.1825600  34.6645889   4.6965566  21.0583115  71.5163574
   4.7131801  20.1095371  71.3907242   4.7546000  21.4181671  70.6312790
  26.2207050  66.3451385  69.0333557  25.2774944  66.1921158  69.0896835
  26.3392010  67.2351303  69.3651657  78.3441010  52.0617218  48.1693306
  77.6700363  52.0820274  47.4900246  79.1693878  52.0163803  47.6865540
  37.3498802   2.1057799  36.0939598  36.3996811   1.9954067  36.1281891
  37.5013962   2.9855981  36.4392090  19.0522156  37.2762909  23.2449780
  19.4571400  37.4719810  24.0899467  18.1634998  36.9964752  23.4643459
  64.7907486  16.0445137   1.5756649  64.6636810  15.1423435   1.2821103
  64.5527954  16.0304985   2.5027120   2.6597309   7.1897082  59.4949913
   3.1520381   7.7085419  58.8588486   3.3262365   6.6794200  59.9550018
  70.7573776  16.6594353   7.9417901  69.9813690  16.4107571   8.4439802
  70.6039658  16.2975655   7.0690093  38.7862625   0.4164152  44.1530304
  38.1268311  -0.0528520  44.6640778  38.6633377   0.1021956  43.2572670
  80.9388962   5.8450150  61.6115761  81.2307129   4.9535742  61.8023758
  80.0491409   5.8859611  61.9621468  55.0754013   6.5290074  15.5606928
  54.2565384   6.3494930  15.0986633  55.4636955   5.6659269  15.7040558
   6.6133299  10.9516077  45.8826027   7.4624319  11.1775284  46.2623634
   6.0026741  10.9950285  46.6184311  21.7083340   3.9902472  85.5088501
  21.8414326   4.0247979  84.5615768  22.3265762   3.3260272  85.8135071
  31.7122364  22.9064121  11.2995186  31.0603142  22.2522469  11.0479279
  31.5449276  23.0663986  12.2283039  53.2762070  14.4160347  40.3225746
  52.5531960  13.8085651  40.1661491  52.8547478  15.2109232  40.6493111
  13.4265194  66.0660629   6.4416776  12.6079750  66.2899323   6.8845072
  13.4767790  66.6781082   5.7074409  49.8764534  16.5195885  60.1098785
  49.1591682  16.1238556  59.6147728  50.6001587  16.5685787  59.4853134
   7.1606655  48.7461357  26.9562817   6.8883877  48.4712296  27.8317947
   7.8917398  48.1673393  26.7400436  69.8167114   7.2498398  34.1828728
  69.2106323   6.5602384  33.9120331  70.3310013   6.8539662  34.8864441
  82.0980453  37.5194931  19.8808270  82.3804932  37.9181900  20.7039280
  82.8301620  36.9597054  19.6222210  18.2320366   4.9318061  78.5814819
  18.8789921   4.8649764  77.8791962  18.5829353   4.3836346  79.2833481
  21.9238052  70.5038528  72.5300064  21.9148808  71.1286774  71.8049240
  21.4839764  70.9618454  73.2462692   1.2102329  42.6584740  41.8795090
   0.9850144  41.7284546  41.8555603   0.8506994  42.9706726  42.7098694
  52.2763977   6.1144686  23.3066254  53.1326637   5.9611373  22.9072151
  51.6612206   6.0827441  22.5739708  35.5732574  24.6642227  76.3485336
  36.2168579  23.9573879  76.2995758  36.0153465  25.3571262  76.8391190
  84.9509277  31.1303329  40.1855087  84.2800674  30.4475765  40.1899376
  84.5196228  31.8873463  39.7891083  33.8524818  36.8563080   4.6067290
  33.9687004  37.5464363   5.2597561  34.6767502  36.3699417   4.6229610
  74.7408218  57.3760376  64.3480301  75.5886459  57.8049583  64.4640427
  74.9451294  56.4409714  64.3358994  11.8293619  64.8901443  81.5070114
  12.7382097  65.0319290  81.2422028  11.8867130  64.2820358  82.2439957
  56.2894325  36.6284027  24.3742523  57.2255516  36.5820122  24.5685673
  55.8625374  36.3504143  25.1846313  33.3780518   3.8159802  55.5588493
  33.8906174   4.4989147  55.1262894  33.5750427   3.0198345  55.0653114
  37.2811775  57.9883080   3.6575615  36.6386757  57.3292580   3.9203820
  38.0570221  57.4829903   3.4147654  33.1001053  47.3342857  19.9836311
  33.3634033  46.4322281  19.8014297  32.1676865  47.2742882  20.1915417
  20.0820942   7.6802568  76.7293777  19.2786045   8.1706362  76.9030533
  20.5029831   7.5992484  77.5852585   5.2081118  64.8259583  41.4076576
   4.7835655  65.0030746  40.5682373   4.5299706  64.9998245  42.0604401
  43.4951477  66.5678253  36.1972237  42.9012260  67.0379562  35.6120148
  43.2523041  65.6474838  36.0960808  10.5049782  41.0611954  20.9795837
   9.6455593  40.9104500  21.3731651  11.0178204  40.2900467  21.2215576
  16.1256905  64.9413071  47.2541008  15.4425325  64.8171387  46.5952301
  16.3128872  64.0588760  47.5742645  50.5829811   3.8411462  46.4667358
  50.7171745   3.1592896  45.8084831  51.0028305   4.6175432  46.0963745
  28.0923862  48.9362793  29.6923790  28.0838470  49.8419266  29.3826027
  28.5911827  48.4606361  29.0281506   6.9921427  58.3225174  62.9504166
   7.6912718  58.1581001  63.5832024   6.2019858  57.9871216  63.3739700
  40.4254036  60.5573997  27.3375721  40.2208595  60.7512054  28.2523575
  39.8325920  61.1169395  26.8358574   2.6107337  35.2758102  19.1146069
   3.2937376  35.6106720  18.5335693   2.1301198  34.6438065  18.5799885
  56.7438660  71.2389984  40.6699257  56.3784752  70.3581543  40.5872765
  57.5098877  71.2353668  40.0959702  30.5268021  45.6397591  66.3874969
  30.5007687  44.6841278  66.4356766  30.4000759  45.9286766  67.2912140
  77.2290878  64.3993073  23.1967068  76.7433395  63.9353485  23.8786373
  77.8305359  64.9688339  23.6764145  13.1593962  46.0934753  46.9162407
  13.3437042  45.5377350  47.6734810  13.6069059  46.9173317  47.1091881
  60.8195419  67.4262924   6.9674635  60.3978348  67.3264847   7.8209457
  60.2424965  66.9638901   6.3596520  58.7796326  14.8184700  81.3527145
  59.3265305  14.2415991  81.8859634  58.0422096  15.0417852  81.9206619
  35.8340225  19.7136307  70.5012360  35.2700882  19.8880138  71.2547607
  36.0265770  18.7777004  70.5576859  45.0001831  64.1303558  84.5415573
  44.7483902  63.6604156  83.7465744  45.4519081  63.4755630  85.0739365
  54.0574379   0.7241922  58.7066422  53.6245308   0.6859767  59.5594940
  53.3392105   0.7518141  58.0744896  61.6572609  44.8620262  71.6845398
  62.1271133  45.5319557  71.1878815  61.9992027  44.0326004  71.3508377
  47.1086998   0.9048258  17.1334515  47.7267380   0.2507919  16.8071041
  47.6015167   1.7253690  17.1247940   2.6385701  51.4389839  24.9071789
   3.3423588  50.8815804  25.2391644   1.9070821  51.2823715  25.5043640
   0.9768887   0.5415525   5.5943956   0.9378268  -0.2305636   6.1587915
   1.8942689   0.5964247   5.3267493  80.4104996   8.2182655  59.7822609
  79.6046219   8.6598444  60.0502243  80.7011185   7.7533350  60.5668678
  18.8300896   1.3827915  14.3686323  18.9280052   0.5625956  14.8522882
  19.6683025   1.8303771  14.4839468  24.3057308  23.3642235  72.2740936
  24.4407539  23.9227810  71.5085831  24.9110050  23.7079582  72.9311523
  26.9417038  33.8081131  51.3169289  26.0283260  33.6075249  51.1126366
  27.4365406  33.0794296  50.9422455  38.0872574  20.5775681  79.7201920
  38.0788689  19.8925762  79.0516510  37.4297791  20.2984104  80.3573914
  37.2308960   3.9625123   5.1220150  36.2785530   3.8676257   5.1055489
  37.5054321   3.4871802   5.9061842  61.0748596  31.0963860  65.5413437
  60.8692894  30.5081043  66.2679062  61.2792244  31.9323311  65.9604721
  65.3848724   1.8721579   1.4531939  66.2771149   2.1424854   1.2362794
  64.9016876   1.9595424   0.6315285   7.7454782  46.8909836  12.7546501
   8.6112728  46.8945007  12.3464613   7.7943969  47.5715904  13.4259281
  16.2970047  70.1182861  73.1776886  16.3732491  71.0310898  73.4555435
  15.4908028  70.0913239  72.6623840  58.9564629   6.2403059  37.6848564
  59.8660240   6.5368810  37.7160530  58.6313477   6.3706727  38.5756645
  79.9762802   5.6768599  55.8983154  80.5848846   6.1973925  56.4225998
  80.2682877   5.8041539  54.9956779  77.8939667  52.7085533  76.4980392
  78.2346954  52.8651314  77.3787308  77.5868988  53.5661736  76.2040482
  41.9812317   1.0395478  30.4430046  41.5938530   1.4944441  29.6951809
  41.3548622   1.1719737  31.1545925  15.1702585   3.7830052  73.6913300
  15.3265877   4.3892736  74.4153671  14.2406960   3.5646687  73.7582169
  46.5792580  54.0208740  68.1532745  47.2794456  54.6178322  67.8894348
  46.9766235  53.1511765  68.1089935  30.7421494  44.5030785  51.5462761
  30.4861088  45.0319595  50.7906570  30.4101868  44.9881973  52.3017197
  63.1354141  23.4410286  16.2497253  63.8782043  23.7891331  15.7564573
  62.4737434  23.2516422  15.5844717  26.0415630  67.8233871  28.6454906
  26.6348076  67.6763763  29.3821602  25.9656372  66.9670792  28.2245331
  81.3108063  63.2023277  58.0567474  81.3484039  63.5262871  57.1568222
  81.4197388  63.9845123  58.5976257  61.7867775  40.4431229  42.9761772
  61.6057472  41.2739258  43.4157562  61.4079132  40.5464859  42.1032448
  11.1024046  49.7638741  69.2756729  12.0404692  49.8252563  69.4559479
  10.6843596  50.1335678  70.0533600  27.0051308  16.7784481  43.7231712
  26.2966728  16.5945225  44.3400078  26.7767982  16.2777710  42.9399605
  78.8978806   3.2388868  32.2060890  78.3963623   3.9180257  32.6571732
  78.5249557   3.2111654  31.3249588  45.0983658  69.6425781  51.9054298
  45.4211082  70.4471054  51.4994659  44.5994186  69.9413986  52.6656876
  55.9850006  16.2379684  52.2064857  55.0958633  16.0543270  52.5097084
  55.8796806  16.9447613  51.5696297  71.2225952  14.0453939  23.4158478
  71.6346588  14.3658705  24.2181740  70.6742249  14.7725534  23.1212864
  62.7730026  38.2766953  40.6351662  62.7898750  37.8555870  41.4945946
  61.9095154  38.0639420  40.2811127  57.4614220  64.6087036  76.2325287
  56.5768166  64.9731598  76.2621613  57.8792686  65.0538025  75.4952927
  22.5377884  41.5865555   7.7339163  22.9523792  42.2752457   7.2142525
  23.2068291  40.9058876   7.8067904   1.8757012   7.7249289   9.2673092
   1.4233574   6.9050264   9.0688715   1.8932502   7.7634258  10.2235737
  36.0262489  55.2479858  46.1449623  35.4601059  55.2601700  45.3732338
  36.3282089  56.1518555  46.2347832  52.3355408  15.5556002  86.6167908
  52.7404785  16.4206696  86.6793442  51.4886017  15.7170944  86.2010498
   4.9276600  26.2577953  88.6157608   4.6061630  26.1253777  87.7239456
   5.8806348  26.2723942  88.5271225  17.1642456  39.1796303  22.0645161
  16.9243126  38.5717010  22.7638645  16.5849037  39.9310112  22.1910954
  23.1596832  34.2853813   0.2667892  22.8310013  33.5540581  -0.2560528
  22.3751163  34.7751007   0.5134936  34.4369545  10.2365055   2.0665233
  34.0264549  11.1011820   2.0739172  35.3170624  10.3862410   2.4118047
  51.0498276  36.1286278  18.0273018  50.3949432  36.0499268  17.3336391
  51.7966690  36.5526428  17.6046124  72.5261230  11.5633583  24.5148506
  72.3545074  10.6872187  24.1696568  71.7900620  12.0911846  24.2052574
  62.4043007  35.4154015   5.1885900  62.5985184  35.2395248   4.2679496
  62.4512253  34.5578918   5.6113286  34.8526573  41.3556976   0.1898078
  34.4730721  42.0822372   0.6840619  35.7983551  41.4832878   0.2646972
   9.5901699  61.9532280  57.3428421  10.3388233  61.6305695  57.8444786
   9.3007174  62.7317734  57.8185730  30.1827354  59.7987671  38.1579247
  30.6804562  58.9957695  38.0039825  29.4304371  59.5180855  38.6789818
  33.6156769   3.9766982   5.0244184  33.3517914   4.3971567   4.2059989
  33.9914055   3.1391685   4.7531199   3.6545503  53.3356094  63.1438141
   3.6564162  52.4347725  62.8202019   4.0910234  53.8381271  62.4559174
   1.2661663  35.3638649  57.3190804   0.4945375  34.8137093  57.1843567
   0.9608954  36.0689507  57.8899498  34.7099266   4.6574574  17.7286091
  34.3623543   4.6963196  18.6196289  34.2569923   3.9159975  17.3269634
  86.0315094  13.5676060   5.3055487  85.5291748  14.3165474   4.9846392
  86.1337357  13.7317448   6.2430134  61.3137398  24.8302803   6.9670882
  60.9296227  24.8185043   7.8437557  62.2278938  24.5809917   7.1027689
  54.6027489  58.2178574  70.0592117  55.2172165  57.5069923  70.2417755
  54.5756950  58.2716370  69.1039047  12.4506989  49.3044739  77.4421997
  13.3685408  49.1267242  77.2367706  11.9617081  48.8926392  76.7298050
  75.0235519  26.2080765  68.8809052  74.4276733  26.9201546  68.6483154
  74.9162521  26.1051826  69.8264847  48.2222404  70.0698853  39.5686607
  47.8337669  69.4023514  40.1341019  48.2288475  69.6720505  38.6980782
  30.0218658   2.8706477  48.4910965  29.6066475   3.4642401  49.1167755
  30.1713715   3.4085510  47.7135735  28.0762844  18.1020260   7.4444814
  28.2325878  17.1593380   7.3884187  28.2720966  18.3235493   8.3548746
  74.5258789  55.2508011  34.9033737  74.1957397  56.1294937  35.0908432
  74.7612915  55.2762108  33.9759254  51.8422890   5.3203135   9.1533871
  52.1759491   5.0261397  10.0009508  50.8906746   5.2583575   9.2360106
  10.3572187   0.3507781  10.4395027   9.6071596   0.8544066  10.1232729
  10.1786308  -0.5467176  10.1587191  70.8055649   3.6969488  43.1376076
  71.1021271   3.4531121  42.2607803  71.3839417   4.4148889  43.3950424
  86.4138794   2.9364817   2.2176855  86.3132172   2.3268259   1.4866461
  86.7437897   3.7400925   1.8156894  58.1018562  12.2460594  14.8828611
  58.9589958  12.6676655  14.9444208  57.8435020  12.0947704  15.7920351
  73.1952972  58.1949501  13.6737223  74.1208267  58.3803520  13.5148172
  72.9371109  57.6258430  12.9486799  24.8453274  44.1389427  55.3344383
  24.9286804  44.8154068  54.6623688  25.7286205  44.0457153  55.6912766
  56.6304207  64.5540085  80.4965515  57.1526184  64.8617859  79.7557297
  56.9661980  63.6761932  80.6780090  14.2548084  57.5138474  42.1859894
  14.7383766  57.6337204  43.0033150  13.8312082  56.6607780  42.2812233
  13.2047796  20.6786308   6.3367848  13.6075134  21.4623260   5.9628057
  13.4897966  19.9664268   5.7642794   3.2317955  16.7604027  76.2214127
   2.6703377  16.8421116  75.4504852   4.0114870  16.3056812  75.9027557
  77.3630905  12.0493526  22.6537628  77.7193146  12.9097080  22.8754005
  76.5311737  12.2390728  22.2200050  63.6523438  35.0608215  67.6933899
  62.8363075  35.5397072  67.5485229  64.0998230  35.5528488  68.3817978
  32.8868790  70.6171494   8.1627655  32.6452332  71.4901352   8.4721813
  32.5242729  70.5676498   7.2782903  58.7025795  36.9484940  54.6090584
  58.2576637  36.1016998  54.6439438  57.9957199  37.5924339  54.6528740
  86.9508591  18.5653763  42.1335449  86.1048584  18.5810661  41.6860275
  87.2779617  17.6763325  41.9963036  22.1287270  33.9798241  14.6691341
  21.9021225  33.6325951  15.5318708  22.1125259  34.9302483  14.7816620
  55.6738625  60.9596100  75.5773163  56.3323860  60.2650261  75.5657272
  54.9099274  60.5584869  75.9917221  67.2216110  47.8191185  69.7832108
  67.0704956  47.9553833  70.7185364  68.0324936  48.2936020  69.5999832
  80.2119370   3.7969923  58.2348709  80.6060562   4.6253390  57.9614868
  80.9539108   3.2570951  58.5072784  62.8905220   4.4106808  85.9482651
  63.7910233   4.5198369  85.6426315  62.9177666   4.6668406  86.8701553
  17.0899754  42.0319901  86.3507080  16.9776592  42.0566177  87.3009796
  17.4757786  42.8805275  86.1330566   0.7285935   1.7419077  68.4892731
   1.2540542   1.5935308  67.7030716   1.3581423   1.7018597  69.2091980
  77.0067291   3.0154166  16.4333858  76.1588135   3.0490234  15.9905119
  76.7974854   2.7621815  17.3324528  15.4457712  48.7269287  72.9060974
  14.5635977  48.9420776  72.6032562  15.5424051  47.7933083  72.7183609
   5.7655706  51.9192467  42.5430336   4.8115005  51.8697433  42.4835968
   6.0487561  51.0076408  42.6138268  65.4793243  24.3897476  32.3841133
  65.9023972  24.8148689  31.6381111  64.5421600  24.4904404  32.2173347
  31.1051521  58.0984306  65.0030975  30.5677414  58.2873077  64.2338409
  30.6214428  57.4185181  65.4721146  86.6556396   8.0041170  59.0668793
  86.0882492   7.2400808  58.9641533  87.5411758   7.6421876  59.0994339
   0.4817446  58.2271843  35.4018784   1.3380171  58.1699867  35.8258553
   0.3051499  59.1662025  35.3444748   3.9962652   3.5247989  79.6608505
   3.6188684   2.7440178  79.2556534   4.2037096   3.2540197  80.5552063
  77.7910461  24.4501953  58.4314041  77.2227020  24.2870808  57.6786728
  78.4096298  23.7197380  58.4272041  26.4501209  25.6376457  10.7665205
  26.4253788  25.9834633   9.8743153  26.6244164  26.4024525  11.3150845
  23.9927521  68.2567749  78.3575211  23.4227638  68.4110489  77.6041641
  24.5185051  67.4966736  78.1083984  11.9101992  51.8570213  18.7774086
  12.2754860  52.0824585  19.6329651  12.5134039  51.2030945  18.4242077
   7.3511071  66.6239548  22.9097099   7.0173717  66.1308517  22.1602421
   8.2530088  66.3206100  23.0135746  10.8138800  14.3598232  57.2470360
  10.1296291  14.5247297  56.5983162  11.1537790  13.4938192  57.0217819
  76.8325729   6.3453293  59.0545959  77.2460022   5.5351019  59.3526535
  76.0226440   6.4015322  59.5616264  73.2043839  32.0790787  21.5688057
  72.7427673  32.8808899  21.3233566  72.7907333  31.3941727  21.0434208
  74.6869659   1.8076061  82.3449402  74.4690628   2.7330804  82.4556046
  74.3632584   1.3883278  83.1422119  19.7533340   7.3059897  67.0965042
  19.4757309   8.0020361  66.5009537  19.4009113   6.5047050  66.7092438
  79.1986237  40.0920143  84.8824310  78.5965652  39.9215775  85.6067963
  79.9711609  39.5639191  85.0837708   1.0670786  52.2874222  31.9386559
   0.4444523  51.5989609  32.1722908   1.0426728  52.8937225  32.6789513
  19.8750267  41.0698204  30.6573238  19.2480164  41.7829399  30.7779579
  20.0733452  40.7724876  31.5452957   5.0394011  18.4904747  52.8396454
   5.8183012  18.9223957  53.1903458   4.6008821  18.1261654  53.6085472
  33.0722046  50.9604378  88.5969315  32.2014809  50.5695343  88.6695251
  33.3287735  51.1432800  89.5007935   5.3726549  58.2511444  56.1323204
   5.6778908  58.2037773  55.2263298   5.6243629  57.4102592  56.5141373
  15.4392853  61.5718422  82.1658707  15.0277719  61.2991638  82.9859543
  16.3699532  61.3868179  82.2917938  44.3768005  18.5334873  69.1477737
  44.4793282  19.4018974  69.5371094  45.1475182  18.4286060  68.5898972
  40.6433220  27.2175579   8.9702921  41.5070534  27.3943996   9.3430252
  40.1469460  28.0214195   9.1240702  31.0679932  65.0701523  34.1866798
  30.8132572  65.8549576  34.6718864  31.7062149  64.6354752  34.7523270
  62.0836639  42.4134827  77.6220703  62.9840126  42.3149605  77.3123856
  61.5524750  42.3878021  76.8261948  26.7728024  50.1721649  23.2952309
  26.5563087  49.4434166  23.8768520  26.3697033  49.9390526  22.4589291
  14.6986742  50.2149429  63.2635117  14.3450708  50.5532494  64.0861588
  15.5390320  49.8260422  63.5059738   1.7114619   5.9727144  42.7960014
   2.6217518   5.7801800  42.5712051   1.3714262   6.4439135  42.0353584
  67.0534286  55.1731491  77.2788239  67.9546890  55.4950790  77.2967148
  66.8049164  55.1054916  78.2007217  65.0089493  65.7463837  69.5637894
  64.5665665  65.1586761  70.1762695  64.6467896  65.5171356  68.7079163
  73.4569626  20.6769238  32.7774925  73.8193359  19.8201790  32.5518646
  73.8022537  21.2669964  32.1075516   3.8648930  44.0474663  76.0140762
   3.7091563  44.6920815  76.7043304   3.0126977  43.9376030  75.5922623
  54.2578583  29.6311016  23.5018311  54.4172516  28.8861713  24.0814018
  54.0583611  30.3565559  24.0935650   7.7629714  59.3873520  88.1693420
   6.8283148  59.5646515  88.0634537   8.1871338  60.2282600  87.9984970
  82.7998428  67.1947556  64.1847229  82.5417099  66.7218933  64.9759216
  82.2454376  67.9750519  64.1804199  28.1796665   8.6508923  17.4241886
  28.0779724   8.0908537  16.6546135  27.8818874   9.5130739  17.1340141
   1.8282721  29.8819942  70.6910095   1.9558603  29.7458973  71.6298599
   0.9584466  30.2755470  70.6220779  25.8058186  45.1810532  21.6162376
  26.1904030  44.6746521  22.3316975  25.1697540  44.5872574  21.2174149
  63.0830116  50.1100349  79.1125259  63.5121269  49.8711395  78.2909241
  62.4673500  49.3959427  79.2776489  54.4405251  67.0501404  56.6613083
  53.8217850  66.6902695  56.0257874  54.9855614  66.3047714  56.9134789
  44.5271835  26.9827690  36.5516815  44.4187698  27.7070961  35.9353828
  43.9122238  27.1762371  37.2592316  18.7132874   7.8243108   4.3918777
  18.5574799   7.0326653   3.8768508  18.9848671   8.4789925   3.7485516
   8.8062239  19.9129086  24.9029732   8.4753351  19.6942768  24.0317993
   8.0713005  20.3468189  25.3363800  77.0826569  21.5852623  62.9098740
  76.6054916  21.7651596  63.7199249  77.8337784  22.1779404  62.9376831
  24.6301327   8.8588066  23.2289639  25.5646267   8.6518888  23.2407513
  24.2031536   8.0268049  23.0247726  17.5759525  35.5713425  14.6719685
  18.0217514  34.7309418  14.5660124  18.0652180  36.1742516  14.1121931
  41.7526855  68.2186356  81.5157852  41.4560699  69.0525742  81.1513824
  41.6236992  68.3103485  82.4598083   2.0369899  51.6077690  49.0183640
   1.5894676  51.4005852  49.8387489   2.9235761  51.2668037  49.1364365
   9.7438126  57.0149498  57.8350487  10.5327396  57.5530739  57.9002304
   9.2127094  57.2764359  58.5872345  32.0406189  68.9541016  46.8737793
  31.9332867  69.3599625  47.7340088  32.2984123  68.0522995  47.0649033
  64.1312180  41.3180962  88.8048172  65.0247269  41.6485214  88.8980255
  63.6107216  41.8660355  89.3922501  56.6771278   5.6525450  47.9333153
  57.5966873   5.4152684  47.8135490  56.6458626   6.0609083  48.7984695
  73.3571548  19.8751411  39.9433861  73.3571930  20.3218193  40.7899742
  72.5003738  20.0758591  39.5667191  31.1980305   0.7208903  25.5421696
  31.2828236  -0.0259789  26.1348152  30.5626183   1.2950257  25.9697800
  24.9729710   5.7316523  67.4222336  25.1862259   5.9348621  68.3329773
  24.2830067   6.3543029  67.1931305  40.9297562  46.2261238  21.6065102
  41.4413681  45.7930794  20.9231644  40.9883919  47.1579132  21.3954220
  62.0967979   7.5599842   1.4246640  62.9911499   7.5536132   1.7657304
  61.7477760   8.4128399   1.6836141  47.4514732   8.2571497  61.1805420
  47.8694763   8.1890965  62.0389557  48.1062202   7.9218802  60.5680618
  74.4359741  64.5160980  32.3925438  75.2452621  64.6420898  32.8879356
  74.2014999  65.3933258  32.0896873  16.4084110  35.3142891   8.7506990
  15.6578341  34.8614922   8.3661957  16.3167839  35.1724167   9.6928825
   2.1857271  12.7410707  55.1795998   2.1223686  12.3813505  54.2948303
   1.8691550  12.0382700  55.7471275  50.3717308  56.8348656  38.6390457
  50.8289833  57.6654854  38.7702751  51.0179062  56.2701225  38.2150688
  23.7490635  38.6461868  75.6629181  23.7343330  37.7742996  76.0576630
  22.8480263  38.7943916  75.3758621  22.3606987  53.7886772  71.6924591
  22.3765106  54.1381874  70.8014908  22.8543835  54.4259872  72.2085419
   6.7336516  25.6458836  62.3391991   6.7062240  25.3336792  63.2436371
   5.8952765  25.3733902  61.9662285  45.4155731  65.5839386   5.1469755
  45.6793175  64.8274155   5.6707554  45.6196404  65.3341675   4.2457538
  65.1961594  30.8320370  19.9201336  65.6075974  30.7362728  20.7790737
  65.7207108  31.4983997  19.4762497  20.5879955  11.4155140  80.3343964
  19.7471828  11.0457640  80.6037521  20.3612423  12.0697384  79.6734848
  38.3356400  53.0919762  14.5978403  38.6694260  53.3459320  13.7374191
  38.7513504  52.2484932  14.7766027  81.2285690  64.0069580  55.4461098
  80.8885345  64.1938171  54.5710716  81.8545761  63.2952003  55.3128624
  71.8834076  38.0913315  87.7657089  71.8815308  38.5209274  88.6210938
  72.1458511  37.1896744  87.9510956  13.8500280  54.2558441  31.6178532
  14.7064219  54.6791306  31.6782627  13.8349609  53.6401329  32.3505936
  29.8490868  59.9580002   9.0139637  29.3845634  59.7270432   9.8183966
  30.3176422  60.7639809   9.2309370  44.1971512  48.3120003  40.1121788
  43.3655205  48.7716026  40.2278709  44.3868370  47.9396324  40.9733391
  31.9110546  66.5897980  83.0492172  32.1160088  67.1874161  82.3301315
  31.8596172  65.7275467  82.6367798  79.8454361  34.4733276  23.1029377
  80.0078659  34.8328323  22.2308121  80.4466629  34.9507713  23.6746025
  75.4453506  41.4794846  86.9369659  76.3425903  41.7881966  86.8108902
  75.4938889  40.9090919  87.7041168  33.3414459  50.5125389  50.7642021
  33.6090965  51.4132652  50.5817604  32.5632248  50.3796310  50.2229614
  42.2497482  35.5362282   2.8396337  41.3326607  35.2932243   2.7126477
  42.5561638  34.9581604   3.5383301   0.7415296  31.0245628  -0.3021907
   1.5846448  31.1110382   0.1426808   0.0918536  31.1423321   0.3908339
  18.9260845  26.9710751   5.6045718  19.8323460  27.2729321   5.6662488
  18.7628422  26.5312023   6.4388957  12.9455137  41.3831902  27.7301750
  13.2954559  41.0131607  28.5406380  13.6728764  41.8850975  27.3623905
  40.3501472  61.4229126  48.1153297  40.2867508  62.2917328  48.5120163
  39.8195839  60.8619995  48.6811104  46.8400764  55.5601158  64.0544434
  47.5068245  55.0489731  64.5131454  46.6280365  56.2728958  64.6571198
  45.0174103  25.0246258  61.1134796  44.6905556  24.5462914  60.3515091
  44.4427795  24.7551556  61.8300133  59.0335426  24.2453499  41.1430740
  58.6898689  23.7518711  40.3983612  59.4399605  23.5831699  41.7021599
  43.6674347   5.3542557  29.0870876  43.5480347   5.7741361  28.2352219
  42.7814636   5.1241331  29.3669662  73.0696335  43.6579933  63.7027473
  72.3634415  44.2972679  63.7968674  73.8685837  44.1848068  63.6833267
  21.8582211  46.4006081  83.2197800  22.2675190  47.1059456  82.7185745
  22.5870037  45.8365936  83.4786148  13.2713270  63.9741745   1.8937826
  14.0077314  64.5780258   1.7973626  12.8045444  64.2874603   2.6685073
  50.6544533  29.7358265  24.7013264  50.0056953  30.4387417  24.6659145
  51.1172714  29.8784237  25.5269775  -0.1714619  50.3913612  44.4910507
   0.3613395  49.7293358  44.0505104   0.0708537  51.2147064  44.0672340
  51.7661552  18.1334343  15.5840540  52.1617622  17.6709404  14.8452530
  51.2272644  17.4728565  16.0193329  67.0272980   4.8369603  19.5705757
  66.5985641   5.2581306  20.3155842  66.6076736   3.9790409  19.5063686
  24.6098289   4.2895994  29.3064117  24.4187202   4.5546656  28.4067173
  25.2313595   4.9453959  29.6224194  22.4357281  47.0934639  59.3744736
  22.8703060  46.3656998  58.9298019  22.6356430  46.9616013  60.3012314
  40.2947578  51.1451378  15.2400084  40.1248932  50.2399788  15.5009031
  40.9567146  51.0759125  14.5520735   1.0997384  -0.0225378  30.0177002
   1.0542101   0.1333108  30.9610291   1.7505251   0.6046248  29.7024612
  69.4848175  57.8930969  46.4940834  69.6172638  56.9586830  46.3342247
  70.3309402  58.2031708  46.8168297  32.4657478   2.7021549  75.9335709
  31.8498802   2.9769578  76.6128540  33.1595154   3.3611705  75.9584579
   7.0753927  57.0585938  36.4518967   6.2670889  57.5024338  36.1952248
   7.6742892  57.2098808  35.7206879  82.0126190  22.1459846  30.6322918
  82.7456360  22.3748207  31.2037411  81.6199951  21.3757553  31.0431728
  63.7147446  24.8622284  83.2819138  63.7565346  23.9949474  82.8790359
  62.7900314  24.9813652  83.4985886   2.6708179  51.0488129  71.9597702
   3.0602317  51.2862473  72.8013229   1.7342619  50.9726067  72.1422195
  32.2798767  52.2716255  42.4440727  32.6637115  52.4361916  43.3053665
  31.3357639  52.3421822  42.5851517  75.2546234  45.2692604  35.6425171
  74.8669510  45.5857086  34.8265495  74.5553513  44.7671242  36.0609779
  61.7128563   0.9125985  74.6398849  62.1303024   0.6181496  73.8303986
  62.2348289   1.6649939  74.9186020  12.4317122  58.3579140   1.5917130
  12.5351248  57.8738632   2.4110007  11.8969994  57.7857361   1.0413238
  24.2519131  24.9348450   8.1437483  23.9708500  24.5975742   8.9943275
  24.1458759  25.8834572   8.2153177  79.7857056  24.8220806   5.2294688
  79.7435455  25.7378597   5.5047879  79.3677139  24.8113537   4.3684244
  54.6520462  69.9835968  68.5618515  54.0482216  69.9353180  69.3029938
  54.1604271  70.4444046  67.8819962  21.1312790  46.0437088   6.1314073
  21.5368366  46.8951645   6.2950492  21.3525352  45.8438797   5.2218218
  50.3260040   2.5772171  39.3125191  50.5170975   3.3294806  38.7523270
  49.8250961   1.9833304  38.7533951  78.2116547  20.5516777  70.3951111
  77.7030106  19.9462852  70.9345779  79.0884171  20.5356960  70.7788696
   8.0385733   2.8509369  74.5924683   7.7677155   3.3043532  75.3907700
   7.4198565   3.1493559  73.9258575  12.6269197  42.8916931  19.7081776
  12.0174837  42.3267517  20.1832142  13.3422031  42.3098221  19.4512196
  43.2753067  64.8954315  13.4192247  42.7750282  65.0325165  14.2236872
  43.8631325  64.1681976  13.6237249  71.6841049  41.0937500  58.1014748
  71.7429657  40.3127937  58.6518173  70.8827820  41.5304489  58.3902855
   1.1211218  34.6449928  11.1375408   1.9819262  34.2339478  11.0582275
   1.0921625  34.9683495  12.0380039  40.3535347  60.1711044   2.5257194
  40.1894302  61.0002823   2.9749017  40.3780708  60.4024544   1.5972222
  75.6023407  27.3702698  81.3517303  75.3518982  26.5529480  81.7824173
  76.5566177  27.3264351  81.2911530  28.5335197  67.2592773  30.2810020
  29.3585072  66.8548889  30.5495090  27.9941940  67.2509842  31.0717564
  69.7422104  30.8567066  18.4531765  68.9085617  30.6322403  18.0397987
  70.3580780  30.9329128  17.7243919  80.2816238  29.3340454  66.3982544
  80.5699539  29.3776093  67.3099518  80.6970749  28.5437603  66.0531616
  16.2991180   1.5291373  58.1711845  15.3830595   1.5123374  58.4482880
  16.5214691   0.6099626  58.0231628  18.3604755   3.3599725  46.2182083
  18.6331406   4.2769933  46.1872559  17.9463730   3.2044444  45.3693504
  45.0573807  36.7375221  71.3953400  44.9117355  37.1755409  70.5567932
  45.5472679  35.9465256  71.1704788  75.8401337  42.2538643  62.5178299
  76.3116531  42.3131065  61.6869316  74.9633255  41.9564285  62.2749710
  81.6259308  56.4925995  88.5153046  81.1298981  57.3087730  88.5789490
  82.0171967  56.5175972  87.6420822   7.6025939  31.4239426   2.3997545
   7.3098245  32.3296356   2.2985775   7.1599936  30.9491482   1.6962582
  84.3405991   0.5302451  87.4780502  83.4925919   0.2182246  87.7938995
  84.2831497   0.4567900  86.5253983  12.6319590  53.8948669  45.8109932
  12.7438526  53.5671272  46.7033501  13.5218430  53.9498558  45.4626923
  37.6546326  56.0286179  58.3506165  37.9444885  55.1977386  57.9739838
  37.0782013  56.4049339  57.6855278  61.2218895   8.2442865  23.9021339
  60.6152534   8.5786572  24.5627556  61.1634293   7.2923231  23.9832420
  33.0740395  68.9369736  44.1583481  32.4964218  68.5325394  43.5110245
  32.5630150  68.9382248  44.9677200  72.0360413  27.8824024  31.2694416
  72.8095932  27.5946178  31.7542419  72.0627136  28.8378334  31.3211460
  50.0186386  30.8730259  62.9382172  49.2985115  31.5035896  62.9444618
  50.6006546  31.1671906  63.6389008  70.6779099  18.9207954  23.2937813
  70.6796951  19.2233067  24.2019196  71.6027451  18.8940754  23.0484142
  86.6853027  21.1771946  53.9003792  86.5112076  20.3552608  54.3590164
  85.8468781  21.6389160  53.9097061  64.8616943  52.9070053  61.7774010
  65.1637726  52.8682899  60.8699417  65.6130219  52.6133270  62.2926674
  77.4219971   2.1721032  73.7271576  77.4230423   1.5486612  73.0008316
  76.4951935   2.3422077  73.8954697  45.4096260  23.9362373  87.0903854
  44.4905968  23.6916389  87.1989670  45.5425224  24.6507397  87.7133255
  80.3072815  24.3826618  29.2492981  80.0998917  24.8890629  30.0346508
  80.6152267  23.5397186  29.5822334  54.0393105  24.4792118  71.5953979
  53.2906761  24.5720520  72.1846008  53.6500740  24.2911720  70.7413712
  79.9376755  24.7151432  38.5910492  79.9646988  25.3561287  37.8806686
  79.8231964  25.2401810  39.3831749  17.6266270  47.9410439  68.2158966
  16.8664227  47.9751053  67.6352386  18.3643360  47.7577629  67.6341553
  65.7922974   7.8374648  66.2108154  65.1391983   8.0722132  65.5515823
  66.2955551   8.6404018  66.3459244  26.9096642  38.8226624   6.0194588
  26.6196747  37.9350471   5.8090310  26.7292156  39.3278427   5.2267032
  11.7675629  38.7291527  21.7509174  12.0969868  39.1433868  22.5484905
  11.6204824  37.8162575  21.9983501  22.9835644  21.8870926  48.0657082
  23.5779629  21.4246960  47.4748497  22.4052601  22.3815937  47.4849625
  36.2494087  24.0817738  85.7312469  35.4758148  24.5927296  85.9693756
  36.0171051  23.1793575  85.9501343  56.2313156  29.8314495  76.8180084
  56.7356873  29.2081089  76.2952347  56.8918152  30.3904037  77.2273254
  52.0925102  37.1948090  29.9370193  51.1406708  37.2042427  30.0377369
  52.3649712  38.0868416  30.1521358  74.2396164  63.5476799  85.5063248
  73.9470062  64.4106674  85.7993469  73.4383545  63.1056747  85.2255478
  75.4171295  30.4827480   1.9602070  75.2098312  29.5539646   1.8571652
  74.6764145  30.8406181   2.4495974  21.7233753  48.1094131  45.6529465
  21.0594006  48.7091408  45.9930801  21.5879059  47.2988319  46.1436958
  65.0725937  70.1147766  78.0358429  65.4281464  69.6568527  78.7975006
  65.4892273  70.9762573  78.0582886  39.3843536  13.1355772  66.3035889
  40.1440086  13.6376190  66.5987320  39.5672112  12.9428558  65.3839951
  48.4175644  51.2748795  71.5089645  48.9414139  51.9754257  71.8976135
  49.0591354  50.6182938  71.2378311  79.2250214  56.7786026  30.0422668
  80.1461563  57.0388756  30.0418110  79.1362915  56.2131195  30.8094635
  45.2779312  58.8526421  56.6162643  45.9273911  59.4198074  56.2006264
  45.0845490  59.2809601  57.4501572  25.4138336  26.0557251  56.3408394
  26.1193447  26.6982727  56.4157906  25.8572750  25.2081051  56.3744812
   1.6896260  19.4302216  64.0515747   0.8488333  19.2221165  63.6441498
   2.0285687  18.5850258  64.3465195  47.4785576  47.0433884  75.2614899
  47.5672340  47.9960938  75.2883835  48.3352699  46.7312279  74.9702454
   6.6229267  63.2497444  64.1576614   7.1624947  63.7242546  64.7900620
   5.7987728  63.7359734  64.1334763  53.1816025  62.5922699  13.7856112
  53.0920181  63.3795242  14.3226757  53.8835258  62.0947342  14.2051287
  55.1384850  39.1980438  35.7837372  54.6654739  39.1442413  36.6141586
  54.8030586  39.9923592  35.3680649  74.0649643  44.8731384  60.6107559
  73.9521332  45.7343254  60.2084351  73.2261047  44.4329643  60.4736328
  20.2904549  60.1100311  29.4904766  20.7246342  60.9100647  29.1943874
  20.3969975  59.4965782  28.7634583  18.2676659  49.9455185  62.9119415
  17.7819786  49.4161835  63.5445099  18.6208630  50.6705971  63.4274445
  16.9609795  45.2245140  15.2958603  16.3914318  45.8467140  14.8434067
  17.7311592  45.1511879  14.7322321  65.8579788  38.3391495  27.6517525
  66.1557083  37.6628761  28.2602272  65.4614182  37.8530693  26.9287739
  71.3818130  52.6661263  85.6227188  70.5509491  53.1176262  85.4742508
  72.0049744  53.1180191  85.0537720  83.0529327  35.2942047  48.8348236
  83.8515091  35.3048592  49.3624535  82.5527420  34.5511703  49.1723671
  -0.0674183  28.3083973  73.6605759   0.3941881  27.8499088  74.3626709
   0.2022350  27.8559761  72.8613052  41.8314552  27.7662945  88.4944000
  41.9157066  28.7079506  88.3446732  40.9877701  27.5364094  88.1050720
   6.0073647  67.7790222  20.3100014   5.8508639  68.1196213  21.1907578
   6.8339152  67.3015594  20.3812141  49.0770836  29.3937073  57.7663269
  49.3142929  29.9649639  57.0358276  49.0362396  29.9777298  58.5236130
   8.2348280  18.9087486  50.9440002   7.6372437  19.2414970  50.2743721
   7.9047079  19.2765541  51.7637405  54.9215813  11.2850475  46.1374130
  54.1618996  10.7273083  46.3048668  54.8011246  11.5901957  45.2381897
  35.8817329  67.6913300  20.1934566  36.8256683  67.7871780  20.3200626
  35.6822281  68.2532578  19.4446774  29.5507450  16.3010674   5.2537127
  29.9447231  15.9129972   4.4724226  30.0526028  15.9350758   5.9820118
   2.4730220  33.6194305  74.2472229   3.2642245  33.1019135  74.3969116
   2.2730877  33.4886627  73.3203125   8.9986868   3.7267356  37.2586784
   9.8424664   3.2943132  37.3901253   8.3904514   3.0123961  37.0689430
  69.5951996  56.2620163  51.0497055  68.6606522  56.3021088  50.8466187
  69.9099884  57.1545143  50.9062271   8.9768486  58.0859184  15.2753611
   8.6755800  58.0851250  14.3668079   9.9069271  57.8666840  15.2194834
  79.8587341  69.0768204  58.3649712  80.0211411  69.9574814  58.0269051
  80.4164276  68.5093613  57.8327980  84.5714111  38.0894508  72.5622559
  84.5873947  39.0326805  72.4001007  84.2658005  38.0068626  73.4655914
  54.3286171  41.5149231  75.8764267  55.2016373  41.1238327  75.9098282
  53.9776611  41.3930588  76.7585907  20.0251694  16.1562309  87.4971313
  19.2848072  16.4517937  86.9672852  20.2787571  15.3190479  87.1084824
   4.3736033  52.8926773  46.6408043   4.2138805  53.8337975  46.5699997
   3.9034863  52.5134201  45.8982506  30.9050694   3.2485673  32.6004333
  31.0959339   3.1966846  33.5369759  30.2384510   3.9317932  32.5293427
  83.9478989  14.5232668  82.3525162  83.1012726  14.3315973  82.7558975
  84.2720337  13.6715269  82.0597534  33.3049889   5.2769175  67.5361862
  33.3113976   5.0075121  66.6176987  34.2296829   5.3733068  67.7639694
   3.6891181  31.8341351  60.9782715   3.6880493  31.8373947  60.0210762
   2.8558702  31.4282036  61.2173309  73.6964645  17.2817841  79.4199295
  73.6667023  16.7977562  80.2451935  74.6254578  17.3075008  79.1907120
  37.6603737   4.8627419  37.1005020  36.7207680   4.8158793  36.9239311
  37.7210388   4.9567895  38.0511360  50.7642975  32.9740715   4.5219626
  50.5573387  32.2740631   5.1411448  51.2705574  32.5429077   3.8334646
  66.5847931  22.5765133  57.4492950  66.4968185  22.8550529  56.5377541
  65.7705231  22.1095161  57.6366882  53.6861954  67.7204742  82.7633057
  54.5387802  67.9822006  83.1109085  53.5637436  66.8249512  83.0783768
  37.9068184  25.3157406  18.1173916  36.9621201  25.4470749  18.0365887
  38.0902443  24.5525036  17.5696182  53.1248817  57.9422112  26.9742107
  54.0534477  57.7139626  27.0177898  52.8501167  58.0035172  27.8890762
  50.0729027  71.7015457  74.6159592  50.0937958  70.7473221  74.6884232
  50.2749062  72.0132217  75.4981613  55.6095772  44.7511597  17.1359997
  56.3711319  44.3340988  17.5388966  55.3057175  45.3791504  17.7913895
  58.4364662  15.9650545  20.6751556  57.5303078  16.1726418  20.4470882
  58.8115692  15.6117849  19.8684769  48.3227768  53.9467583  88.7650986
  48.1435242  53.6892662  87.8607788  49.1254578  54.4655037  88.7118073
  73.8278503  41.4502716  60.7899742  74.2888489  41.7319603  59.9998055
  73.0805588  42.0447540  60.8560638  72.1844559  44.5250015  57.1314659
  71.9198074  44.5366325  58.0512810  71.4292145  44.1610641  56.6695213
   8.9849043  60.4451790  83.6115799   8.8930511  60.7877541  82.7225189
   8.4844103  61.0533638  84.1555023  45.8727608  63.0394783  79.2418213
  45.7127037  62.0975266  79.1840591  46.8243294  63.1247902  79.1829071
  43.7305603  40.8877487  71.5453491  43.1002426  40.3711014  71.0433502
  44.5584946  40.7751541  71.0783615  44.0179596  43.9331055  82.9988403
  43.8104286  44.5027428  82.2581177  44.5130005  43.2100716  82.6136246
  47.0570793  59.7051697   8.0723658  46.7577133  58.8006897   8.1646872
  47.7147255  59.6700706   7.3777413  86.0242157  66.3483353  30.5589581
  86.8941727  66.7013931  30.3724899  86.1125031  65.4059830  30.4161072
  86.0439682  59.2657394  27.2241287  85.2855225  58.6880341  27.3092880
  85.6738968  60.1108284  26.9689865  32.0257034  52.3119507  37.1508560
  32.2304878  51.8510132  36.3373260  32.6432915  51.9561005  37.7897491
   9.7231064  27.3834133  76.7671509   9.2614946  27.6344128  77.5672455
   9.1009874  26.8296509  76.2954025  16.8360806  67.3759384   7.7982206
  16.7023926  67.8296890   8.6303682  17.3573132  67.9845276   7.2746067
  77.1821747  53.4625244  33.3303413  76.4221039  53.0235252  32.9485016
  76.9715958  54.3948097  33.2780876   8.0773926  30.7945595  12.1492872
   8.0179682  30.5766850  13.0794649   7.9041743  29.9682674  11.6982107
  77.0212784  16.0986919  84.5067596  77.0956726  15.1500912  84.4025879
  77.8144608  16.3506470  84.9796371  83.8443756  52.8657227  10.4276066
  83.0359573  53.3653679  10.3133926  84.3527985  53.3739700  11.0596075
  83.7550583   1.4257534  49.5336304  83.5223694   1.4530263  50.4617157
  84.7007370   1.5731688  49.5193710  29.7829342  35.8505135  87.8959427
  30.7281151  35.8502121  87.7447357  29.5913391  36.7332077  88.2127533
  59.1341286   3.6482241  18.7767353  58.5461655   4.3970513  18.6778088
  58.9215736   3.2889674  19.6381226   6.7329774  12.2378063  30.7417889
   6.6513414  12.0712595  29.8027325   6.8161974  13.1889391  30.8100052
  42.0462570  11.6860943  78.5070496  42.5953789  12.3164473  78.9732590
  42.0563889  10.9047184  79.0598450  59.1141891  22.9637375  49.6692009
  58.3039398  23.3083477  49.2937431  59.7483063  23.0098095  48.9536552
  74.0556259  65.3281708  89.0488510  73.4004745  65.6971817  88.4565353
  74.7502670  65.9861145  89.0774841  61.0005722   4.0153379   5.1896534
  60.6652069   3.2029366   5.5688205  61.2257500   4.5574579   5.9457173
  72.1213074  29.0632095  82.7757950  71.1845169  29.1813908  82.6186600
  72.4694366  28.7653637  81.9353638  63.5551109  56.7933922  27.4553185
  64.1912613  56.3767548  26.8739834  62.7668495  56.8865395  26.9203377
  37.7944336  60.0385437  57.0691376  38.1600952  59.4506569  57.7301331
  38.3335762  59.8903351  56.2922287  34.4343071  46.9147720  14.8001661
  34.6619225  47.7016602  15.2953730  33.7868614  46.4676552  15.3452644
  10.3894339  35.0354767   7.3876057  10.8816891  35.3241882   8.1560860
   9.7451658  34.4180527   7.7339268  70.7803802  36.8497658  31.0371838
  71.1153183  37.7314339  30.8737469  70.5871506  36.8369102  31.9745903
  54.7490845  38.9750977  50.4064713  55.3050880  39.0854454  49.6351662
  54.1992264  38.2194901  50.1992340  17.5125942  60.9513435  23.8174992
  18.2352543  60.5115433  23.3696499  17.3979588  60.4574928  24.6294117
  63.4946632   0.5075469  67.5458832  63.6082535  -0.2263108  66.9419098
  63.0898857   1.1938556  67.0154419  24.3887920  48.1481209   9.8706980
  24.5343227  47.7268791  10.7178144  25.0060406  47.7169876   9.2796316
  68.9125977  12.7297020  45.4712257  69.3140717  12.0835743  46.0522308
  68.0324020  12.3908119  45.3079720   9.1158962   3.7423766  48.8215065
   9.6246300   3.0780311  48.3566742   9.5529900   4.5680413  48.6130371
  32.6859055  66.1983185  55.7912827  32.8508186  65.6816177  56.5799904
  33.4435768  66.0291214  55.2313385  24.6960106  61.0995636  55.2364006
  25.0681095  60.7479286  56.0451813  24.2788601  61.9193573  55.5012817
  70.0596085  65.2427826   0.1530209  69.9059067  64.6850739   0.9156268
  69.5778503  66.0475922   0.3438729   1.7246864  65.4705276  68.3293076
   0.9477513  64.9853058  68.6070862   2.2906177  64.8090286  67.9313507
  11.2753239  55.6931610  78.4923172  10.7801399  56.5123138  78.4891815
  11.2643328  55.4031448  77.5801773  55.1656113  52.2815208  85.0412979
  54.3159294  52.6641693  84.8225403  55.4154549  52.7062912  85.8618927
  66.2797318  41.3943405  36.0950089  66.4514389  40.9720421  36.9366798
  66.2586288  42.3298912  36.2963257  65.3444366  13.9395895  50.7462463
  65.7387009  14.7998095  50.6019936  65.8639984  13.5531635  51.4512062
  35.3430099  35.9171867  18.3262806  36.1383629  35.5501747  18.7122192
  35.6498451  36.3993149  17.5584030  51.7263184  63.5825424  47.4483719
  51.0119514  63.9563942  47.9642639  51.8829460  64.2243881  46.7557411
   3.2320259  57.6627159  52.8117943   3.8977804  56.9975243  52.9864998
   2.4032581  57.2339401  53.0251656  86.4931946  27.0987034  79.1683197
  86.1622009  27.3337975  78.3014832  86.6762161  27.9380226  79.5905533
  55.1222191  43.1241531  29.1298885  54.9734230  42.8381615  28.2286110
  56.0454216  42.9310608  29.2931156  64.8344269  21.7560692   7.7502923
  65.3014221  21.5763416   6.9342985  64.3297501  20.9601460   7.9177313
  72.9332886  16.6232300   9.4859171  73.5999832  16.7546711   8.8117762
  72.1028290  16.7716122   9.0336370  72.3064194  41.8479500  77.9411163
  71.6964874  41.8897476  77.2045975  72.9773407  42.4983940  77.7337036
  85.3942261  18.7704735  74.2525787  84.5733566  18.2904510  74.1431580
  85.6287537  19.0488338  73.3672867  68.8996277   7.2031732   4.7204161
  69.5994873   7.7158661   4.3159680  68.3262100   6.9642606   3.9921687
  56.5329285   2.9217150  49.7073593  57.4182434   2.6565182  49.9566078
  56.3168716   3.6323814  50.3111000  66.0071487  19.6912041  43.3432083
  65.7393570  20.4701252  42.8555527  65.1914825  19.3401775  43.7005577
  64.0361176  45.9668274  51.7342339  64.9098663  45.5865402  51.6437912
  63.4390450  45.2369728  51.5697746   9.6755514  28.6526623  68.7147293
   9.4190855  29.5738277  68.7584686   9.6798372  28.4493866  67.7793732
  68.8322525  22.4327679  34.8721161  69.2947617  23.2695980  34.9171867
  69.3048935  21.9334488  34.2061386  10.8859425  16.0409718  26.6997261
  10.2050648  16.7016010  26.5724220  11.5625820  16.4891148  27.2072296
  17.2886562  28.5095463  84.6658707  16.9634514  28.0772877  83.8761673
  16.7632446  29.3065510  84.7362976  31.6482410  57.0174942  25.6035862
  32.1635399  56.2397652  25.8176823  31.0358524  57.1075211  26.3337288
  59.4576378  18.7804375  20.5799065  60.1143913  18.6071835  19.9054508
  58.8517418  18.0418720  20.5195560  75.9932480  14.3598728  17.3641052
  75.5284882  14.0378056  18.1364422  75.9164352  13.6510315  16.7254543
  12.8753891   7.9890842  81.6644058  12.3675985   7.5622530  80.9743347
  12.2915421   8.6653337  82.0079803  54.5625420  31.6029949   3.9895499
  54.0823593  31.8056660   4.7924089  54.6221695  30.6476955   3.9808106
  74.4352112  22.2051258  55.0063400  73.9306564  21.4868317  55.3880615
  73.7756500  22.8441963  54.7365112  57.0527573  59.2026062  43.9852333
  57.5787735  59.8105278  43.4656487  56.5644188  59.7632637  44.5880737
  13.7117901  47.2916107  39.5041466  14.5788546  47.6628151  39.3409309
  13.4552622  46.9050674  38.6668854  78.2548828  31.1564579  88.4659348
  78.3143768  32.0838356  88.2364502  79.1530304  30.8335800  88.3929825
   3.9158895  32.7230797  21.4309597   3.7683346  33.5494843  20.9710503
   4.6973825  32.8801193  21.9609013  22.6979580  17.4280052  70.0554123
  22.1943893  16.6612587  70.3288193  22.9923038  17.8258533  70.8747482
  70.0693741  25.3788280  33.4772949  69.9983902  25.1808662  34.4111061
  70.8859406  25.8720016  33.3984032  19.0102711  57.5785561  14.0708466
  18.3312531  57.7583122  13.4205723  19.3342457  56.7068481  13.8441467
  15.4794683  48.3739929  35.3473816  15.9287119  48.0946808  36.1451263
  15.4539413  49.3288841  35.4087067  56.4433708  64.7692337  21.5508251
  56.8020630  63.8957100  21.7074680  57.0646515  65.3625107  21.9730320
  34.5220833  69.5562286   1.0772787  34.6678505  68.7899551   0.5224823
  34.4842262  69.2043152   1.9666334  56.4032974  39.7900696  56.2629280
  56.8035316  40.3933296  55.6367302  55.5052223  40.1067009  56.3600731
  58.9909744  43.6388779  26.5173874  58.7868042  43.6647949  27.4521999
  58.7943993  42.7398300  26.2541332  48.4701347  37.5622787  33.7661972
  47.7542419  38.0725021  34.1448784  48.1848221  37.3766060  32.8715706
  79.4539185  53.4352303  81.4052048  78.5531082  53.1922760  81.6190948
  79.9925232  52.8628464  81.9515686  17.8568840  28.4501858  79.0140381
  17.5894890  29.1243954  78.3893967  17.2287312  28.5264301  79.7322617
  12.8014345   7.5574660   7.2200046  12.8586874   7.6550779   6.2695174
  12.0731602   6.9511623   7.3550744  81.2030487  39.4211922  22.5662785
  81.2248459  40.3757439  22.4985771  82.1195984  39.1678467  22.6757622
  32.7229767  45.2856331  16.4672947  32.6352348  45.7310715  17.3099785
  32.5355492  44.3672066  16.6611938  73.3057861  24.7902584  76.2340851
  73.4519348  24.0043659  75.7075424  72.5420990  24.5799217  76.7714691
  26.3337364  70.4350815  48.3627167  26.9125805  70.4968872  49.1225548
  25.8969288  71.2859497  48.3245430  39.8423424  57.6662560   3.0515978
  40.2740898  57.0772514   2.4328091  40.1647148  58.5368347   2.8183527
  44.1313171  37.6738777   3.5431480  43.9816551  38.0112076   2.6599474
  43.6890907  36.8250198   3.5534527  42.9838753  46.2049446  35.2272339
  43.5582504  45.7900658  35.8708153  42.1566353  45.7293243  35.3026886
  14.3582087  52.6796761  27.2033463  14.2793522  51.7257462  27.1980305
  13.5550585  52.9840469  27.6258888  51.0752716   6.0965738  87.2303162
  51.0994301   5.3528523  87.8324203  51.2469864   5.7138577  86.3699265
  77.8988647   8.1301508  87.0648575  78.0619812   7.4059968  87.6691971
  78.2242966   8.9039288  87.5248489  64.6883850  50.5585098  25.5155716
  64.8807297  50.1666069  26.3674202  63.7341003  50.6302261  25.4949036
   1.7546910   4.8768935  21.1259842   2.0599217   4.3473630  20.3893261
   2.4252262   4.7600698  21.7990112  64.4377213  34.9074516  62.4853706
  64.5940475  35.3057632  63.3416100  64.3360519  33.9738426  62.6704788
  18.7886810  30.1106987   5.6048746  19.4791927  30.5549679   5.1128874
  18.0008965  30.2321949   5.0749083   4.9287925  12.0530701  17.1853161
   5.1726718  11.4729967  17.9066124   5.4759321  12.8290691  17.3065414
  29.3557434  60.2771835  56.7526321  30.0111885  59.6078453  56.5561295
  29.8222275  60.9194832  57.2874908  20.0702591  61.7972870  47.3728981
  19.7287254  62.0290375  48.2365379  19.8918171  62.5656586  46.8306847
  60.5138283  -0.1582104  20.9186440  61.3912392   0.1593901  21.1319752
  59.9385223   0.5835541  21.1058369  66.4264984   8.1999989  23.0583000
  65.5528870   7.8220072  23.1590939  66.8063812   8.1626091  23.9360962
  11.7396278  55.5311623  66.1497726  11.8607464  56.4799309  66.1871796
  12.5442133  55.2026291  65.7486038  29.6857605  65.2282715  55.4350510
  29.8224659  64.9638138  56.3447800  30.5626926  65.4336929  55.1109810
  77.5732803  61.8153572  40.9988556  77.0991287  61.0059929  40.8082237
  78.4969788  61.5718346  40.9379158  49.8097916  57.7448273  31.8628483
  49.8653145  57.5541344  32.7992172  49.2353020  58.5084610  31.8075886
  60.4064980  23.5725460  35.2536201  60.5365944  24.2834492  34.6259880
  59.4820671  23.6320686  35.4947014  80.2744598  44.1920471  69.1525726
  80.2652054  43.7847023  68.2864227  80.0758896  43.4761086  69.7560883
  66.5963669  24.7027302  46.9154739  67.0902481  24.0753517  47.4434052
  67.0477066  24.7131958  46.0714264  82.6349945   8.5520201  51.6500511
  82.4126205   9.2758970  52.2355309  81.8270340   8.3775082  51.1673698
  80.1479950  54.0073471  69.5787201  80.7019577  54.0058899  68.7981110
  79.2668152  54.1792984  69.2467728  34.5835800   1.9517500  35.6238670
  34.5606537   2.8562839  35.9361534  33.8132210   1.5426582  36.0181007
  85.1235504  13.9277439  70.8414154  84.4833832  14.3472338  71.4162598
  84.6025848  13.3489799  70.2847672  30.2446213  39.6112976  85.7971191
  30.0552731  39.3226395  86.6899033  30.2925777  40.5652962  85.8589478
  46.0143700  61.2908325  85.8967896  45.8075638  60.7896614  85.1079407
  45.9234657  60.6607132  86.6115723  69.7982635  66.1779175  49.0428314
  70.6139679  65.6868820  49.1415024  70.0785065  67.0830383  48.9069862
  64.9661713  57.7958679  40.7010994  65.0169601  58.6506500  41.1288834
  65.0414124  57.9906845  39.7669601  27.0648422   2.4885294   9.9308758
  27.0656395   1.6297677  10.3536749  26.2203712   2.5339634   9.4825048
  42.4751549  45.5272446  88.1260834  43.4270515  45.6245651  88.1004333
  42.1532745  46.3893242  88.3896103  26.6017799   5.1065760   4.5155301
  27.0177479   5.4625015   5.3007169  25.8548012   4.6072731   4.8456092
   1.4270242  38.4289055  51.4545975   2.2883143  38.3420258  51.8630867
   0.8131554  38.1243477  52.1229095  85.0121384  32.4126320   7.0182900
  84.2162247  32.5554199   7.5305047  85.6482697  32.0805206   7.6517501
  12.5065231  10.8908443   0.6091707  11.8665056  11.5259647   0.2878738
  12.9239454  11.3264484   1.3522989  39.0432472  65.5972061  35.8936844
  38.2081070  66.0622406  35.8435555  39.2497101  65.3770676  34.9853096
  52.7378044  28.5228806   9.1560640  52.0061989  28.6883659   8.5614185
  52.5810165  29.1078758   9.8973007  33.6953621  17.0587120  10.0249443
  33.6205330  18.0126934  10.0014486  34.4730873  16.8925152  10.5576286
   1.5437132  66.1459885  21.5247841   1.0791870  65.7195740  20.8046322
   2.4437752  65.8288498  21.4503441  14.7670336   4.5421839  33.6182556
  15.5747995   4.6551185  34.1192474  15.0430555   4.1004815  32.8151703
  34.3835754  54.0482445  13.4766541  34.2260208  54.5808334  12.6970654
  34.9010124  53.3077164  13.1602573  79.9873505  12.1745443  27.9631405
  79.7847595  12.8248196  27.2905827  80.8403702  11.8234358  27.7075977
  25.5998440  69.3587875  56.4569817  25.3656712  70.0461655  55.8333626
  26.3105793  69.7370529  56.9746666  52.9706421  17.6462917  70.3101273
  53.7094116  18.2276230  70.4904327  52.3287544  18.2039757  69.8705902
  68.7297974  60.5525131  50.3941498  69.2645798  61.2336960  49.9864311
  69.3110123  59.7941628  50.4518089  84.1603012  27.5635853  20.8255444
  84.8295212  27.0254650  20.4026947  83.8594818  27.0348129  21.5645599
   8.9620371  49.5230560  58.7379990   8.8315496  50.1632729  59.4375191
   9.6756878  49.8846359  58.2124557   7.9301009  52.1820526  18.1670227
   7.0272689  52.4127617  18.3858776   8.4526720  52.9060135  18.5120316
  78.8414688  55.3089943  73.7241592  78.2021255  55.4298515  74.4262085
  78.3661957  54.8263092  73.0478745  67.7153091  25.9277573  82.2245712
  67.5024338  26.5200157  81.5033569  68.2107086  25.2189674  81.8141632
   4.7101250  30.6360226  13.3852129   5.1878963  30.0447044  13.9668560
   4.1835046  30.0566177  12.8345842  52.2222900  46.9611473  61.7210655
  52.8883934  47.5909233  61.4455414  52.1825981  47.0554619  62.6727791
  76.6014633  44.0161324  50.1098557  76.4905853  43.0883598  50.3176422
  76.7328033  44.0352402  49.1619034  84.8019485  67.4007187  10.8383694
  84.8108978  67.7357178  11.7349901  83.9890518  66.8989029  10.7782793
   3.4132812  24.8118610  32.5966911   3.1762760  24.9089813  31.6743946
   3.6908622  25.6874084  32.8661308  50.1327782  33.4724388  56.8758888
  49.2593002  33.7464485  57.1555138  49.9855003  32.6593971  56.3926620
  41.8505211  59.0038376  20.8917732  42.5461655  59.5905075  20.5949059
  41.7160759  58.4020119  20.1596775  61.5523453  17.7741070  39.2389870
  62.4399071  17.5034142  39.0040512  61.3709717  18.5212326  38.6687775
  79.0072784   5.3527327  63.4276237  79.2643738   4.6068916  63.9697075
  78.6887360   6.0043182  64.0522842  38.5067291  60.1745148  20.2813854
  39.0548172  59.3903046  20.2522182  38.9996033  60.8297043  19.7873898
  83.2753983  67.6088867   6.0493197  83.6181183  67.2588882   6.8716784
  83.9299088  68.2491913   5.7702894  34.7563934   1.5403486   4.1545525
  35.5294609   1.1936364   4.5999594  34.1949577   0.7768627   4.0199723
  30.4211884  62.2458305  26.9622536  30.1811295  62.2352409  26.0357037
  29.6224232  62.5188980  27.4135170  82.4415817  20.9125443  24.7764320
  82.4285889  21.1765556  25.6964111  83.2666626  20.4379883  24.6750736
  76.6342392  15.6748514  32.3705902  76.9425354  16.5644455  32.1979408
  76.0485992  15.7659683  33.1222267  70.0372391  30.3448792  25.0679760
  70.0488892  29.3915920  24.9823112  69.1431961  30.5953636  24.8352127
  10.5785694  63.0415916  76.7392502  10.0819521  63.6665001  77.2675476
  11.2879133  63.5598145  76.3591080  26.4639511  69.1059265  33.8660011
  26.6497459  68.9093475  34.7841911  27.2447910  69.5650482  33.5566063
  84.3107605   5.6909232  69.2527313  84.7744217   4.9059467  68.9610825
  84.0203323   5.4816074  70.1404648  59.1408997  66.0079956  18.9561672
  58.2568665  65.7669296  18.6793880  59.0848656  66.0696716  19.9097328
  83.9868546  47.2769356  66.6206665  83.0910339  47.0263062  66.8463516
  84.5347748  46.7811127  67.2290878   0.2023617  63.6314278  47.3399239
   1.0918969  63.8101082  47.0349121  -0.1660545  63.0488014  46.6758080
  55.6272469  56.7636490  26.9975090  56.1319580  57.0730019  26.2453117
  55.9881897  57.2445679  27.7422695  20.9248295  31.9696598  12.6606655
  20.0339680  32.0671120  12.3243570  21.0307274  32.6978378  13.2728519
  27.3281384  53.3796082  57.5339584  27.5285015  52.5014153  57.8577843
  26.6819954  53.2381172  56.8420677  14.3459940  44.9991302  20.3740654
  14.6567106  44.6073380  19.5578613  13.5986338  44.4585571  20.6299267
  16.4288654  53.8567467  35.4968262  15.5584126  54.2147942  35.3226242
  16.7432041  54.3494530  36.2548943  69.6030350  10.5999269   3.5382030
  70.4307175  10.1197176   3.5621891  69.7772369  11.3491402   2.9684961
  14.3698378  43.6259422  73.0124435  14.3629074  43.2037392  73.8714752
  13.4459410  43.6941185  72.7716141  56.2165108  29.4220638   0.3724594
  56.5723991  29.9122791   1.1135837  56.1624680  28.5193481   0.6861683
  25.6301708  48.2028847  39.9405022  25.3433304  48.9573746  40.4549904
  24.9397697  48.0809402  39.2888069  52.2144699  64.0032806  85.5443039
  52.7792206  64.3699799  84.8639908  52.4698715  64.4656677  86.3425522
  10.4767895  41.0485649  13.9971151   9.8170061  40.3650894  14.1145115
  11.3107080  40.5786629  13.9952297  60.7612305  17.9961128  50.7718964
  60.3534851  17.3617496  51.3614388  60.0297241  18.5106277  50.4307175
  62.5701828   5.1129131  73.7581177  63.0948792   5.5281420  73.0736389
  61.6806183   5.1025205  73.4048538  58.6231918  52.9427910  73.8737411
  59.0277214  52.1539955  73.5126495  57.7240448  52.6814003  74.0723419
  29.4074211  43.7394638  73.2562943  29.4707985  43.6019783  74.2014465
  30.2308006  43.3967743  72.9086685  37.4002419  53.9645462  51.2724228
  36.8231201  53.3466110  51.7211113  36.8064346  54.6008072  50.8739395
   8.2653084  61.7444496  11.2370329   8.0770369  61.2400131  10.4456224
   9.0642252  61.3506966  11.5876350  78.4803925   7.9909616  69.5971375
  78.3052444   8.2446527  68.6909409  79.1795578   8.5803604  69.8799973
  15.8032799  27.0973969  76.2143555  15.4389477  26.6469593  76.9763260
  15.3749027  26.6844616  75.4645462  64.6129379  56.0656891   1.2302017
  63.9880219  56.0039597   0.5077741  64.4116440  56.9019318   1.6502154
  52.6622353  14.1892805  61.5710983  52.5699692  14.6583109  60.7418060
  53.1478615  13.3960419  61.3448868  10.3072491  10.0810194   2.4079273
  10.6065273   9.3439131   1.8756317  10.8771553  10.8068981   2.1538796
  73.9282990  65.5153961  45.5962296  73.8644638  65.5991440  46.5476189
  74.5976868  64.8450470  45.4591789  30.4626751  56.6964073   3.7683198
  31.0674896  56.9940643   3.0887392  29.8820572  57.4429512   3.9159238
  67.0422897   1.9766366  19.5062847  67.7456512   1.7356387  20.1091385
  66.4844513   1.1998179  19.4662933  41.4979095  18.6173191   1.7719553
  42.3513985  19.0333214   1.8933256  41.0907936  18.6488895   2.6376874
  58.4159775  14.3022356  59.8740387  58.7613983  13.5740538  59.3576393
  58.3124542  13.9430571  60.7552338  53.3630409  69.7594604  63.8020210
  53.8367920  68.9607010  64.0338898  52.9368896  69.5522995  62.9703293
  81.1665115  57.1931114  12.2789259  80.2285309  57.0976143  12.4441462
  81.5760193  56.5271301  12.8312006  84.0943832  52.6012802   5.0549397
  84.6873474  51.8815498   4.8390536  84.6489716  53.3812981   5.0396996
   2.7199190  15.1332130  82.9487534   3.0158098  15.5086317  82.1194534
   1.7780579  15.3030119  82.9660187  24.2303219   3.9740965   5.6150451
  23.4900455   4.4201207   5.2036042  23.9385509   3.0679333   5.7148938
  68.7021942  52.6682205  73.4588318  68.9951401  52.4051437  72.5863647
  69.2553177  52.1673546  74.0583496  83.7937927  29.4438515  65.5629349
  84.0809937  30.0840435  66.2140121  84.5983810  29.1768131  65.1184692
   3.9243710  31.8179989  72.3081818   3.1446695  32.0402794  71.7993698
   3.7693980  30.9210796  72.6044083  35.4613190  52.2464714  24.0484447
  36.3168259  52.3448143  23.6305141  35.3383255  53.0604935  24.5367813
  62.5018196  33.3114738  63.0710716  61.9368591  32.6987267  62.6003265
  62.0144424  34.1353035  63.0706673  83.0796280  30.0600758  75.7345276
  83.6795502  29.4885387  75.2552872  82.4302139  30.3255520  75.0833664
  17.7631493  39.3299370  70.6366882  18.6234283  39.2242546  71.0428696
  17.9500866  39.4360161  69.7039337   9.7934771  42.3167496  80.6264877
  10.6167688  42.4985924  81.0796509   9.9534979  41.4970741  80.1587677
  83.1187363  70.9522171  43.4938393  83.4080276  71.8443146  43.3022537
  83.8186340  70.3951111  43.1532364  65.7566071   6.8710413  31.0366268
  65.6934433   6.3500571  31.8371372  66.5978699   7.3217363  31.1099300
  56.2426720  53.0299034  68.5459442  57.1307259  53.3180313  68.7570877
  55.9719505  53.5974693  67.8242722  57.3734818  63.3059578  44.1813927
  57.7273598  63.1354256  45.0542717  56.5794106  62.7733421  44.1366158
  65.2070618  53.2139282  22.5779228  65.3698196  54.0440178  23.0259094
  65.7504196  52.5791740  23.0449142  21.1568680  24.0973511  83.9967804
  21.6346874  24.6658726  83.3928680  20.9128780  24.6708641  84.7232666
  66.1808167  40.4376640  68.5235214  66.7327499  40.7109680  67.7907791
  66.7593079  39.9121017  69.0761185  66.4882355  48.1605530   4.8832645
  65.5953369  48.4958344   4.8023696  66.4934998  47.3630714   4.3539000
  42.9469757  33.7497063   4.8015180  43.0538940  34.0622978   5.6998987
  42.2663956  33.0792236   4.8606157  49.0621033  22.8714714  76.3718262
  48.4387856  23.2435608  76.9957275  49.2801590  22.0128136  76.7343063
  63.3375664  69.4165268  50.3526039  63.5102425  69.9901047  49.6059952
  64.1402206  68.9045792  50.4520149  21.8616581  27.5821972  85.1219330
  22.7683468  27.8780785  85.0406876  21.9226131  26.7487240  85.5886688
   6.8823557  14.1367140   0.7691840   6.6660333  14.8782253   0.2038543
   7.7242117  14.3709831   1.1598607  75.6248550  61.8941231  28.4700184
  74.9400482  62.5114365  28.7272892  76.3632507  62.1034851  29.0420074
  46.1196556  11.0374775  79.9009933  45.7599258  11.4112558  80.7054291
  45.9874229  10.0941458  79.9951782  25.5411110  60.8471642  25.8556786
  25.8401756  61.7270699  25.6264229  24.8194561  60.6743546  25.2510433
  83.4615173   9.2062712  56.5900612  83.3377914   8.3130074  56.2691231
  83.7847061   9.6910286  55.8305969  63.5880013  59.1861534  33.5310593
  63.7496262  58.9520493  34.4450073  62.6645889  58.9772377  33.3899994
  13.7045364  25.0262012   7.7404938  12.9011221  25.3971272   7.3755655
  14.1912928  25.7831764   8.0665140  11.6611824  64.2970428  18.5238533
  10.8983755  64.3022079  17.9456387  11.3236790  63.9832077  19.3627987
  58.8046989  12.5900984  49.2658501  57.9604683  12.4230719  48.8467903
  58.7544136  13.5025959  49.5505447  58.0292358   2.0277841  14.6615095
  57.1450958   2.3926003  14.6235304  58.5945511   2.7851923  14.8131046
   1.1941330  48.0582161  36.7685356   1.3715475  48.5883293  35.9915276
   0.6791621  47.3201675  36.4424706  39.4744453  62.8695068   3.4507768
  38.6763153  62.4178085   3.1765745  39.3999863  62.9305000   4.4031253
  17.3038330  49.6392784  18.3674126  17.2761211  50.4714851  17.8952923
  18.1918106  49.5945168  18.7219887  76.6779709  47.8726921  54.3547134
  76.6332169  46.9834824  54.0032349  76.6682510  48.4366837  53.5813751
  36.0027771  64.7448425  88.6368179  35.9987411  64.1967545  89.4215546
  36.8120613  64.5083389  88.1836472  34.9692116  48.8983078  82.6814728
  35.1513977  48.6240273  83.5802536  35.6988411  48.5468407  82.1712341
  48.8838692   0.1504273  56.8021240  48.7064171   0.5398182  57.6583481
  49.8030739   0.3557962  56.6314774  17.2074738  22.7398891  76.0756454
  17.9625034  22.5865383  75.5076294  17.3170319  23.6401539  76.3818436
  86.0006943  41.6177368   7.8882747  86.9159622  41.3379822   7.8722997
  85.9277954  42.2400665   7.1646562  18.8912010  59.3623047   0.9495798
  19.8234921  59.2429810   1.1307619  18.4537849  58.7274094   1.5168638
   0.3855765  70.2403488  65.5520096   0.5285186  70.3961029  64.6184464
   0.7879584  69.3876343  65.7169342  75.5756378  62.1387978  71.2621918
  74.9852753  62.6986656  70.7579498  76.3398666  62.0261002  70.6969681
  39.1174011  32.4031792  78.8621826  38.7412758  31.9392986  78.1141357
  38.3656120  32.6141357  79.4158478  38.4270973  66.2039108  60.5929565
  38.6951714  65.5580750  61.2466164  38.3294601  65.7003860  59.7847710
  29.3422699  42.3511429  78.3557281  28.4865417  42.0761299  78.0265961
  29.8219204  41.5334892  78.4884262  83.0622711  29.4530334  40.7666626
  82.9580078  28.5287819  40.5405655  82.7753677  29.5104980  41.6780472
   3.2570879  39.7638931  71.1282806   2.7341704  39.1603088  70.6005707
   2.6194282  40.2063942  71.6884689   3.7080753   0.7653587   4.6275063
   3.4222195   0.5662713   3.7359443   3.9247515   1.6974875   4.6070333
   4.0559931  10.1173239   9.1274242   3.4090743  10.7043848   8.7361612
   4.8024745  10.6823196   9.3268661  34.0490570   8.0725393  63.8550758
  33.6656265   7.8603215  63.0040894  34.4857979   7.2659760  64.1288376
  67.2617035  48.2626152  78.1550293  67.0085068  47.5695839  78.7648010
  67.0015182  49.0733147  78.5924072  71.3638763   8.5510712   3.9354949
  71.3664703   8.1430054   3.0696385  72.2844849   8.7453737   4.1114564
  67.5332336  70.5012589  86.9013138  67.1109543  71.2690659  86.5161057
  67.7904968  70.7843628  87.7787476  44.8534355  62.9469452  14.3506126
  44.9931984  62.3636131  13.6046782  44.5843620  62.3657951  15.0620155
  29.3787632  43.2906799  14.8738317  30.2550697  43.6052361  15.0960340
  28.8368816  44.0796432  14.8622322  54.4643173   9.7639103  32.5919533
  53.6186638   9.4693718  32.9301071  55.0939674   9.1311245  32.9374313
  71.9773941   0.6778256  53.3426514  71.1569214   0.9839028  53.7291336
  71.7127457  -0.0115028  52.7335396   5.4033666  22.5290222  12.1278524
   5.1247578  23.3343544  11.6919079   5.5570726  21.9107876  11.4134340
  22.8609276  46.4848747  52.3351707  21.9261112  46.6794701  52.2682190
  23.1951466  46.6065369  51.4465065  67.0287170  49.6403809  67.4872971
  67.5179977  48.9807892  66.9955978  67.0145264  49.3082848  68.3849258
  82.3607635  46.6688576  73.0347366  82.3325882  47.4047508  72.4232635
  82.3909988  45.8931541  72.4747391  39.0552177  23.2041874   3.3157129
  38.8848801  23.3966084   4.2377706  38.2035027  23.3004608   2.8896365
  61.6073074  69.7572556  56.9212723  62.3849983  70.1258850  57.3402443
  61.3363724  70.4240875  56.2902718  44.5568810  69.3944778  82.4041748
  44.1127815  68.6292343  82.7694321  45.4826431  69.2503815  82.6002121
  20.5624981  64.9863739  28.8628082  19.7404957  65.1764908  29.3149128
  20.5860195  65.6093903  28.1364937  65.3938828   1.5246816  52.1097832
  66.0654526   2.1028271  52.4716873  65.3579941   1.7515011  51.1805382
  59.1735687  67.7324142  51.3189621  59.5971794  68.5448761  51.0420303
  58.2670708  67.8227158  51.0251274  64.9188232  67.8884811  65.7065430
  64.1042862  67.8275757  66.2056046  65.3516235  68.6705551  66.0489883
  30.2056046  45.8445587  78.3850555  30.5576553  44.9544640  78.3899612
  29.7284603  45.9179611  79.2116013  53.6260834  19.2198448  84.2845535
  52.9194717  19.0940228  83.6512299  53.8119888  20.1582775  84.2526855
  25.9331951  66.0229034  75.5867386  26.6784687  66.3975143  76.0562744
  25.3230534  66.7532730  75.4842072   6.1086750   5.9679189  54.9592438
   6.2640963   5.1900654  54.4235039   5.6309171   6.5642591  54.3827400
  47.3085442  10.5159874   3.2130940  48.1286774  10.3450222   3.6761136
  46.6548653  10.6009102   3.9071541  71.5160751  34.3856659  74.3862305
  71.7760010  34.0078354  75.2264252  71.4200439  33.6319084  73.8041153
   5.1938591  69.0301285  17.5344830   6.0759001  69.3278275  17.7572174
   5.1600399  68.1261368  17.8473511  66.1117706  25.2425919  79.3987656
  66.6904755  25.7965202  79.9226913  66.0193558  25.7103252  78.5687561
  82.6329956  39.9839211  36.3681297  82.4001389  40.5386505  35.6236267
  83.5879974  40.0312004  36.4125938  77.2701797   1.0321422  30.2896080
  77.6709137   0.5093351  30.9841003  76.6462097   1.5973692  30.7450333
  70.2112961  15.5448322  74.1448593  70.4677353  15.6272755  73.2263412
  70.0980988  16.4470692  74.4438324  48.8677559  55.5088348  43.9015007
  48.7075348  55.4124184  44.8402596  49.6735153  55.0166435  43.7442551
  74.9790344  35.1626091  55.6529274  75.1227722  34.3782501  56.1824112
  75.4045715  34.9690323  54.8176575  64.1195984  17.6125469  44.9762535
  64.8431854  17.3160400  44.4242210  63.3344383  17.4320068  44.4593735
  71.4087296  56.5582924  63.3270531  71.6018753  56.7419205  64.2464066
  72.1154022  56.9863472  62.8437157  77.7386093  62.8333397  75.3461609
  78.0674515  63.7319336  75.3213043  76.8653946  62.8870163  74.9577789
  64.0567703  36.4019966  57.5476151  64.9729309  36.4874878  57.8113823
  63.6708221  37.2560577  57.7421799  85.2316818  58.4548035   7.9440947
  85.8177185  57.9144783   7.4141445  84.3558960  58.2511940   7.6158171
  36.0224609  23.2729950   0.9099777  35.2723999  23.5558529   0.3868828
  36.5334892  22.7217007   0.3173912  80.1016159  66.5135727  56.0537834
  80.7654495  65.8244629  56.0798683  79.3244705  66.0840836  55.6962662
  82.3602448  51.0882072   6.9816346  81.9246292  51.9260216   7.1382694
  83.0724869  51.2978401   6.3774796  42.8307686  11.4226274  74.8031845
  42.5400352  11.2273064  73.9123688  42.0296135  11.4017696  75.3265839
  26.6445026   1.9781142  43.2110634  26.9267330   2.6609578  43.8195915
  27.4207973   1.7922941  42.6827927  86.4494247  31.9480209  10.1374350
  85.5863724  31.6687870  10.4430714  86.4550323  32.8960724  10.2693300
  21.9385414  62.0983276  56.8445015  22.3938828  62.8820953  56.5369263
  21.7535229  61.6007347  56.0480080  21.0699158  33.9417839  18.7104950
  21.5727386  34.7562294  18.7193947  21.5020580  33.3864059  19.3593712
  79.8494797  70.0915298  51.3955269  80.5737305  69.6232300  50.9803238
  80.2254028  70.9328690  51.6544914  28.7731209  11.9086514  86.0482178
  28.5813675  11.3014078  86.7628632  29.6455364  11.6555567  85.7464447
  25.0091419   1.7346902  76.3378143  24.5075455   2.5123005  76.5826721
  24.3558159   1.0378397  76.2761993  57.0721550  58.1069603  28.9130077
  58.0089531  58.2831039  28.8257885  57.0035439  57.5565987  29.6931534
  48.2870941   2.2723000  62.6457596  48.9888229   2.5002666  63.2555466
  48.0222778   1.3896081  62.9045258   2.9790833  32.7227287  55.3799019
   2.2386580  32.2197952  55.0406952   3.1083684  33.4210701  54.7381554
  76.1607208  14.7982111  29.8791943  76.7762833  14.0898399  29.6907082
  76.3107529  15.0068865  30.8012447  58.9281921  59.5151711  52.3522491
  58.9755783  58.5615959  52.4206848  58.0750847  59.7398567  52.7236633
  48.4089012  20.2458363   8.2023706  49.0284691  20.9204807   8.4802628
  48.6804085  19.4607716   8.6779671  18.6242657  10.3715010  29.7062340
  18.1904812   9.9577007  30.4524460  19.2359962   9.7081985  29.3867855
  55.5053406  36.7864571  72.4506531  54.5544243  36.7381821  72.3523788
  55.7096863  37.7161102  72.3495712   5.1975160  63.7584305  15.0392132
   5.6219888  62.9014473  15.0796022   5.3472309  64.1408539  15.9038343
  24.9981365  50.9387779  18.2934055  24.1301517  50.5698509  18.4568996
  24.8497810  51.6173973  17.6348457   7.2646899  53.2557831   9.6121969
   8.0852613  52.7962914   9.4339752   6.9806609  52.9180450  10.4616032
  22.6968937  61.0140610  77.4291229  22.4608021  61.6495285  76.7533417
  23.6519165  60.9643478  77.3879776  85.2039413  60.6652565   5.5400820
  84.9516449  61.3863373   6.1168137  84.4971542  60.6147270   4.8965511
  79.1878204  37.8968048   6.3686967  78.7285461  37.2559128   6.9114275
  79.1620331  37.5260162   5.4866056  28.5563660  67.6315536  57.5578423
  28.5718784  67.0049667  56.8343925  27.7879963  67.3843536  58.0723648
   9.1379032  -0.1977590  27.8078022   8.6133804   0.4504573  28.2778282
   9.7814865   0.3200356  27.3241482   1.9237405  31.0578136  67.5465698
   1.1639125  31.5802784  67.8033295   1.7807840  30.2071724  67.9615479
  53.1047363   4.1360912  42.3087730  52.1617699   4.0496511  42.1688614
  53.2476387   3.7983427  43.1929321  43.6893883  28.0260696  75.2360306
  44.1562080  28.3201408  76.0182266  43.3510780  27.1617031  75.4698029
  31.9169788  46.7324982  41.4258537  32.1367798  46.2404060  42.2169075
  31.9463043  47.6496086  41.6984024  77.2843170  57.7213058  15.7768669
  77.3396072  58.6210060  16.0989132  77.2719879  57.1837769  16.5687904
  75.3645401  24.5543251  33.5459404  75.7721481  23.8416538  34.0380669
  75.5855484  25.3437061  34.0401764  68.0515900  29.6588573  36.9522858
  68.5126877  28.8798904  37.2634621  67.4047394  29.8424263  37.6335487
  79.7920685  19.8608456  81.0685349  79.4055252  19.1178703  80.6050644
  80.6054306  19.5162621  81.4372177  21.2509003  39.6231537  65.3789139
  20.3862152  39.4118309  65.0269318  21.6069603  40.2684441  64.7681351
  19.0569458  69.0811691  43.9672623  18.4551239  68.3768311  44.2079964
  18.7358074  69.3917160  43.1207047   4.1760750  11.2549915  58.4998512
   3.4510765  11.0394754  57.9131966   4.8464231  11.6258450  57.9259758
  49.0825043  16.2448883  72.4947815  49.7595673  15.6732187  72.1328278
  48.2606049  15.7920504  72.3059692  83.1753082  25.7637730  31.6047897
  84.1128769  25.6589832  31.4428749  82.8731766  26.3369637  30.9002361
  31.1178322  33.0587196  66.5734634  31.7646599  32.8999557  67.2609482
  30.5855484  32.2633324  66.5571136  62.4811745  50.3360558  41.1879997
  62.3167953  51.2761841  41.2612801  61.6277618  49.9597549  40.9727821
  71.9437943  33.0853806  77.6394806  72.8477936  33.2311134  77.3605881
  71.7434540  33.8329163  78.2027664  25.8961334  20.9116306  43.9070244
  25.9496117  20.8334751  42.9545212  26.5872078  20.3355446  44.2337875
  58.8836555  53.8825378  50.8739700  59.1974869  53.0530739  51.2341499
  59.5985756  54.4987068  51.0335121  77.7116928  10.4504709  53.5319481
  78.5503387  10.4916172  53.9915237  77.5384064   9.5142879  53.4331322
  54.0152588  25.8230400  51.7335663  53.3302078  26.4915695  51.7362022
  54.3253746  25.7943192  52.6386833  10.9587688  51.7906799  75.6799469
  10.1946230  52.1144104  76.1569290  10.8686991  52.1626091  74.8025742
  73.7420654   1.1203992  43.4468040  73.5275650   1.0181791  42.5195656
  74.6179047   0.7439432  43.5329437  23.6299572  54.8667984  69.3313065
  24.5399075  55.1341400  69.4607315  23.6839733  53.9419594  69.0905075
  49.5583000   6.4547849  82.9994736  50.1484985   7.0548148  83.4553986
  48.8178101   6.3474579  83.5964584  53.9992180  47.6982460   8.2899227
  54.7678070  47.9092331   8.8200054  53.9505119  46.7424660   8.3084755
  64.6866608  51.2535973  38.5949554  64.1685944  51.9538002  38.1980247
  64.5976639  50.5172958  37.9898376  43.2833939   5.3384123   9.4337769
  42.5203857   5.6590323   9.9146633  43.0523796   4.4426994   9.1876822
  77.5570602  29.8309231  62.1355934  78.3570099  30.3474751  62.0382004
  76.8919373  30.4668274  62.3991547  86.9207306  54.0309677  27.1671295
  86.8466110  53.0789909  27.1002293  86.0909195  54.3091621  27.5547562
  39.6392746  71.2206039  40.1642227  39.1086693  71.7369308  39.5575218
  40.3946190  71.7767944  40.3548470  32.9629669  57.4311829  62.9129257
  32.7619362  57.7601242  63.7890625  33.4649582  58.1351051  62.5021553
  39.4601173   7.6903219  83.7936783  39.3553352   6.9246335  84.3584595
  40.2324600   8.1384144  84.1385345   3.1958888  39.4699554   4.4989905
   3.7490387  38.8086166   4.9147892   2.8030772  39.0184021   3.7519767
  33.4995003  70.7838898  72.5724335  33.2603798  71.6658401  72.8574142
  32.9027939  70.5962753  71.8478775  61.7889595  18.0770760  54.3136330
  62.2326927  17.2490273  54.1301460  61.3096428  17.9169502  55.1265602
  56.6652489  56.2742081  16.2064743  56.5320358  56.5277596  15.2931309
  56.5753670  55.3212395  16.2060452  67.2202530  50.6309395  79.5902252
  67.8077621  50.6586990  80.3453979  66.5133514  51.2361641  79.8143463
  51.1223640   8.3867397  84.2563858  51.3010559   9.0054960  83.5482559
  50.9384766   8.9389801  85.0162811  34.2118149  26.5113506   1.5380781
  33.7079086  26.9595413   0.8587879  33.9754677  26.9624691   2.3485491
  75.1629410  53.6777000  86.6599197  75.0946655  54.5074577  87.1322250
  75.1439285  53.0097313  87.3452606  60.3236313  42.3118935  75.1488113
  60.0922699  43.2131958  74.9244156  59.6176491  42.0198746  75.7254791
  62.3469658   3.5833921  50.3370934  62.3382950   3.6271379  51.2932510
  62.4987183   2.6588659  50.1409950  25.8648319   6.5473595  18.0038910
  25.4551163   7.1556654  18.6189747  25.3917789   6.6821561  17.1827431
  57.3244858  13.6591682  36.6905746  56.5057411  13.8244801  37.1580811
  57.9621201  14.2343092  37.1135025  35.1223030  14.1073141  84.0876465
  35.8184128  14.7162313  84.3343887  35.1073608  13.4616165  84.7940979
  76.9831390  39.6966286  59.6132545  76.1615829  39.2534599  59.4014130
  77.6584396  39.0362244  59.4581108   1.6958758  12.2569084  11.4500170
   2.6288543  12.1820049  11.2495861   1.5788410  11.7352753  12.2440157
  68.9332886  54.2137184  85.5382690  68.3292084  54.0194969  86.2549210
  69.4653931  54.9398117  85.8636627   0.2980066  41.3475952  63.6017342
   0.4348034  41.1211128  64.5216370   1.0803473  41.8423233  63.3579750
  66.6258316   1.8392857  27.1097641  67.2139435   1.4071279  27.7291145
  66.6885376   2.7689834  27.3287678  30.1475334  62.3283005  51.8655205
  29.4715290  62.0848503  52.4979630  29.8372936  61.9704971  51.0336800
  16.6814671  14.6243982  77.4907074  17.1528587  13.8060551  77.6467056
  15.8055506  14.4671984  77.8432541  17.8761959   8.4330959  68.9114456
  18.0668869   9.0665131  69.6032944  18.6964626   8.3565416  68.4240723
  83.7742081  58.7930107  19.1067772  83.9400024  58.8836517  18.1684132
  83.2175293  59.5405006  19.3249416   6.0120564  68.3394852   5.3231978
   5.9578195  67.6898041   4.6223388   6.2729878  67.8375931   6.0953674
  17.1494350  55.0652504  17.8199310  16.7616386  55.8303986  17.3952045
  16.4185524  54.4574013  17.9319973  70.0458145  24.7945061   3.1668036
  69.6129303  24.0300770   3.5469241  70.9594955  24.5272751   3.0667717
  45.9145889  56.4636307  41.9178772  45.7693977  55.5175056  41.9169044
  45.5100403  56.7688637  41.1058388  81.2710419  19.7745438  70.5723801
  81.8232422  20.0333805  69.8346100  81.4063644  20.4612579  71.2253342
   5.1715455  29.5479202  62.1613617   4.3025999  29.4069042  62.5372314
   5.1175284  30.4106274  61.7502060  39.1868820  59.8337288   9.3538504
  39.2763748  60.7097549   8.9786196  40.0327110  59.4160690   9.1914845
   6.9103994   4.7365651   0.0209855   7.1832423   5.6387539   0.1878525
   7.7295933   4.2439814  -0.0291637  82.6598969  20.1822147  52.3577728
  82.3549957  19.9966373  51.4696121  82.2219238  19.5285225  52.9028397
  55.4513550   8.3719673  51.5013809  54.6711502   8.2128048  52.0325851
  55.8289948   9.1730757  51.8644829  67.4487076   8.0745201  70.5956345
  67.7316895   7.1878567  70.8192062  67.4713745   8.5497456  71.4262238
  12.1745281  16.5264187   1.3835615  13.0479546  16.8770504   1.2091641
  11.6082001  17.2975731   1.4122708   8.1580639  60.3961258  65.4762802
   8.0834627  60.5048485  66.4243546   7.5224123  59.7130470  65.2627792
  79.2787170  36.7715111  87.4392242  79.9683304  36.7542763  88.1028366
  79.7021713  37.1386261  86.6632462  65.5011063  17.6408577  31.3586998
  65.6502914  17.0772266  30.5995560  66.3075333  18.1498699  31.4412537
  66.1706238  53.8294945  59.5163918  66.8155823  53.2437096  59.1200104
  65.6355515  54.1290741  58.7814217  56.9460487  51.1953087  49.1843719
  56.3530807  51.9427605  49.1073189  57.8206291  51.5840225  49.2000389
  29.4568691  28.6095676  17.5039711  28.7460785  28.5990067  16.8629589
  30.1879082  29.0223980  17.0442066  82.0141678  33.3732529  86.4626465
  81.2440643  33.3800735  85.8942108  82.3540344  32.4809952  86.3948135
  82.0862579  58.9417458   2.3680182  81.4468613  58.7343369   1.6865588
  82.7859116  58.3005562   2.2431316  28.1156654  34.0636024  82.8136215
  28.9563847  34.2691956  83.2224731  27.4776535  34.5816727  83.3043137
  19.1100578  27.6026192  73.2571106  19.1167297  27.7138958  72.3064194
  20.0159912  27.3880100  73.4794998  37.2151184  21.1017380  88.8445587
  36.9431763  20.2262039  89.1197357  38.0800438  20.9726238  88.4553757
  65.3549881  52.5007172   1.1128428  64.8159256  51.9591599   1.6893463
  64.9540176  52.4036980   0.2491040   5.2152200  26.5909805  85.7033920
   4.6415520  26.0271244  85.1845474   6.0865412  26.4528656  85.3319702
  34.1241837  45.9440880  85.5103989  33.3077545  45.4465103  85.4646454
  33.8447762  46.8571892  85.5767746   4.9941287  33.1500511  14.6863518
   5.4953980  32.6528740  15.3327084   4.8162804  32.5218544  13.9863739
   4.8906951  14.3974600  87.3895340   4.4971814  14.6657648  88.2198257
   4.2547340  14.6643105  86.7257690  27.7104778  10.5224495  70.0111847
  27.7162056  10.6383934  70.9613190  28.3556290  11.1519928  69.6891785
  65.7652130  53.3671379  19.6294174  66.0003586  52.6405258  20.2064571
  64.8154831  53.2980347  19.5321140   3.1493809  50.6185799  28.3850555
   2.7072821  50.0077477  28.9746876   2.6991913  51.4520988  28.5221767
  35.9966850  44.1509819  64.0285339  35.0864868  43.8850060  64.1590271
  36.4930458  43.3334656  64.0675201   9.2907782   7.1507287  15.9209948
   8.4204493   6.8985882  15.6124754   9.8806963   6.8884716  15.2142773
  43.9594917  15.7821360   4.3964572  43.4168854  15.7127552   5.1819463
  44.6409302  16.4121227   4.6309633  35.7127686  40.8157539   2.8756540
  36.5448608  40.6241074   2.4430752  35.1938972  40.0197105   2.7602334
  27.0835075  63.4291458  85.6875229  27.8317776  63.9047241  85.3267593
  26.3252754  63.9669418  85.4592972  18.0534000  21.1170597  15.9871778
  18.1831837  20.2193604  16.2929916  18.9313812  21.4209099  15.7568398
  46.2994270  70.7592545  72.9048309  45.4112511  70.9079971  73.2292557
  46.6835213  70.1456070  73.5310364  76.0969696  65.0898285  61.7412834
  75.6438141  64.3648605  62.1717453  75.6346283  65.8727264  62.0405006
  65.3714981  31.5661182  11.4326563  65.4888458  32.2810974  10.8071432
  65.0656738  31.9949150  12.2319279  26.1567936  68.1621017  46.4866142
  25.4593067  68.8102570  46.5848045  26.9185390  68.5649796  46.9033470
  71.9420776  24.3773727   9.3824463  72.4198761  24.9896812   8.8229656
  72.5541534  23.6553230   9.5247068   4.2318912  71.5479660  41.3856888
   3.4959574  70.9615326  41.2103996   4.3969340  71.4514389  42.3235970
  66.9318161  13.3581619  12.5934620  66.9859161  12.5818052  12.0361691
  67.6810760  13.2816181  13.1842089  59.0457535  20.8708649  67.9900894
  59.9116554  20.6474762  67.6487045  58.8218002  21.6936455  67.5552139
  78.8122940  27.1556625  23.7492638  77.9642563  27.4387932  24.0911713
  78.9629593  27.7162819  22.9881859  28.2841129  41.8570976  59.9428825
  27.5582714  42.4498253  59.7477989  28.6160507  41.5942459  59.0844231
  61.3817863  65.0098801   0.2240178  61.8533821  65.6461792   0.7615616
  61.8143272  64.1755295   0.4056797  68.1866302  46.2205238  48.1725540
  68.0593491  45.2718277  48.1699753  68.4335022  46.4315109  47.2721252
  55.6341858  19.1337452  17.7671223  54.9357452  19.3676434  18.3784332
  55.3752480  18.2787457  17.4233818  50.7140961  57.0688591   9.3346014
  51.3737450  57.7617874   9.3038568  50.5561714  56.8476181   8.4168081
   1.5221636   7.0672026  62.9335213   2.2784379   6.5085769  62.7540283
   1.8162452   7.6510830  63.6326866  81.3350143  30.8092613  88.0232315
  82.2359390  30.6021290  87.7749100  80.8102264  30.5352783  87.2710571
  59.1800194  29.1916618  28.2364063  59.4786758  30.0972309  28.1528397
  58.2410393  29.2639694  28.4076328   7.9527988  11.1563797  23.2875328
   8.1955452  11.1854305  24.2129841   8.4834347  11.8403959  22.8791466
  75.7776184  43.0538483  54.9095688  74.9221115  43.1846390  54.5006294
  75.8412018  42.1069450  55.0343285  57.4446869  50.1395874  80.7922668
  56.6772232  49.7960625  80.3348541  57.1387825  50.9511681  81.1972198
  73.5252609  24.5508175  67.0457458  73.9697495  25.1975060  67.5938873
  74.0867767  23.7766418  67.0855179  35.2548065  60.5835114  66.0288467
  34.6136246  60.6644745  66.7349396  36.0647736  60.3260536  66.4691849
  29.9328556  42.9390221  75.6725006  30.2319622  42.0685921  75.9354019
  29.5441818  43.3083458  76.4654465  50.6224670  49.6873055   1.9470006
  50.1745491  49.5831947   2.7865021  50.5102730  50.6125221   1.7287885
  61.8106270  52.6662483  64.8402328  60.8935585  52.9354935  64.7880630
  61.9857559  52.2479134  63.9972878  12.8996716  16.2935257  61.5209465
  13.1093531  15.7320976  62.2673149  12.2414303  15.8024015  61.0292702
  39.0955620  34.3834229  65.8550186  39.7308121  33.7257042  66.1380234
  39.4603691  35.2148094  66.1582336  48.5496864  55.3593941  83.6383438
  48.2444000  54.9534416  82.8270264  49.1789742  54.7337303  83.9971924
  36.5389290  10.5628977  83.2700806  37.0689316  11.1974621  82.7877350
  37.0219650  10.4163675  84.0833664  -0.2921726  25.1760445  42.8429184
   0.1453863  25.6250629  43.5662155   0.2871942  25.3093319  42.0927200
   2.9308505  54.7991409  12.6797085   3.0187652  53.8800812  12.9323683
   2.0712230  55.0577126  13.0119934  66.9681625  34.4036331  41.5039787
  67.4346008  34.5087547  42.3332062  67.6590424  34.2613640  40.8569221
   8.1352320  17.5384407  30.3909721   7.4657712  17.7325802  31.0469952
   8.9626484  17.5963078  30.8687439  49.4860878  27.2361813  19.2754669
  50.4089966  27.4855709  19.3231945  49.0856285  27.9051266  18.7201519
  50.4595642  44.5169716  54.8245239  50.9781876  45.2273026  54.4467850
  50.7648849  43.7306747  54.3720322  66.4933548  56.2577591  84.7323990
  67.3372574  56.5931664  85.0349884  66.6638336  55.3412476  84.5151901
  70.9358444  71.3339386  86.5885849  70.4382629  71.5494232  85.7997818
  70.2702866  71.2106705  87.2653961  58.1452522  27.0788364  26.2259808
  59.0768433  26.9669094  26.4153023  58.0377731  28.0217819  26.1013470
  14.9199533  24.8846321  72.4066544  15.4358644  24.1114483  72.6352463
  15.4305763  25.6212196  72.7427139  80.9315720  22.6786346   5.7804694
  81.8342361  22.8441868   6.0525370  80.5607529  23.5495396   5.6381621
  45.3529434  63.1144409  46.6751175  46.3039856  63.1960831  46.7464447
  45.1708336  62.2087631  46.9257431  13.9552107  43.5453835  62.4603958
  14.7219181  44.0597458  62.7130241  13.5981407  43.2250786  63.2887306
  49.6191406  15.9182949   1.4415387  50.2188721  16.2590446   2.1051965
  50.1362495  15.2721891   0.9605246   1.9905317  65.5353317  88.0896912
   1.4209424  64.9802933  88.6223526   2.7383654  65.7247543  88.6563416
  31.2827435  23.3607788  13.7801657  32.0050926  23.0014439  14.2952585
  30.4953117  23.1027069  14.2593136  60.6878586  63.9666939  21.1962433
  61.2758751  63.2128868  21.2435932  60.0597534  63.7378349  20.5111637
  64.1117325   3.0903175  74.7971649  64.5774765   2.6738522  74.0719910
  63.6388435   3.8173096  74.3920822  27.6976814   1.7018046  47.1372261
  27.8794842   0.8875424  46.6680145  28.5250511   1.9212120  47.5656548
  44.1851578  14.5726471  85.2755814  43.4662399  14.4751453  84.6511765
  44.2651863  15.5179472  85.4029999  81.0981064  10.0115290  85.8305740
  81.0353775  10.9624424  85.7407913  81.0845337   9.8587484  86.7754059
  29.1840153  51.3571930  35.2999763  28.9108124  51.2759438  34.3861961
  30.1164875  51.1412010  35.2912827  63.8313637  43.4125328  54.5126648
  63.1266518  43.2084618  55.1274567  64.1825027  44.2483940  54.8196983
  32.6361389  40.3178139  61.4377403  32.1882210  39.4752617  61.3621826
  31.9817791  40.9620247  61.1674843  14.7984114   4.7236481  83.3724594
  15.0453606   5.2834439  84.1085815  14.9859152   3.8347709  83.6740723
  82.5797119  47.8590279  25.3889599  82.6774750  47.0321655  24.9167576
  82.7979126  47.6441803  26.2958565  71.4855423  27.7572308   7.0528517
  71.2579651  27.9148903   7.9691391  70.9771729  28.4050732   6.5649095
  79.2485962  11.8919144   5.3836474  80.0027924  12.3550081   5.7482996
  78.6813354  11.7275343   6.1369262  61.3470688  26.6160526  42.4551239
  60.4144897  26.7284966  42.6391907  61.5221901  25.6971741  42.6581764
  67.3069305  61.0299721  65.2492676  67.4612427  60.4740639  66.0130615
  67.6567764  60.5280495  64.5131226  20.8661175  59.3647079  51.7512703
  21.3876648  59.4463234  50.9527969  21.4530144  59.6512642  52.4510345
  44.7078018  65.4983063  72.2225418  44.4227371  66.1241074  72.8883820
  45.3498001  65.9796753  71.7006683   1.6384662  61.6749039  19.4192772
   0.9748782  62.1058464  19.9579525   1.4871643  62.0131340  18.5367031
  85.7986908  12.3357506  17.4009075  86.1967926  13.2006073  17.4997616
  85.9231262  12.1190004  16.4769115  85.5533142  70.0921021  42.6532288
  86.4249344  69.9914169  43.0358200  85.5612717  70.9675598  42.2662659
  18.4661446  18.6675606  17.1314144  18.4422607  17.8678741  16.6059036
  17.5880165  18.7339706  17.5065308  55.6467972  50.1097221  36.7673073
  55.5069313  49.1808395  36.5833397  55.8058777  50.1457825  37.7105064
  49.6393089  61.7441978   7.3696408  49.5409279  60.9696999   6.8158293
  49.5759010  62.4819756   6.7630987  63.9148674  71.3275299  15.4117126
  63.9115486  71.6168594  16.3241329  63.1945763  71.8092575  15.0050745
  23.5432644  60.4848671  23.5639095  24.3251896  60.4557648  23.0125675
  22.8739834  60.8858528  23.0093784  75.9552307  70.9097748  79.4943619
  76.4306412  70.7613678  80.3117981  75.6216965  71.8037720  79.5701904
  65.8511124  15.0322742  74.2716141  66.1750336  15.8999119  74.5134964
  66.3952560  14.4250870  74.7730637  66.8000183  24.1887836  86.7070847
  65.9316788  24.0102215  87.0681076  66.6383972  24.3991890  85.7873840
  72.9095612  32.0992699  42.0642853  71.9930496  31.9143715  42.2693634
  73.3430862  31.2474289  42.1158180  81.8720856  11.5604315  22.6854610
  82.6422424  10.9920349  22.6891708  81.2057037  11.0639553  23.1605186
  70.1980591  58.2551422   2.8839693  70.3157120  59.1955757   2.7499201
  69.3183060  58.1739235   3.2523127  57.4581451  18.6193142  67.2513199
  57.3889198  17.9006443  67.8797760  58.0194626  19.2626629  67.6840515
  10.1971455  59.1520538  22.4857864   9.9634228  59.3321648  23.3963718
  10.1176615  58.2018852  22.4015522  78.0569687  59.5660362  25.4501991
  78.4721069  58.9589767  24.8375263  77.3616714  59.9823265  24.9407940
  15.4485722  22.5269260  73.6685791  16.0362892  22.4418907  74.4193039
  14.6258421  22.1362247  73.9630203  66.0697556  26.4039516  24.0521584
  66.9052277  26.1392307  23.6672688  65.4264069  26.2431793  23.3618813
  43.0093689  39.5039825  21.0658035  43.0312119  38.7137756  21.6055527
  43.1854095  40.2177162  21.6788502  61.0545502  51.2250214  76.2039413
  61.3735085  50.4051971  76.5812836  61.6138954  51.3711433  75.4410477
  54.8493958  61.7649040  21.2399044  54.0026054  61.5130844  21.6083698
  54.6657181  61.9434624  20.3176193  26.0647526  46.2634468  17.6161747
  26.3224392  45.4149704  17.2557335  26.5183201  46.3139648  18.4575748
  66.0830765  28.1772308  32.5776520  66.0226822  28.4798412  33.4837456
  66.9978333  28.3235645  32.3367310  64.5793457  42.2201881  85.2014389
  65.3660583  41.8571739  85.6083069  64.7390747  42.1435814  84.2607727
  80.6064606  67.1472244  83.3605118  80.6504974  66.2764130  83.7554398
  80.8942337  67.7399445  84.0548477  76.3856201   2.9739492   7.4189110
  77.0630798   2.3249290   7.6087761  75.7966919   2.5332639   6.8063807
  54.7131271  66.0602951  29.4420795  54.1566048  65.3443146  29.7484970
  54.6619873  66.7173462  30.1362686  17.8423805  20.3319283  73.0774231
  17.6389408  19.6719551  73.7402039  18.4079609  20.9584103  73.5289459
  68.8644714  25.3413258   6.5591354  69.1011429  24.5578518   6.0627627
  67.9920349  25.1517181   6.9043069   9.0089664   4.9463181  19.2782326
   8.0727711   4.9708390  19.0803242   9.3594742   5.7416124  18.8771286
  54.3617592  46.2219162  58.2283096  54.1548805  45.4493370  58.7541962
  53.9886093  46.9533920  58.7201767  46.5219650  61.0517120  64.2369843
  47.0984077  61.7549171  63.9378967  47.0061302  60.2480927  64.0472107
  57.9518623  46.4289703  34.6483650  58.1628227  46.9844666  33.8979301
  57.0069885  46.2895622  34.5850563  61.4168167  23.5774307  58.0287781
  62.2093163  23.8856335  57.5892448  61.2090797  22.7496452  57.5953636
  53.4393234  20.0401039  11.1774368  53.3342094  20.6525478  11.9055128
  53.1101112  19.2073174  11.5155449  50.5807076  25.0751114  53.4105682
  51.3506699  24.5068836  53.4330177  50.4794083  25.3048248  52.4868813
  48.8526535   6.5299540  29.8682194  49.0821228   5.9230304  29.1645012
  47.9648666   6.8181019  29.6559982  76.1657639  35.1665802  75.4546509
  75.9516830  35.2557869  74.5259705  76.9166870  34.5732346  75.4714203
  73.9786530  57.5570946   7.2572680  74.3462906  57.0592995   6.5270114
  73.0344162  57.5504112   7.1004057  60.4400063   9.9978189  43.2188263
  60.6379318   9.8532009  44.1441078  60.3396454   9.1181526  42.8550339
  69.2677765  66.4497757  41.4914398  69.0603180  66.9616623  40.7096710
  68.6712952  65.7021179  41.4534378  30.0299816  15.2974463  11.7024775
  29.9872055  16.1680679  12.0979795  29.1806107  15.1864414  11.2753010
  16.7522659  41.4344902  62.2446404  17.6705856  41.3290710  62.4932556
  16.3065357  41.6551666  63.0624809  54.8164597  25.8971138  21.6690426
  55.4302979  25.8187370  20.9387741  53.9677734  26.0491524  21.2532921
  38.9040222  56.4073677  20.0444126  38.7525826  55.9032898  19.2449112
  38.2111778  56.1240730  20.6410198  62.9029312  11.1203957   2.5633295
  62.5548134  11.4766026   3.3807418  62.1365852  11.0260363   1.9976077
  70.4898453  44.6111450  78.8484573  71.1816483  45.1598473  78.4789124
  70.7289810  44.5124855  79.7700348  72.4261627  27.0440578  24.2468452
  72.7836761  26.1681767  24.3926239  72.5993729  27.2226715  23.3225479
  19.1979809  16.8529530  64.1846237  18.8388672  16.0956211  63.7223244
  18.9846191  16.6954193  65.1043472  32.6177444  57.6930923  80.2804565
  32.5895615  56.7537422  80.4622726  32.2542343  57.7774544  79.3989944
  22.0202675  51.6868401  59.1343689  22.7476025  51.7945290  59.7472458
  22.2200737  52.2887459  58.4174194  53.3761063  21.5181236  34.6674919
  53.4006157  22.4671803  34.5453300  52.6612892  21.2224464  34.1037140
  37.5372658  60.3531151  75.1183701  37.9643936  60.9827461  74.5375443
  36.7403984  60.7971077  75.4083786  20.4770794   0.0350285  74.8469009
  19.8203812  -0.6071579  75.1162949  20.3675117   0.7614770  75.4604950
  71.3900146  21.4631748  83.9851608  70.9284134  22.2830086  83.8089981
  71.4226456  21.4071102  84.9401627  39.1168251  54.2181854  47.1938400
  39.0032921  54.2764320  46.2451820  38.2728958  54.4916878  47.5532990
  30.0227337  33.3911438  86.5841293  29.7984886  34.2419739  86.9610062
  30.3715057  32.8877525  87.3197784   4.8783660   8.1754427  81.4760208
   4.9492531   8.6680470  80.6583786   4.1432333   8.5801373  81.9364929
  37.1147385  17.8417358  87.2785263  37.1793976  17.0134411  87.7538986
  36.6488113  18.4256401  87.8770294  12.5279608  51.0851936  64.7197418
  12.3235693  50.1527786  64.6485825  12.2564383  51.4547119  63.8795242
  72.8456497  27.7636719  21.6416721  73.4781265  27.4536648  20.9935265
  72.1932220  28.2419357  21.1299782   6.2940006  44.5571976  70.5855942
   5.7987881  43.7928276  70.2910843   7.1168385  44.5116501  70.0986710
  40.1017303  45.5934792  55.2505455  40.6929398  44.8406830  55.2496338
  39.2414742  45.2226601  55.0538673  50.5143776  48.8486481  63.8566284
  51.2108154  49.2180443  64.3995438  49.8860931  48.4907188  64.4838257
  17.3726101  44.9924507  11.4915009  17.1985683  44.2074890  10.9720984
  18.0267410  44.7150650  12.1329079  73.8120117  36.4996338   5.5583205
  74.1479340  35.6948166   5.1637874  73.7578888  36.3034058   6.4936256
  56.4361038  70.1598740  43.4768867  55.8741417  70.7289505  42.9509735
  56.1816177  70.3417435  44.3815384  50.7906418  37.0565186  56.7272034
  49.9960136  37.0828171  56.1941948  51.2168427  36.2354355  56.4814224
  54.8273163  28.4663506  19.8534985  55.0732422  28.3899765  20.7754078
  55.2570572  27.7239971  19.4286823   7.7399278  26.0115299  75.5275497
   7.4165330  26.8564529  75.2148972   7.7249727  25.4481621  74.7538452
  44.9877586  58.4017067  69.2405853  44.7443848  57.4945297  69.4250565
  44.3308830  58.9242172  69.7007294  53.0625534  27.5770760  56.4772987
  53.8414574  27.9810944  56.0947952  53.3159599  27.3734474  57.3776054
  45.3075218  27.6012344  20.0273438  46.1425171  27.7410622  19.5807323
  45.3942337  28.0788441  20.8523293  78.8640060  23.5708313  69.7464066
  78.2217560  23.9794884  70.3267059  78.6657181  22.6354370  69.7906036
  44.5580482  46.6992607   1.5103194  45.2792778  46.5043755   2.1087177
  44.9868965  46.9633865   0.6963414  76.4642944  43.5552864   4.3730578
  76.0739822  42.6842575   4.3010020  77.2743225  43.4149513   4.8633561
   5.0687695  43.0191154  67.6862183   5.7803702  42.8330116  67.0736618
   5.2709217  42.4882240  68.4566193  15.5718374  60.1450806  39.2478561
  14.6240978  60.1484337  39.1136551  15.8409357  61.0479012  39.0783577
  79.1870346  65.8978577  24.5031986  80.0734940  66.0261993  24.8407650
  78.9359665  66.7544937  24.1576824  56.0655708  58.8071289  17.1852989
  56.3571167  58.0872841  16.6257877  56.1648827  58.4729424  18.0767517
  55.7856865  49.0079079  65.6869278  55.4859886  49.6747551  66.3047638
  56.6323433  49.3306007  65.3782578  68.5795288  54.5470161  42.8829346
  67.8415756  55.1566086  42.8902206  69.2779846  55.0109329  43.3446350
  72.8948822  71.4944000  62.2082214  72.9419250  71.0643845  61.3543472
  72.2207489  71.0091629  62.6839523  73.1999969  17.9571686  63.5507011
  72.6558380  18.5844193  63.0745888  73.4664383  18.4239998  64.3427277
  60.3988953  66.5198364  34.1241035  59.7192993  65.9885559  34.5389786
  59.9546394  67.3335037  33.8857498  65.3456650   2.1687021  83.7345047
  64.8304672   2.8389020  84.1835403  65.3414001   2.4386387  82.8161621
  75.8436966  23.7697334   6.8404179  75.2014542  24.0646992   7.4859786
  75.9397812  24.5108204   6.2422647  17.0658779  18.2833500  80.3770370
  17.1367531  17.7909317  81.1947937  17.9526443  18.2781391  80.0166855
  55.6187134   3.6905406  52.4339104  54.9543953   4.1108575  51.8877869
  55.6396408   4.2167358  53.2332306  69.8569794  33.5670586  65.8513412
  70.1223602  34.1802177  65.1658936  68.9279938  33.4082222  65.6840515
  86.0974808  31.3641186  71.2946091  86.1188736  31.6468105  70.3803558
  86.5427933  32.0639992  71.7722015  14.5025558  61.5079002  72.7076721
  15.0630140  60.7659798  72.4803543  13.6378412  61.1213608  72.8458328
  71.4936218  61.8499756  81.4856415  70.8131943  62.5232048  81.4889832
  71.2158966  61.2254105  82.1557312  40.1628227   7.4180117  15.4495811
  39.5758667   6.7218719  15.7447109  41.0339012   7.1274567  15.7198286
  38.8507500  61.1690598  86.6772461  39.2055016  60.8717842  87.5151062
  38.3674660  60.4145432  86.3405380  66.2740402  22.3122654  21.5919323
  66.7103882  21.4604130  21.5786877  65.3501511  22.1104488  21.4438286
  65.9635696  25.4428387  84.2222214  66.4852905  25.3711967  83.4229050
  65.0954742  25.1276169  83.9706802  13.5824080  20.4951115  70.4249420
  13.3487043  19.6743813  70.8585510  13.2172661  20.4129772  69.5439453
  51.5705338  60.3804321  70.2056580  51.5799561  59.4866905  69.8630600
  51.0045700  60.3355751  70.9763107   6.5227389  23.2145500  83.1278076
   5.9402719  22.6619396  83.6489410   7.0439219  22.5966396  82.6151733
  81.6362000  65.2224808  66.1913605  80.8763046  64.7021637  65.9304810
  81.3526917  65.6803894  66.9826736   0.5951082  51.8432426  53.9848480
   0.6439749  52.0978355  54.9062729   1.0414215  50.9973526  53.9460869
  46.1996880  32.4592934  14.1207724  45.4881477  32.9511108  14.5307264
  46.2982101  32.8568306  13.2556190  53.3768883  40.8774338  61.5834465
  53.5060272  40.0822792  62.1004410  52.4500389  40.8601570  61.3449402
  46.7309685  50.3085213  64.9793549  47.6845551  50.2647552  65.0499954
  46.5407448  49.9823990  64.0997543  82.2523956  21.4592934  62.4145088
  81.6667404  21.3974571  61.6599159  81.9553299  22.2381115  62.8850708
  26.1615295  42.1685371  22.4991112  25.4517765  42.0752411  23.1345463
  26.9087849  42.4680290  23.0169411   3.4323754  21.0456657  35.4479904
   4.1676779  21.5755501  35.1401215   2.6789329  21.6346149  35.4068336
  29.7676659  68.1087112  83.0388870  29.1313000  68.0534592  83.7517776
  30.4446774  67.4736099  83.2724075  73.6732559  14.7749004  45.7567062
  73.9343033  15.1234407  44.9042969  73.0711060  14.0603781  45.5490913
  69.7873764  34.1232529  54.5694275  69.5486450  33.6568565  53.7683601
  70.1588364  33.4485283  55.1377563  73.6158600   9.0900698  68.7831726
  73.2081833   9.9549904  68.8272858  74.5176773   9.2638264  68.5134201
  74.5227203   5.1587515  38.0757828  74.4857941   5.7101173  38.8573608
  74.1475983   5.7012029  37.3820572  49.8855171  31.3150196   9.5591946
  49.7865257  32.2042999   9.8992147  50.3169975  30.8349838  10.2660332
  66.6707993  45.6231995  32.6227989  67.5491333  45.2676926  32.4872627
  66.7465057  46.1524353  33.4167824  25.5266342  23.2695694  13.7507610
  26.2769203  22.8287907  13.3519936  25.4199600  22.8402004  14.5995808
  50.0391731  47.1702080  42.6235237  50.6627312  46.9060898  43.3000221
  49.3818741  46.4743843  42.6188278  27.3287067  10.5200758  31.5290184
  27.5608768  10.7024727  32.4395447  27.3177128  11.3795729  31.1078587
  85.3383026  67.1016159  66.7150955  85.1641769  67.0297318  65.7766113
  85.0561676  66.2611923  67.0760956  36.0393906  17.7562027  76.5342712
  35.2201195  18.1530933  76.2384567  35.7740173  16.9265327  76.9310837
  12.6716146  22.0703392  16.2129841  12.2041864  21.8584957  15.4049826
  12.5994806  23.0217857  16.2889996  23.8500805  46.6247787  30.4917221
  23.4419441  45.9346123  29.9689159  24.7829838  46.5600243  30.2874374
   8.1365738  61.9920845   0.9884148   8.6805239  62.5218811   1.5712230
   7.5403361  61.5264168   1.5748352  68.4466248  20.9052544  37.4980927
  68.5381699  20.7568798  36.5569038  67.5374222  21.1830788  37.6094437
   1.3591450  33.6689415   1.3274655   1.4536005  33.6803436   2.2799256
   0.5203906  33.2335968   1.1751535  46.8192368  56.0639915  26.4006214
  47.4966774  55.4432373  26.6688900  46.2865715  56.1912842  27.1856670
  18.4492264  39.8962173  89.3306274  18.1013699  39.2851601  88.6811371
  19.0796566  40.4284019  88.8452682  47.6927605  13.1245861  81.5301056
  46.9480972  12.5699577  81.7627029  48.4189606  12.7812271  82.0506516
  38.4781151  59.2721443  54.0182076  39.0057678  59.5852547  53.2835121
  39.0425720  58.6430931  54.4675560  61.2319832  25.7031918  12.6865644
  62.0823784  25.9701862  12.3376093  60.7370377  25.4174023  11.9187202
  53.6372986  42.3704796  31.4121552  53.4106483  43.1944771  31.8433037
  54.3289833  42.6060371  30.7938366  23.4866905  54.7757149  45.2585487
  24.2087212  55.3765488  45.0744324  22.9410133  55.2435875  45.8906593
  22.0625305  52.2035217  20.6387882  22.8931847  52.5732536  20.9380245
  21.4874554  52.2576828  21.4020615  80.1408005  18.3813229  39.3617058
  79.6074066  17.8189659  38.8000374  79.8988571  18.1286068  40.2526741
  37.2601395   1.5322963  39.3126755  37.8175507   2.2340600  39.6489029
  36.6557503   1.3419358  40.0301056  31.7237206   5.0281577  42.6349640
  30.8619499   5.3770628  42.4072647  32.2851524   5.8006301  42.7006416
  33.4266930  12.4717178   5.4129629  34.3525391  12.2288647   5.4051609
  32.9606628  11.6373529   5.4666739  81.9753876  54.4971924  43.3573380
  81.1424637  54.7450905  42.9560661  82.6385803  54.9288788  42.8187714
   5.0119867  11.4697046  42.3060112   5.9471951  11.3616982  42.1329460
   4.7293043  10.6166306  42.6355400  34.8699150   5.5232687  61.9503288
  35.0939369   4.6505294  61.6272621  35.1877823   5.5333514  62.8531532
  52.4973526  47.3688240   3.7769763  52.0374680  48.1959839   3.9203169
  53.1826248  47.3568649   4.4451771  75.6350784  57.4375381   9.5478029
  76.4630508  57.1041374   9.2020721  75.0274353  57.3808327   8.8103848
  39.2404289  64.0612564  10.8345165  39.0742607  63.2434235  11.3033142
  40.1897163  64.1751175  10.8806038  82.8893890   9.5964451  65.3864899
  83.7394180   9.2542868  65.6632614  82.2529602   9.1068974  65.9075775
  22.8730335   3.3586488  48.6696739  22.2397118   2.8899739  48.1260948
  23.7219105   2.9984286  48.4129982  70.6466675  13.5614796  81.9342651
  70.1350784  13.6594238  82.7373352  70.6266403  14.4289942  81.5302277
  49.5303879   0.7070674  25.6127396  49.2440567   0.2550265  26.4064045
  49.3615456   1.6324311  25.7900143  85.8230362  47.0674820  18.0395126
  85.5088959  47.6780281  18.7064285  86.2425537  47.6242867  17.3836117
  47.9512596   3.1583200  46.5478859  48.7355347   3.6922352  46.4210701
  47.4560928   3.6174204  47.2263145  41.7947044   2.5615449  50.5626488
  41.0210495   2.2206492  51.0115204  42.3306503   1.7879034  50.3880920
  54.1574097  53.9362640  15.8782043  53.6510658  54.7397728  15.7589426
  54.0070839  53.6917458  16.7913551  53.8064232  40.9697037  86.7982178
  53.9098511  41.9161301  86.8972702  52.8838158  40.8519630  86.5720139
  70.3871307  70.3442230  62.2906151  69.7319336  70.6355362  62.9247208
  70.1774368  70.8265228  61.4908333  74.6630173  35.4870071  62.7977791
  74.8332977  35.9278183  61.9653587  75.0206757  36.0787468  63.4597130
   9.6078920  43.8768387  61.8773422  10.0822754  43.0564690  61.7424698
   8.6982212  43.6646423  61.6682854  84.0151596  57.5538750  14.4108553
  83.5929794  56.6952477  14.3834028  84.3436356  57.6877975  13.5218115
  17.0472851  34.5692825  17.1493664  17.2416935  35.0169296  16.3259296
  17.4700851  33.7148628  17.0631142  35.6352005  43.7806435  23.4997044
  35.0107727  44.5041046  23.4456348  35.9256210  43.7825813  24.4117813
  80.7367020  34.5111198  37.9557228  80.8937378  35.2334175  38.5638847
  79.8903427  34.1526871  38.2229881  43.3586655  17.3900700  71.4603882
  43.8056870  16.5455894  71.5174255  43.7266884  17.8036232  70.6795197
   8.6240730  57.4981766  38.8366432   7.9832926  57.3789482  38.1356316
   9.1579990  56.7041473  38.8106842  37.8168335  43.8836708  82.6207428
  37.0298615  43.9881973  83.1555099  37.5676231  43.2484589  81.9494476
  70.5910797   8.9891701  20.9761772  70.8325119   9.7916422  20.5135975
  70.7149429   8.2938089  20.3301411  71.5159149   7.7355070  27.2319469
  71.9133148   8.5815535  27.4381294  71.3330231   7.3424611  28.0853481
  41.6524048  20.9297619   4.2628727  42.5573235  21.2385731   4.3074613
  41.3205872  21.0308857   5.1550069  56.9206467  12.3831644  28.6310482
  57.5412521  13.0292063  28.9682598  56.7256203  12.6796579  27.7420673
  52.7195168  32.7996788   9.2412205  52.2846909  33.3127441   9.9223385
  53.2542229  32.1678276   9.7219343  47.8369179   8.4010191   9.2013321
  48.0235443   9.2099762   8.7248955  47.2245827   7.9273381   8.6383905
  60.1787796  26.5013275  34.2400055  61.1226730  26.5515842  34.0891037
  59.7918854  26.5910034  33.3690834  65.7269363  50.9510956  85.5693970
  65.6151581  50.4718971  86.3904419  66.2272415  50.3560410  85.0109787
  22.3404026  32.4182587   6.6949544  23.1562710  32.4753304   6.1976299
  21.6850586  32.8240204   6.1274037  71.9760971  65.4744110  23.1526585
  72.2642593  64.9487686  23.8989143  71.5526352  66.2372742  23.5462971
   7.8564110  19.6934223  80.0050812   8.0058908  20.4524860  79.4414215
   8.5604277  19.7334175  80.6523743  16.5861530  61.8767624  11.0593805
  15.7388020  61.8036499  11.4985657  16.3736382  62.1861763  10.1788521
  55.4984436  36.6360970  27.0972004  54.6156006  36.8790398  26.8182716
  55.7984505  37.3808861  27.6182728  24.4138069  63.3376846  37.2859230
  24.0541515  62.4506340  37.2817841  25.3098011  63.2343521  36.9653816
  71.0748138  15.3693476  63.3929176  70.9712067  16.1944103  63.8670158
  71.9704132  15.0926046  63.5866737  15.8870926  35.1265526   1.2724193
  15.2192793  35.6261864   1.7421225  16.1580524  34.4482651   1.8910789
  58.9931755  59.1262817  57.0943108  58.6311798  59.3143044  57.9602432
  58.4920311  59.6837006  56.4990196  65.0397186  42.0077438  77.4538193
  65.4894028  41.6778870  76.6758728  65.7133331  42.0173836  78.1338043
  70.7472687  49.9641876  42.3358955  70.3058853  50.7833633  42.1114693
  70.4956284  49.3578796  41.6392555  71.1064377  21.2902565  15.9896851
  70.9340439  21.9059601  16.7020206  71.2735214  21.8456650  15.2282162
  53.7955399   0.5958715  12.6286821  53.4846725  -0.2928883  12.8010139
  53.9315987   0.6225918  11.6815777  44.7049408  60.7392807  76.6022110
  44.4343567  60.0617447  75.9825592  44.2314301  61.5226822  76.3223724
  31.0920773  45.0097847  58.0696640  31.8241482  44.7657967  58.6360321
  31.1535931  44.4093933  57.3267136  61.8277893  59.4446526  66.9598618
  62.4673653  60.1399307  67.1140366  62.3231506  58.6337204  67.0749359
   3.2547555  63.5386314  54.4759331   2.3660591  63.6019859  54.8258400
   3.1624715  63.0125504  53.6816063  32.6498108   1.6427903  73.2285614
  32.3156357   1.9115045  74.0843353  33.0204735   2.4420807  72.8544235
   6.3564548   7.4241891  17.8449535   6.2954822   6.6568136  18.4138546
   6.6105661   7.0707536  16.9924603  77.5755081  45.8097954  29.5984516
  78.3032303  45.2841759  29.9306908  77.3412857  46.3830490  30.3283482
  84.3049240  69.9138107  72.7905273  84.8063202  69.1150513  72.9542923
  84.2934036  69.9981308  71.8371201  21.6034317   3.8611577  69.2902679
  21.7447834   4.8062449  69.2349319  20.8701935   3.7638137  69.8978195
  29.0207081  67.9905014  70.0554962  28.8578243  67.0849686  70.3195190
  29.4687099  67.9173889  69.2127762  40.2346954  52.2096825  17.8492775
  41.0480156  52.0105515  18.3130531  40.4169197  51.9819489  16.9375954
   3.6106637  29.1622963  65.5419998   3.0597246  29.2427731  66.3206024
   3.0456417  28.7466068  64.8907013  28.3570232   2.9988763  20.4180202
  28.1567879   2.4343057  21.1646118  28.4422913   2.3969684  19.6786499
  38.4308548  20.8502464  13.1689615  38.7580109  20.5579834  12.3182077
  39.2164192  20.9472275  13.7072144  76.4433060   1.1150856  44.0080032
  76.9699020   0.9444569  43.2270966  76.4714279   0.2944080  44.4998665
  60.6798515  50.8914375  72.3112183  59.7240944  50.8725281  72.2622070
  60.9253654  49.9966583  72.5464249  12.1069813  10.8943434  14.5105085
  11.5837593  10.7903728  13.7157383  11.7658567  10.2309532  15.1103258
  25.7347603  46.0515633  53.1307678  24.8168354  46.0319061  52.8601036
  26.2104950  45.6719704  52.3919754  42.1946716  71.0952682  18.7666359
  42.3259125  70.1590195  18.6168098  43.0393600  71.4924698  18.5546112
  24.7216930  60.3353958  34.7836151  24.2495041  61.0024910  34.2853622
  25.3918152  60.0150833  34.1798210  61.5320168  45.0755501  62.8494377
  60.6995163  45.2482758  62.4097290  62.1919441  45.1867638  62.1650734
  20.1177464   6.2930765  19.9596291  20.7049561   5.5633516  20.1569023
  19.5807114   6.3877683  20.7463055  82.8760757  50.0926285  15.7142372
  83.4585342  49.3808136  15.4491034  82.0963287  49.6512337  16.0509739
  12.7397051  69.8559341  56.7370605  13.2018805  69.4352264  56.0120583
  13.0279760  70.7682190  56.7076683   5.9018364  61.4822807  59.9943619
   6.6753716  60.9340782  59.8626480   5.7159657  61.4132195  60.9308014
  84.1133881  70.7429123  19.1236267  84.9492569  71.2060471  19.1789284
  83.8249512  70.6599426  20.0325546  67.1895218  31.3730679  24.5859070
  67.3434372  32.2760887  24.8635616  66.2534637  31.2343922  24.7301140
  72.0057755  39.8893166  72.1262207  72.6819534  40.3343468  71.6153793
  72.4710464  39.1846237  72.5769577  59.5294037  43.1402855  31.5294247
  59.6269875  43.0571785  32.4780045  60.3350410  42.7667580  31.1721325
  79.9070129  68.8182602  46.6271439  80.5320663  69.0317535  47.3199348
  80.4142761  68.3080673  45.9957771  26.8565483   3.3013637  23.1043530
  26.3706379   3.9854915  22.6438179  26.1898289   2.6626003  23.3567371
  10.6423330  36.4912834  41.7121239  11.5347929  36.6306686  42.0288544
  10.1194611  37.1474762  42.1728249  11.5611086  64.7814941   3.9507482
  11.3234863  64.6395950   4.8670626  11.0884409  65.5754776   3.7009306
  78.3280258  60.3139801  50.8695221  78.5568542  59.7602043  50.1230583
  77.5685196  59.8841248  51.2627182  84.4350510  40.3823357  43.1458549
  84.9345169  40.2242241  42.3447533  83.5230713  40.2422791  42.8910828
  49.5975075  25.3182716  10.9059706  49.9816017  25.5325031  11.7561502
  49.2608986  24.4285717  11.0125713  47.1504707  69.5064087  60.8599930
  47.3638496  68.6105194  61.1209030  47.1879959  69.4927216  59.9036255
  30.8946686  25.6901455   0.7776849  30.2068558  26.1362934   1.2717464
  30.6559811  24.7640457   0.8176479  79.0156021  43.8128548  83.1439056
  79.2540359  42.9656868  82.7674866  79.6417465  43.9432716  83.8560638
   0.9942487   6.5676956  56.3700485   0.2081499   6.4416766  56.9014587
   0.7927656   7.3248105  55.8201256  55.4022865  24.6802826  79.8223572
  54.4515686  24.7105312  79.9293900  55.5347519  24.2458744  78.9797592
  86.2153015  59.9122543  56.0290718  85.9617691  59.5888367  55.1645775
  85.3851929  60.0921478  56.4704208  45.6337318  36.4825401  10.9757805
  46.4685020  36.0546837  10.7851658  45.3740387  36.1321030  11.8278275
  75.1267624  67.4163513  36.4877052  75.9692001  67.4071884  36.0333519
  75.3559418  67.4286728  37.4169807  18.1669922   9.2873869  71.5741119
  19.0705242   9.5649986  71.4231415  17.9280243   9.6926470  72.4077148
  55.9162750  34.5729866  18.2852135  55.8367958  34.4261971  17.3426819
  56.8097801  34.8955383  18.4028721  25.7332630  60.8450928  78.8955994
  26.6144180  60.9791794  79.2446289  25.1690884  61.3736763  79.4599915
  19.0096397  56.6601181   2.4091046  19.3795128  56.6967583   3.2911952
  19.7639008  56.5101891   1.8391544  73.5291672  39.3081284  77.8348312
  72.9911041  39.3087234  77.0431824  74.2593231  38.7248459  77.6277237
  27.3955460  70.1587524  16.6778374  26.9652519  70.8304825  16.1488190
  27.4534302  69.3986359  16.0989571  11.1629496   5.5973043  81.0932922
  11.5819750   4.7501264  80.9418411  11.0868921   5.9860845  80.2219162
  55.1639137  56.0670509   5.8807998  55.3091278  55.5309982   6.6604109
  56.0381317  56.3637276   5.6278882  74.1432877  51.5656662  65.0586014
  74.4776077  50.9910164  65.7472534  73.6317749  50.9880867  64.4920502
  65.7060547  23.0540485  72.1345215  64.9375610  23.6125183  72.2518005
  65.7340775  22.8796520  71.1937637  28.8871136   5.3442016  80.4111710
  28.4419575   5.1059341  81.2243729  28.2459354   5.1607957  79.7245255
  60.7571449  46.1405067  50.8947906  60.0480957  45.9034042  50.2970695
  61.2809792  45.3432121  50.9732170  53.2800102  66.7024536   4.7984943
  53.9097633  67.3013382   4.3972707  52.9293213  67.1884384   5.5448656
  40.6993675  10.2207632  76.4289932  40.0313301   9.9120283  77.0410767
  41.2739182  10.7724638  76.9597931  36.1487427  32.6829910  16.7633324
  35.7127342  32.8187408  15.9220829  35.4359779  32.6620522  17.4018936
  56.9073372  70.6518173  61.7968712  57.3971481  69.8770065  62.0725365
  57.1318855  70.7608871  60.8727989  19.5831547  20.3144035  11.4694462
  19.2297516  21.1329746  11.8176956  19.8593044  20.5322838  10.5792208
  39.8883858  48.0667648  62.9617996  39.0919952  47.8809891  63.4592743
  40.5565262  48.2234688  63.6290779  50.0315895  48.3414154  14.7399502
  49.5094376  47.7577629  14.1895514  49.7417412  48.1519890  15.6323280
  76.8500519  16.5638962   5.7013073  75.9770966  16.7363987   6.0540533
  77.2382889  15.9417114   6.3164372  38.8434410   6.8764009  35.9773560
  38.4996681   6.1035519  36.4254112  38.3548317   7.6084919  36.3535652
   0.6748586  15.4324932   0.8140304   0.8838372  16.3652725   0.8638704
   1.4934741  15.0178623   0.5416681  43.9686394  35.3078957  66.8211441
  43.2620811  34.9514046  66.2826996  44.4037781  35.9447365  66.2542953
  10.8109789  11.1606274  70.5656357  11.5903702  11.5730124  70.1931915
  10.7165899  11.5628901  71.4290619  86.2743530  33.6626892  47.6786728
  85.9567490  34.3277016  47.0678406  86.4907684  32.9125824  47.1248322
  14.9519329  44.9460754   9.1973190  14.5460415  45.2653084   8.3913565
  14.6762619  44.0314674   9.2583389  60.1502342  44.6182442  77.4077835
  60.5323753  43.7586861  77.5848770  59.4657898  44.7170258  78.0696106
  68.3754654  47.7146034  12.7800894  68.6630325  48.0886612  11.9472513
  69.1195297  47.8406906  13.3689089  82.9791336  69.0531540  61.1969757
  83.1651230  68.4560089  61.9215813  83.6799393  69.7039261  61.2369995
  86.3819427  17.8456135  80.9974518  86.2314758  18.4826469  81.6958694
  86.8854218  18.3255672  80.3398972   5.9418406  17.1433582  12.6773663
   5.3608966  17.4699745  13.3644304   5.6887398  16.2270565  12.5652676
  58.0393105  60.7594604  88.3858337  58.9296646  61.1108437  88.3909149
  57.6657906  61.0653915  87.5593262  84.6297073   3.5346868  17.5094852
  84.7117386   3.1877768  16.6211395  83.6858597   3.5986845  17.6554127
  35.9450073  63.5986557  71.1650848  35.5738869  64.4245911  71.4754639
  36.2154312  63.1430206  71.9622650  64.8768616  48.2666588  39.2323380
  64.8049164  49.1506271  39.5924187  64.2240219  47.7581863  39.7134628
  49.6827736  20.8636036  16.3148193  48.9203415  20.4760151  16.7445946
  50.0682411  20.1434727  15.8157597  73.0980759  39.6584892  12.7709560
  72.2714005  39.6721230  12.2886171  72.8454514  39.4653435  13.6737881
  72.0291138  44.3448029  87.9795990  71.9679031  45.0125771  87.2965393
  72.3277512  43.5595818  87.5208206   2.4006786  19.5100574  49.8538437
   2.6977270  19.2356243  48.9862747   1.7899066  18.8250065  50.1256790
  76.3002090  47.0453415  67.8973160  77.1324844  47.5056953  68.0051270
  75.8693771  47.1269684  68.7481766  40.3341522   9.2720528   5.0456433
  39.8978119   9.7164373   5.7725291  41.0324059   8.7647438   5.4595389
  40.1419067  46.8259506  31.9589806  41.0656281  46.6313057  31.8005829
  40.1506119  47.6529770  32.4408340  14.4545317  25.7506809  11.2058764
  14.8725491  25.0828209  10.6623192  14.1513433  25.2748642  11.9791212
  20.3940048  56.3457985   4.6152864  19.8217354  56.7723923   5.2530642
  21.2590046  56.3561592   5.0250401   2.4221253  68.4391785  16.8689823
   3.2213633  68.5573044  17.3823032   2.6264534  67.7216034  16.2693481
  15.3588266  13.6930447   0.6779548  16.0759563  14.0578032   1.1965179
  14.7818680  14.4380531   0.5096915  49.8109245  35.8689003  77.4543381
  49.0357590  35.6136246  76.9541550  49.5904465  36.7271271  77.8163681
  54.2074203  59.1957703  48.5026245  55.0719185  58.8880501  48.2302589
  53.9202919  58.5567970  49.1549339  57.7784462   0.3821223  78.0400391
  57.0018311   0.7518100  78.4600754  58.4980469   0.6010237  78.6320572
  21.6499691  47.2785759  87.9172745  21.2504768  47.0569382  87.0761414
  21.3559380  46.5880966  88.5114288  80.0099945  56.8963394  34.4034576
  79.9580460  57.3237152  33.5485382  79.0999908  56.7075233  34.6325302
  62.5048523  69.9656219  65.6534958  61.7891464  69.8872681  66.2842560
  62.0991936  69.7797775  64.8066559  86.4435196  26.7289085  71.1086121
  86.6315765  26.1538181  71.8503189  86.4763412  26.1530590  70.3447037
  56.0875244  60.5159149  24.7284088  56.5441246  61.1021042  24.1249733
  56.0881653  59.6676941  24.2848415  57.8266983  39.6159592  85.1556320
  57.2494507  39.7752457  85.9023895  58.6134148  40.1261826  85.3479309
  51.5506668  68.3636856  66.5330734  51.3252602  68.1384506  65.6304703
  52.0764008  69.1599655  66.4570770  75.2855911  50.6609344  84.3374023
  76.0599747  50.8361931  83.8027573  75.6145706  50.6406593  85.2360687
  80.8674622  37.3309364  33.5574837  80.2846832  37.8250237  34.1340942
  81.3853149  38.0000687  33.1099091  44.1545715  19.2870560   2.7427642
  44.7332726  18.5246754   2.7534752  44.5267105  19.8794308   3.3960891
  57.4275093  62.1177979  21.7990913  56.5176697  62.0476074  21.5101242
  57.9354172  61.7266083  21.0882950   1.6687669  61.2475929  10.9795208
   2.4981606  60.7735672  11.0398407   1.1085604  60.6832504  10.4466810
  13.2947435  40.8688545  44.4570732  12.6212997  41.4635315  44.1268234
  13.5233316  40.3239899  43.7040100  57.4528122  61.2493553   6.8554997
  57.3454323  62.0851097   7.3096075  56.9843521  61.3640938   6.0286918
  85.3054810   7.3988085  44.1404190  85.1435623   7.4866929  43.2011147
  84.5909653   7.8840175  44.5530586  33.4262505  14.0806360  75.6520538
  33.1996613  13.2920074  76.1449585  33.9744530  13.7648668  74.9337234
  77.9804077   8.8798685  60.7281990  77.7352066   8.0622053  60.2951469
  77.7766342   8.7322378  61.6517334  11.3379536  31.3351498  83.6993866
  11.0290728  30.4526939  83.9045563  11.0020895  31.5080242  82.8198700
  49.7143021  50.7573776  55.2889862  50.1540909  50.9982758  54.4736404
  49.2626190  51.5557785  55.5624275  72.6916580  23.7361546   1.4451095
  73.1316223  24.3002052   0.8090945  72.2367096  23.0838776   0.9123929
  57.9711266  56.9139671  79.0895233  58.5319824  57.5974503  78.7227554
  57.8747292  56.2774925  78.3811188  40.5389061  53.1856346  54.6193390
  41.2188416  53.4442596  53.9972191  40.6139069  52.2329330  54.6737747
  45.2799721  55.3830376  24.2945614  45.0424500  56.1269341  23.7409954
  45.7832985  55.7690201  25.0114384  45.6964989  50.5884094  55.4760704
  46.4633636  50.1128235  55.7953949  44.9862900  49.9475174  55.5091896
   3.6292372  22.2659607  46.2810593   3.3850925  22.1571045  47.2001762
   3.3480465  23.1543522  46.0621490   9.8551474  13.6895075  62.2584953
  10.1331882  13.7602797  63.1716843   8.9505491  14.0024519  62.2586098
  57.0420380  21.8486118  51.3259315  57.7054138  22.2392750  50.7571182
  57.5406685  21.4669399  52.0483742  48.1041107  57.7312469  72.5130768
  48.7103691  58.3452568  72.9274139  47.9183769  58.1184998  71.6576385
  85.0517654  54.5042801  12.3880596  85.6343994  54.2315445  13.0968475
  85.6298370  54.9238625  11.7508698   4.8222961  70.3036957  71.5072556
   4.0813632  69.7020645  71.5799713   5.3814225  70.0863266  72.2531509
  69.3442535  70.6242218   9.5627556  68.4330902  70.5440292   9.8448572
  69.4783554  69.8827515   8.9724426  66.3684998  46.7250938  28.7203426
  66.8973236  47.2870636  29.2867069  66.6872025  45.8398361  28.8963585
   2.1216321  33.2209549  70.5289993   1.6038175  33.8599052  70.0392609
   2.7884786  32.9269295  69.9084396  72.9723892   8.1006021  54.4952965
  72.1259232   8.4825821  54.7272949  73.4937134   8.1699171  55.2950745
  81.9348602  66.7730026  50.5236435  81.4022675  66.2084732  49.9634018
  82.7936401  66.3506393  50.5420609  44.4977493   8.5463820  81.2363205
  43.6319389   8.4766483  81.6384964  44.3260880   8.5349293  80.2947159
  83.2380600  50.2460251  23.9010544  83.1355286  49.6217346  24.6193733
  83.2833862  49.7015114  23.1151257  64.4286346  16.2694302  35.8628159
  65.2033310  16.1142693  35.3224373  63.8086853  16.7004986  35.2745399
  55.4572258  39.8482857  71.5831833  54.6282196  39.6571198  72.0218582
  55.3311996  40.7167130  71.2008438  15.2192307  15.2528448  75.0198746
  15.2959442  16.1495476  74.6938782  15.6134405  15.2803974  75.8916931
   1.2176043  48.7789612   5.2509966   0.4471929  48.2173920   5.3366518
   1.9310250  48.1764107   5.0407672  35.9119987  47.6856003   3.7874773
  35.2708359  48.0287361   3.1650648  35.7513161  46.7420807   3.8011851
  77.4931488  38.9799881  86.8933945  77.9641876  38.2344017  87.2654877
  76.5746002  38.7108231  86.9007416  85.5815353   0.8473189  41.5333557
  86.4613953   1.2122838  41.4391212  85.1133881   1.1465100  40.7538986
  28.5988216   5.4792032  21.7923508  28.2673016   4.8865523  22.4669533
  28.6116238   4.9506254  20.9944324  25.7790318  19.9539852  70.2434387
  26.4208508  20.6048698  70.5274277  25.5725193  19.4593716  71.0364990
  20.5309925  15.8308506   1.0114133  20.5029736  15.9122562   0.0580929
  21.4348469  16.0439243   1.2435298  11.5169601  65.8508148  43.0707207
  10.9853907  65.1144791  43.3731689  11.6476288  66.3886261  43.8516922
  28.8191128  62.5251656  45.8056488  28.2609978  63.2901039  45.6655998
  28.9536057  62.4970169  46.7529335  70.3504105  40.3976250  29.5361671
  69.6684341  40.8543243  30.0286789  70.3225555  40.7934341  28.6650810
  48.8477325  13.1577625  74.8436356  49.0169334  12.2878923  75.2054749
  49.3817940  13.7468662  75.3765259   5.8807125  65.2349548  12.3958683
   5.8702774  64.6390762  11.6468382   5.4790096  64.7342300  13.1058931
  68.6815109  49.1626892  35.2893143  69.1672668  49.2919083  34.4747124
  68.2095108  49.9851418  35.4197578   3.4928555  12.9349499  67.6026840
   3.6308138  12.2265072  66.9739456   2.5713587  12.8592911  67.8503723
  63.8624878   8.6997948  64.6186981  63.6517677   9.3860598  63.9855537
  63.1757469   8.0439253  64.4984589  63.2519035  71.8125839  40.4595871
  64.1857529  72.0219879  40.4771233  63.1917076  70.9515762  40.8734550
  40.5168381   3.4952393  55.9531937  40.0026474   3.3673823  55.1560135
  40.9246750   2.6443694  56.1141891  26.2685394  51.1521912  44.4839020
  25.7860870  51.6425438  43.8182983  26.0613232  51.5966225  45.3059578
  45.6271057   9.5367918  88.5283966  46.4218636   9.5033236  89.0608139
  45.8793221  10.0378590  87.7528000  32.2209587  69.8155746  16.3565826
  32.2245178  69.8744965  17.3119621  31.5453949  69.1668396  16.1591415
  34.3504906  34.5210075  73.8260498  34.5000305  33.6979828  73.3607559
  35.1421661  34.6478004  74.3489304  67.4589233  58.7684402  69.7733536
  67.6778717  57.8800201  70.0544357  67.5363770  58.7438354  68.8196106
   9.2083569   5.8757896  53.4446793   8.4473114   5.2958722  53.4718475
   9.8443279   5.4639206  54.0296021   4.6475492  26.4306850  27.3270588
   5.2312932  26.5813255  28.0705528   5.1156993  25.8011074  26.7787018
  13.0224752  21.5892658   2.9512007  12.4471750  20.9551926   3.3792346
  13.1706409  22.2638111   3.6139746  83.4244232  47.6016579  85.2163773
  83.9814911  47.2246704  84.5353546  83.4984818  48.5475807  85.0899658
  68.8115082  70.0495987  18.7764931  68.8847580  69.1071548  18.9270458
  68.1446609  70.3404083  19.3985729  52.1596031   0.6525339  31.6289577
  52.7629204  -0.0618404  31.4242363  51.9247208   0.5122255  32.5462227
  47.4588776   8.6170835  64.7787476  47.7286606   9.1086254  65.5545273
  46.5148735   8.7636347  64.7186508  51.4814529  49.5143051  19.9755669
  50.9027176  49.2259750  20.6813698  50.8889427  49.8393059  19.2976723
  24.9903545  12.8121662  28.1534462  24.9651833  13.6181297  27.6376743
  24.0867100  12.6841593  28.4420166  18.6537647  66.1293182  36.3674011
  17.8187046  65.9392548  35.9398727  18.5756245  65.7299881  37.2338066
  73.4518661  22.5592690  86.8869400  72.9851303  23.3946648  86.9094009
  74.3448410  22.7765427  87.1545563  53.3881569  40.6896858  34.4248276
  52.5315208  40.5954361  34.0082626  53.8161049  41.3926964  33.9360847
  41.7874603  53.7250443  30.3496876  42.5307274  53.5210686  30.9172993
  41.7635422  54.6815109  30.3208179  72.7795792  48.9430809  38.9744606
  73.3351364  49.7212715  38.9296799  73.2780228  48.2662773  38.5165062
  72.6365585  64.1337814  74.6006775  72.5209274  63.1887093  74.6991653
  71.8644180  64.4199829  74.1127014  20.9089451  15.1416140   9.1098433
  20.0246735  15.3696356   8.8229599  20.8570538  14.2114277   9.3295984
  46.9436417  52.2874374   9.3238277  46.7213287  51.7186470  10.0609064
  47.8578186  52.0809708   9.1291895  10.5147324  44.0802155  57.4716339
  10.1363544  44.2490501  58.3345146  11.4521656  44.2359238  57.5865479
  36.0943604  28.7714481   2.3522372  35.9948883  28.9766579   1.4225993
  36.8358498  28.1670666   2.3860984  39.4352798   4.5953279  42.9271774
  38.7130203   4.0879765  43.2975388  39.5258904   5.3463545  43.5136757
  67.1511993  14.0145435  59.7049561  67.2695389  14.9345608  59.4687462
  66.2072678  13.9194088  59.8321114  80.5738754   7.5395093   3.9861863
  81.3971481   7.9837685   4.1888895  80.6667175   7.2680750   3.0729856
  53.7814980  43.4369431  24.7440014  52.8475227  43.5907516  24.6016521
  54.2111168  44.2030144  24.3634853  75.9942322  11.0281982  39.6900635
  75.6676331  10.1460705  39.8673058  75.3910751  11.3798409  39.0352516
  49.7023773  12.8032150  55.1149559  50.4753838  13.3133583  54.8731995
  49.3102264  13.2911835  55.8390656  47.9186897  55.1890640  18.6015606
  47.3590279  55.2457809  17.8270950  47.4413757  54.6148491  19.2004585
  52.4011154   9.0682859  34.1583481  51.7241516   9.5401297  34.6434402
  53.0231400   8.7856283  34.8287392  56.7650986  32.6692162  51.0534096
  56.0479813  33.1340141  50.6222000  57.4931984  32.7252045  50.4345665
  54.9683952  46.3898239  31.1193256  54.0529099  46.1740685  31.2970085
  55.0224190  46.4371109  30.1648235  61.4767227  10.4971561  27.3281822
  62.2520866  11.0453205  27.2075176  60.9962082  10.5772238  26.5042133
  41.3659973  28.9159660  71.0366287  41.5099907  28.8104572  71.9770355
  40.6016006  29.4887009  70.9741364  82.8411942  35.6798363   2.6339190
  83.2061081  36.4046974   3.1415055  83.5434189  35.0299950   2.6054049
  13.6099396  45.7781830  24.4271164  12.7730675  45.5490036  24.8312874
  14.2296753  45.8013611  25.1562405  26.3452072  49.3460732  20.4202499
  26.1421642  49.8156090  19.6112118  25.4930515  49.1920509  20.8280983
  57.7539482   7.8836398  28.1492748  57.1059189   8.4518509  28.5657215
  57.8133469   7.1236401  28.7281551  81.2529602  68.5520630  34.8870506
  80.3679733  68.8138962  34.6331291  81.7076187  68.4083176  34.0570831
   3.7213736  20.0891552  10.9777279   3.1842268  20.7517891  10.5434217
   4.0644407  20.5305309  11.7547245  86.4308701  26.6005135  22.6998672
  86.6750717  27.2762108  22.0673866  86.3746109  27.0638180  23.5355816
   8.2176647  23.9203739  69.1666031   7.3216968  24.1584435  69.4049225
   8.7653408  24.3853722  69.7991028  53.8484802  16.5594788  67.5413208
  52.9575500  16.5722313  67.1915894  53.7340660  16.4383240  68.4839096
  68.7101974  36.1650887  11.4863491  68.9862671  36.3864708  12.3757334
  68.0857315  35.4487114  11.6007328   9.8710289  47.0268593  69.0556259
  10.5877714  47.6587219  68.9985275  10.2750711  46.2384682  69.4181442
  20.7827511  40.4224510  85.0059662  21.0881901  39.8480148  84.3038559
  20.6514759  41.2703667  84.5816650  43.2333336  43.9138603  37.5443153
  43.8704338  44.5204811  37.9216042  43.7321129  43.4139900  36.8981133
  18.2503452  67.6683731  62.0722198  18.0982533  67.4310074  62.9869652
  17.3843765  67.9026794  61.7384071  53.7215843  59.5381279   5.5502138
  53.1166039  59.9455223   6.1701026  53.5841370  60.0158958   4.7322416
  45.7147980  23.6228695  64.3146133  44.8630829  23.8977165  63.9750977
  45.6185760  22.6834011  64.4707336  50.7198677  12.2020006  40.2394218
  51.5034714  12.1071825  39.6979332  50.4469185  11.3035364  40.4251442
   3.7655487  37.5090256  60.6929169   4.1000166  37.9416275  61.4785500
   4.4889827  37.5549850  60.0678062  57.8263474  24.0162125  57.0036926
  58.6331940  24.1591759  56.5089226  57.3176460  23.4120407  56.4629250
  81.1600113  42.4258461  15.7087803  80.3861084  41.8628311  15.7266788
  81.8989868  41.8182945  15.7408228   8.0144720  62.4608612  32.5038185
   7.2332010  62.4830856  31.9512291   8.4427729  63.3024063  32.3470001
  35.2785110  59.4781418   4.7620101  35.9713249  59.1301460   4.2006354
  35.7333870  59.7653656   5.5537314  64.6727524   4.1070595  45.1452103
  65.3315735   3.6786058  44.5987587  64.4726181   3.4653137  45.8266373
  84.5729065  45.2859726  44.2658195  85.5209808  45.2674751  44.3963547
  84.2333145  45.7355499  45.0396347  69.7737198  28.3137779  70.6454315
  70.2619095  27.6457825  70.1641006  68.8903580  27.9538631  70.7252731
  41.4805679  52.3704262  71.8950729  42.1859398  52.4023666  71.2488022
  41.5793533  51.5161476  72.3154068  61.8327866   4.4292264   2.5714676
  62.6014481   4.9910860   2.6699865  61.7182617   4.0269027   3.4324272
  77.3610458  67.3744049   5.6274734  78.1944809  67.1928024   6.0617943
  76.8093033  66.6228256   5.8441100  55.0512581   4.8664780  86.9134750
  54.2494583   4.3925915  86.6926041  55.6210594   4.7397690  86.1548538
  29.6889420  51.9551811   8.4182291  29.6602211  51.4335136   9.2202702
  28.7824707  52.2287483   8.2778587  86.1747665  35.9355125   9.2329025
  86.8753433  35.6203194   9.8039331  86.4490128  36.8175392   8.9818048
  84.2109070  64.9242401  67.8947449  84.6430740  64.0748978  67.8049240
  83.3550949  64.8021774  67.4837494  31.3777828  27.3833809  74.0773621
  31.4194431  26.7662010  73.3468933  32.2868233  27.4805145  74.3609924
  69.5171585  54.5174332   1.4646076  68.7900162  54.1459503   1.9641019
  70.0552902  53.7622147   1.2273453  82.6094818  42.7798576  19.3049698
  83.0828552  41.9521179  19.2213230  83.2847900  43.4521713  19.2145176
  11.6960049  25.7618103  58.2530518  12.6061258  25.9906902  58.0645676
  11.2847509  26.5924129  58.4922180  59.6741676   9.7109327  85.9471588
  59.2515030   9.8168478  86.7994308  59.2544022   8.9398260  85.5658112
   2.1774073  45.2157898  37.2414360   1.4222755  45.7629051  37.0253944
   2.9226046  45.6700325  36.8482742  43.8246574  66.7792740  83.7524414
  43.2782669  66.0221710  83.9633408  44.7210045  66.4745178  83.8935623
  82.3001328  59.6206627  53.9240265  81.6143494  60.1716995  53.5468102
  82.1389542  58.7519493  53.5558014  53.3610725  54.4614258  43.5350761
  54.3175621  54.4344749  43.5098534  53.1047211  54.7029305  42.6450233
  32.9586563  47.1965675  54.8622208  32.2527962  46.5608788  54.9800682
  33.3336143  46.9824944  54.0079308  53.0979996  59.5989227  25.0042877
  54.0097046  59.4754982  24.7401123  52.9862709  59.0189209  25.7575130
  51.5408401  48.9356308  36.0404358  51.3343887  48.1493301  36.5457458
  51.5770836  49.6362000  36.6916771  40.7228470  58.1535110  70.6179504
  41.2958145  58.2406921  71.3797531  41.2683868  58.4162903  69.8766251
  49.5736961  19.4512138  72.0152512  48.7516823  19.1057873  72.3633957
  49.6169167  19.1112728  71.1214905  48.9252892  60.1915817  83.6830215
  48.7210312  60.3218880  84.6090469  48.9586143  59.2409058  83.5765686
  61.4401932  38.8438873  15.9128160  61.7274742  39.6506310  15.4851913
  60.5868073  38.6563911  15.5219049  42.9938431  20.5982437  15.5100126
  42.6601715  19.7072392  15.4051142  42.6133690  20.9009628  16.3345318
   8.7353983  25.5797634  51.6916962   9.3414783  25.0826836  52.2410698
   9.1076136  26.4611015  51.6611900  83.8674088  50.7376709  43.4839287
  84.2083969  51.0449257  42.6439590  84.6438599  50.4625816  43.9714508
  79.9501190  63.7616310  63.9422607  79.5202560  62.9704018  63.6175919
  79.6102982  64.4636841  63.3873978  41.4280128  67.5394745  12.7224293
  41.6132088  67.0023422  11.9520893  42.2706680  67.9336700  12.9477568
  64.8242798  11.3328934  18.0114403  65.7768250  11.3516073  17.9189777
  64.6694183  10.7925262  18.7861996  53.3329697  54.9787674  23.5384960
  52.8124046  55.1992836  24.3109055  53.1136246  54.0653648  23.3546238
  67.4895706  61.6365738  25.2290173  67.1754608  60.7483559  25.3982296
  67.7447357  61.9684410  26.0898228  40.9088974  50.8616104  49.2433929
  41.4984016  50.3141098  49.7620010  40.2165718  51.1137047  49.8544273
   5.9456778  17.0621128  74.3052368   5.5545044  17.8694992  73.9715576
   6.0753069  16.5195026  73.5274200  71.3353500  57.0975037   7.6504998
  70.7576141  56.5178566   7.1540504  71.1030273  56.9407005   8.5657434
  37.9069099   7.2952862  10.2968569  37.0460434   7.0709815  10.6501617
  37.9852524   8.2387981  10.4378538  59.9741478   0.2966473  14.3084927
  60.4430733   0.3464658  15.1414747  59.1819420   0.8154148  14.4482079
  56.4166832  67.5484238  66.8986511  57.1665688  67.8808517  66.4053040
  55.8631935  68.3165436  67.0396271  73.4132919  53.9590645  62.1729240
  73.2414703  54.6072197  61.4898376  72.5514755  53.6007805  62.3853645
  28.0259914  35.4428673  12.7705736  28.9438915  35.7059212  12.7035398
  27.6718216  35.5834122  11.8924828  63.8354607  17.7318535  19.5396748
  62.9083862  17.6956215  19.3041897  64.2726364  17.2011127  18.8737774
  49.9661255  68.3093796  43.4505997  50.8722839  68.4521561  43.7239532
  50.0372353  67.9261246  42.5763626  58.7284622  34.4180260  55.6361160
  59.5985184  34.7794266  55.8053207  58.8894005  33.5018082  55.4105568
  38.5367737  33.7433891  15.8438921  37.7040825  33.4445000  16.2093048
  38.7479095  34.5324059  16.3429966  57.3561707  68.1136017  56.8763466
  56.9083633  68.2537003  57.7106552  57.0221252  68.8059464  56.3059921
  62.5288963  36.9959793  74.8689423  61.5915565  37.0676651  75.0491867
  62.8701439  36.4599419  75.5847931  56.4863853  19.3643456  35.8558807
  57.4098434  19.1257057  35.7752075  56.2371407  19.6569061  34.9792328
  48.5249176  10.0866528  79.3399429  47.6710739  10.3265533  79.6999817
  48.9694710  10.9227810  79.2003250  59.5161705  18.0387611  44.0284462
  59.1750183  18.8097973  44.4816055  58.7735596  17.7109852  43.5211754
  70.4313507  60.3545074  83.9141159  70.2879639  61.2876740  84.0718307
  70.8041306  60.0277138  84.7329330  74.5806732  52.3968964  50.5240364
  74.8062134  52.6292419  51.4248047  73.6420212  52.2115326  50.5523529
  79.1376343  31.7288952  59.2988281  78.3612061  32.2241096  59.5598793
  78.8319702  31.1585045  58.5935211  84.0376663  56.1274986  65.2105026
  84.8737640  56.5692940  65.3587952  83.5037537  56.7739944  64.7487488
  53.6996269  45.2581100  38.3485985  52.9631462  45.3715630  37.7477951
  54.2799759  44.6414452  37.9023323  61.9544792  56.9714851  10.6287107
  62.3005943  57.1916428   9.7638597  61.5595970  57.7848930  10.9428282
  68.4816666  26.5505829  22.5779324  69.0117874  25.9105625  22.1029778
  68.9840317  26.7361355  23.3713017   2.7596464  67.9175034  39.6624870
   2.7300498  66.9611053  39.6370316   2.5992799  68.1862564  38.7578964
  50.7167625  28.4769707  54.3173141  51.2491531  29.0012093  54.9156189
  49.9816170  29.0461254  54.0895882  69.0478210  52.1790161  18.3620358
  68.9580841  52.7758369  17.6190758  68.2063522  52.2324219  18.8151474
  43.2530861  67.5146103  31.9015999  43.0414772  66.7236404  32.3973999
  42.5857124  68.1481781  32.1651154   3.4621000  61.3610992  80.4822464
   2.8684416  61.4350662  81.2294617   3.3427310  60.4643936  80.1693497
  16.0501690  25.6014595  26.1560860  15.9329367  26.5273132  26.3688889
  16.3119354  25.5986061  25.2353783   1.3023531  68.5363998  80.9871750
   0.6698947  67.9679031  80.5478134   1.5750358  69.1579514  80.3122330
  26.1151485  58.0354004  78.5337677  26.9766693  57.9450073  78.1265335
  26.0259342  58.9738808  78.6996841  73.5722427  42.4784050  41.0685234
  74.1215439  42.7254715  41.8124695  73.1442795  41.6682167  41.3454170
  49.9746399  51.8033180   9.6687460  50.7478828  52.2143745   9.2822790
  50.3265610  51.1912231  10.3150568  76.9281693  28.0637798  18.8254337
  77.4539871  27.6044960  18.1706028  76.9712982  27.5054817  19.6017532
  65.3838806  70.8154678  13.0176954  64.9361725  71.2513657  13.7428036
  66.2743912  70.6715622  13.3378716  32.5797691  64.0925446  20.6251984
  33.3811378  64.3118668  20.1498680  31.9271011  63.9474335  19.9402180
  30.8018456  66.9192200  38.9075699  30.9528427  66.9504852  37.9628716
  30.2693272  67.6932373  39.0907516  28.6810188  28.8995533  82.7468109
  27.9998875  28.4706516  83.2648239  28.2370510  29.6400833  82.3336029
  82.6678772  57.3664169  35.0493698  82.7008667  58.3190765  34.9622803
  81.7529068  57.1419640  34.8800125   1.3424975  35.0681114  43.7544861
   2.2338758  34.7872009  43.9612846   0.8938479  34.2652779  43.4891510
  58.1225014   9.6636963  46.0268211  57.1717682   9.5527925  46.0332680
  58.2528572  10.6092253  45.9546165  68.7606049   2.7944064  40.6379662
  68.7446365   3.5539200  41.2203026  69.4414444   2.9984438  39.9968300
  53.1197128  58.4143524  29.5640011  53.5913315  59.2455215  29.6184311
  53.6563950  57.8011131  30.0661392  51.4282341  58.5291901  41.3473549
  51.1154099  59.3605003  40.9905739  50.6361275  58.0854225  41.6504593
  14.9768944  42.8220711  26.6192322  15.4337139  43.5207863  27.0875740
  15.6491270  42.4262276  26.0645752  37.0522957  38.8278084   5.7397003
  37.6449661  39.3167114   5.1687827  36.6701622  39.4919930   6.3133435
  39.7647934  48.5950165  15.5006180  39.4589272  47.9487991  16.1370811
  39.4342117  48.2783241  14.6599922  24.2108326  22.7749577  63.5541229
  24.8994999  23.4047794  63.7669449  24.5411510  22.3094044  62.7857628
  23.9051170  58.0879326  70.1232605  24.1548481  58.5360680  69.3151474
  23.8674278  57.1623878  69.8820572  15.1405144  64.8012848  60.9802856
  14.3375950  64.4300613  60.6145706  15.7132587  64.0464325  61.1159363
  22.9225845  64.1890106  20.8190823  23.8790245  64.2179413  20.7941990
  22.6464653  64.9348297  20.2863998   7.0012670  31.0444679   7.6668258
   6.3339634  31.3495541   7.0521221   6.8555040  30.1005116   7.7295237
  77.6645126  37.5656815  61.7261047  78.2614517  38.3062782  61.6192818
  77.2948990  37.6803169  62.6015930  12.9876661  62.1761627  15.7554865
  12.5441227  61.8291779  16.5295048  12.3703451  62.8095551  15.3894825
  31.2332249  13.5315895   4.1646371  32.0955734  13.1174173   4.1969795
  30.6706276  12.9540310   4.6805291  84.1899719  45.8259583   0.2633403
  83.8938599  46.2962303  -0.5160127  83.5319748  45.1435051   0.3957156
  44.8425751  39.5424728  30.9751949  44.2945023  39.5859184  31.7587509
  45.3611450  38.7460709  31.0894833  52.7247849  67.5727081  59.2724533
  53.1250534  66.9983444  59.9252396  53.1065598  67.2924957  58.4406128
  52.1009865  36.0533333  23.4292545  51.1689606  36.2170029  23.2851334
  52.2208710  35.1321259  23.1985321   4.8157396  47.5915222  62.4444046
   4.8244429  47.9982376  61.5779533   3.9071043  47.3188210  62.5718689
  67.3230743  48.5410385  49.7395782  67.9825516  49.1264114  49.3671951
  67.6541290  47.6613274  49.5586319  78.5323334  34.0729828  75.9669800
  78.2340393  34.4459076  76.7965469  78.9637070  33.2548370  76.2135239
  25.4037704  54.3151131  59.2078667  25.6238060  55.2361832  59.0684128
  26.0242252  53.8349609  58.6594887  81.2757263  52.1634750  38.5472145
  81.0746689  52.5150757  39.4144974  82.1049500  51.6996040  38.6631584
  61.8769760  70.4121399  87.0732346  62.8224754  70.4558563  86.9305801
  61.6815224  69.4754333  87.0978546  38.9458618  56.6928444  68.6942291
  38.1247253  56.2886963  68.9746399  39.3691444  56.9650345  69.5084610
  32.7513351  42.5083771  40.4337234  31.9114399  42.7864876  40.0684013
  33.2301369  42.1489449  39.6868668  59.8614464  41.0269547  64.8592148
  60.6856613  41.2262077  65.3032913  60.1240807  40.7368698  63.9856567
  74.6455460  58.0403786  30.6515121  74.4949265  57.3069763  30.0551357
  74.8300705  58.7828522  30.0762615  71.7487564  27.4592628  18.0275249
  72.6839905  27.6569176  18.0774822  71.6441879  27.0054970  17.1912270
  36.3127403  66.9951248  35.8203468  35.6441040  66.8451920  36.4886894
  36.5165253  67.9277573  35.8904152  32.1045380  16.5493965  70.2206726
  31.6838093  16.4760818  69.3640289  32.3709488  17.4669285  70.2789307
  39.4100304  17.8081074  85.7343903  40.1430511  18.1084213  86.2717209
  38.6484261  17.8726864  86.3106003   0.9313959  48.2144394  16.0307083
   0.3313302  47.9154129  15.3475266   1.4995432  48.8466530  15.5905437
  40.3010406  35.6746445  79.8378448  39.8627205  35.8809967  79.0122910
  39.6325607  35.2304573  80.3594437  22.4388275   9.8618383  79.7679291
  21.7672634  10.5041580  79.9974060  22.8215923  10.1950502  78.9563293
  73.0179291   7.6583934  74.2061996  72.7195129   7.9666400  73.3505325
  72.4814529   6.8855839  74.3828278  62.7448463  44.1170540  14.7864647
  62.9422989  44.8701096  14.2295570  62.5916557  44.4936371  15.6530390
  63.5179977  14.9774513  54.6776848  63.8394203  15.1691370  55.5586929
  64.2409973  15.2227240  54.1003189  17.1890984   5.5749111  84.9856720
  17.8059845   6.1229920  84.5006027  17.5249043   4.6848383  84.8796692
  17.9788055  28.6504860  16.9800720  18.4892273  27.9540939  16.5668659
  18.4571190  29.4532795  16.7727757  19.4729576  28.9331799   8.3505478
  20.4102306  28.7859631   8.4773378  19.3922920  29.1844864   7.4304547
  50.6705399   9.8528185  21.2022743  50.9018440  10.5784664  21.7820740
  51.3269844   9.8837147  20.5063133  13.9515800  26.4735260  17.2758884
  13.6097460  26.9266415  16.5051308  14.4930344  27.1276169  17.7177296
  55.5895844  30.6737957   7.2943754  56.4314880  31.1179485   7.3951612
  55.0436783  31.3002281   6.8191881  37.7053947  46.9132729  23.4207859
  37.1927948  46.8531761  22.6146469  37.3784370  47.7015533  23.8543129
  85.4631271   4.4563918  76.5634384  85.6007233   4.3217053  77.5010757
  84.5139160   4.4057384  76.4509506  71.8305588  65.4886703  12.3201914
  72.2615280  64.6499252  12.1558828  72.1650238  66.0679855  11.6355305
  82.0663223  68.7988052  48.1742706  81.7578125  68.6102371  49.0605545
  83.0012131  68.5946732  48.1975899  18.1569386  13.6802063  68.5481873
  18.6303520  13.8632021  67.7366333  18.6015072  12.9174395  68.9180222
  80.5542221  32.7562866  62.4329910  80.6479645  33.3649940  63.1657410
  79.6214371  32.5420494  62.4174194  63.2038040   6.8365521  13.7477369
  62.6638260   6.7521858  14.5335732  62.9584198   7.6848745  13.3784580
  72.9112244  30.6543388   7.2995491  73.1594238  29.9566593   7.9060745
  71.9815063  30.5037289   7.1287680  81.7995300  58.9125633  16.5288982
  82.2418976  58.4579773  15.8120327  81.5004959  58.2119255  17.1084805
  28.9207516   5.6460924  69.5299606  28.4262104   5.7482848  68.7168045
  29.4082565   6.4650922  69.6183395  57.6313133  35.9777679  13.4399729
  57.4383965  36.5068130  12.6659422  58.0342216  35.1822624  13.0920200
  30.3608723   0.4645461  20.1049881  29.4676228   0.2528635  19.8338318
  30.8564396  -0.3385939  19.9449539  33.3222084  55.0390396   8.9189472
  33.2318306  55.1678162   7.9747648  34.0836639  54.4663391   9.0107641
  65.4774399  14.4008951  41.5734329  65.4467621  15.2487049  41.1301422
  64.7818680  13.8892994  41.1603050  64.6251068  47.0273399  81.4113617
  64.1582031  46.7330780  80.6292877  65.5035477  47.2436867  81.0986633
  63.9155540  67.7076569  13.3181143  64.0688019  66.7760391  13.4757080
  64.0618820  68.1216965  14.1686401  33.1677551  67.7660828  50.7291832
  33.1795692  66.9318237  50.2600288  34.0902443  68.0082550  50.8104515
   2.4040422  10.5482063  49.9359436   2.0552990  10.4973078  49.0459862
   3.1275826   9.9216099  49.9458580  18.6143379   6.5985861  72.0548172
  18.6178093   7.5543566  72.1069946  19.5371189   6.3519626  72.1171341
  85.9816360  41.0572128  20.5971031  85.7886810  41.9241982  20.9539471
  86.1456985  40.5124588  21.3668804   2.6730237  58.7193832  32.7141914
   3.3890696  58.0915451  32.8107796   1.9608005  58.2123108  32.3245201
  37.4834023  64.2487259  81.2218323  38.0328369  63.9068985  81.9271698
  37.9716949  64.0537720  80.4219589   9.8289251  63.5775528  80.1865158
   9.1645880  63.5019798  80.8714828  10.6420431  63.7536430  80.6598740
  25.0147285  63.8953896  73.9836807  25.3492222  64.5032349  74.6431274
  24.8420238  64.4436264  73.2182846  72.3380508  14.7468748   6.1051869
  72.0099945  13.8749743   6.3251786  72.9361954  14.5998907   5.3724871
  56.5729637  44.5947304   1.3362927  55.6537971  44.7311554   1.5659671
  56.9759521  45.4569016   1.4387406  52.9651451  25.3146152   4.8707876
  52.6564217  24.7157803   4.1908474  52.2093163  25.8699150   5.0620832
   5.3778086  70.8951111  38.6928940   5.3577933  70.9135590  39.6497078
   5.3723083  69.9639740  38.4711227  71.9644318  49.7431488  53.6029015
  71.6290970  49.2767372  52.8372383  72.9138794  49.6316528  53.5544281
   8.9071102  50.0846062  50.4453278   8.2718143  50.5921669  50.9503174
   9.3562260  50.7337456  49.9038963   3.9325621  69.7071381  80.6223450
   3.3737516  69.1181259  81.1293335   3.8633626  70.5492096  81.0721741
  23.7352104  46.8321609  24.2588558  23.6305084  45.9264107  24.5502090
  22.8472481  47.1195755  24.0463772  83.4774475  52.5009956  30.0412827
  82.6542130  52.0420723  29.8742313  83.6779938  52.3074799  30.9570141
  17.9793129  17.3813820  82.7567902  18.4221058  18.0711880  83.2510910
  17.3660583  16.9947815  83.3818436  43.3900490  65.7025757  21.9873009
  44.2472649  65.2820435  22.0548630  42.9588966  65.2521973  21.2610111
  73.2968521  61.2601700  21.9680195  72.4055176  61.4908066  22.2298489
  73.7289810  62.1017342  21.8221817  86.8733902  51.2375221  28.1578217
  86.5501022  50.8341217  27.3522263  86.3550339  50.8325729  28.8532009
  33.0646210  27.2923679  15.2930336  32.5587044  28.1032047  15.3461761
  33.4030876  27.2794819  14.3977652  51.1967545  22.6950893  11.9711199
  52.0777664  22.3568344  12.1312399  50.6208687  22.1004028  12.4516745
  25.7197514  65.8629303  78.8111954  24.9128513  65.4737320  78.4740448
  26.3364792  65.1324234  78.8584595  79.0143585  18.0693398  73.1123123
  79.3182297  18.1478348  74.0166016  79.3266678  18.8666954  72.6846237
  43.5200691   1.1742978  43.8254967  44.0471535   1.4476757  43.0747108
  42.8237877   1.8288320  43.8803711   7.3799682  39.6893005  65.0935593
   7.4857445  40.4923439  65.6036224   7.2410583  39.9920769  64.1961975
  63.9169998  64.5033951  62.7752304  64.6888809  64.9443665  63.1301537
  63.2084465  64.7430115  63.3725319  41.5580254  44.6614265   7.5983863
  42.4599571  44.9213333   7.4107704  41.5898170  43.7061386   7.6498251
  47.4824829   4.9152570  59.6883545  48.2775688   5.4478912  59.7076263
  47.2664299   4.7739854  60.6100883  62.7052269  41.4814835  39.3504295
  62.4679337  40.9191132  38.6130943  61.9205246  41.5020714  39.8981972
  69.6881866  50.1139870  46.5029144  70.0729675  50.8840218  46.0843201
  69.2608490  49.6414604  45.7885361  85.2596130  10.3587189   8.4813662
  84.9373169  10.8208723   7.7075629  86.0923157   9.9774075   8.2030783
  56.6859779  15.6207018  72.6673431  57.1532097  15.0997868  73.3204651
  57.2346649  16.3948269  72.5412216  36.0137558   3.4291074  15.4625807
  36.9122810   3.3013897  15.1583176  36.0794106   3.4114528  16.4173641
  53.8394394  65.2578049  74.3212051  54.7246017  65.5742874  74.5016479
  53.5448189  64.8839417  75.1516571  81.5193939  56.7330132  18.1209946
  81.5869446  55.7804871  18.0549679  81.5440292  56.9102669  19.0613174
  29.6343956  58.7229919  24.0026760  30.2570591  57.9971733  24.0440788
  28.9943848  58.4522514  23.3444061   3.0209761  23.2402859  55.9427681
   3.0628781  24.0465069  56.4570503   2.3707893  22.7018795  56.3939972
  79.3320847  48.3960991  27.4185581  79.6864700  47.6107330  27.8355103
  79.3517227  48.1996269  26.4819450  45.7416916  50.1422806  76.3910370
  46.2612190  50.3229980  77.1744003  46.3614197  50.2308655  75.6669388
   7.1057773  30.6196613  81.2094116   7.3808231  30.3527679  82.0865402
   7.6980553  31.3358421  80.9802322  81.0919800  58.9105301  39.5389290
  81.7623444  59.5389824  39.2708054  81.5571976  58.0763588  39.6019020
  14.2003040  24.6931458  54.4633026  14.6461277  24.5994358  55.3051414
  14.7189236  25.3427200  53.9886284  63.6016541  11.0005388  63.1634827
  63.2859154  11.6000652  62.4873848  64.4227142  11.3898525  63.4643593
  76.7565079  34.2545090  63.9537392  76.3560181  33.9516830  64.7686844
  76.0413132  34.6767006  63.4778366  70.3307419  17.3964748  67.0986557
  70.0243073  16.8442516  67.8179474  69.8561783  17.0759373  66.3316650
  19.7466068  11.0044937  67.8704300  19.9462013  11.8519821  67.4727402
  20.5921631  10.6804066  68.1806488  79.3023987   7.3620157  65.1982574
  79.5776443   8.0643101  64.6089783  80.1211319   6.9822540  65.5171432
  68.0528412  29.2439117  52.3045311  67.9134674  29.5857449  51.4213791
  69.0042496  29.2303810  52.4087486  12.6774244  48.1110954  42.4151611
  12.1854658  47.3382034  42.6923790  13.5953999  47.8612976  42.5207787
  80.5263596  35.3845634  31.9576702  81.4698029  35.3704185  31.7965794
  80.3935852  36.1345863  32.5373840  20.6455994  69.5069046  84.7414398
  21.3368301  69.1689453  84.1720428  20.5282288  70.4150314  84.4625854
  61.8377609  50.0909691  86.5449295  61.5408173  49.1919975  86.6860275
  62.5001945  50.0193214  85.8577042  34.8838234  53.8773727  34.7933006
  34.8777504  53.1825981  35.4516945  35.3340378  53.4913940  34.0419312
  84.2207947  56.2666664  42.5678940  85.1234283  56.4897614  42.7953033
  84.1509705  56.4719009  41.6355629  75.8971024  59.8347321  38.5438309
  75.5363998  60.4326096  37.8891068  76.7471237  59.5750084  38.1885223
   2.0079148  52.9487801  69.4381866   2.1853600  52.2816238  70.1012421
   1.2863487  52.5882874  68.9228058  50.3283691  67.6335907  77.5581360
  50.1109581  68.4065399  78.0792084  49.5951157  67.0349426  77.7002411
  65.0407791  36.9933128  69.1579208  65.9599380  36.7565460  69.0341568
  64.9731064  37.2132149  70.0870590  15.7426453  42.5714531  47.5751953
  15.7604342  43.4351425  47.9874573  15.2368908  42.0280075  48.1794395
  35.4600258   3.5030165  81.1287766  34.9682808   4.3214974  81.0616302
  35.1231918   3.0855861  81.9215775  57.4012985  41.5486145  60.4717674
  57.2388382  40.6500931  60.7589951  57.6729622  42.0085526  61.2660484
  33.1067200  67.4121552  13.5832834  32.5675392  66.7972412  13.0858965
  33.9938927  67.2761536  13.2506323  71.7573013  37.8743515  46.8712463
  72.2794037  37.4296608  46.2034950  70.8650436  37.8624229  46.5248871
  67.5861816  14.6904650  71.4125900  67.4488602  14.2903709  72.2712479
  66.8590622  15.3054190  71.3158417  14.2066212  58.5647011  15.7928104
  14.9732590  58.2452469  16.2686749  13.4600897  58.2523994  16.3040752
   5.5440083  64.4711227  34.4062042   4.6947837  64.3969040  34.8415680
   5.6442943  63.6444016  33.9342842  34.8929253   9.8975677  13.0409040
  34.0329094  10.2613182  12.8304548  34.7202721   8.9792719  13.2486391
  76.4697495  54.2110100  25.8716087  77.0351028  54.9595490  26.0621395
  76.9985046  53.6497231  25.3045101  71.4538574  57.8887901  80.8812561
  70.8886032  58.0564919  80.1272049  72.2319946  58.4226036  80.7207108
  84.8061523  57.6488304  84.3834152  84.8262405  58.5027504  84.8154449
  83.8748398  57.4623947  84.2645416  47.7732811  35.9285622  86.4407120
  48.2153664  35.5903511  87.2194366  47.9343033  35.2672539  85.7676773
  79.2177887  46.6863327  38.1244125  79.3921127  47.6135063  38.2862663
  78.3963394  46.5132294  38.5842934   8.8815060  35.7019234  36.7260284
   9.2687588  36.2435684  37.4137001   8.0415411  35.4196510  37.0879898
  14.4371500  33.3725243  10.0710306  14.9606895  32.6622887  10.4421148
  14.6993608  33.4079742   9.1511278  39.2610893  15.5711279  13.1924248
  39.3371887  15.0694799  12.3807650  38.4250565  16.0303822  13.1126566
  57.6741104  47.1117516  74.0175476  57.9099655  46.7620392  74.8767929
  58.4998207  47.1360626  73.5339737  79.0338593  29.1918144  32.8559914
  79.8056793  29.0498447  33.4040527  78.9129562  28.3627110  32.3931732
  81.4186020  15.4806471  64.8759689  80.6506882  15.8654947  64.4535522
  82.1625214  15.8334770  64.3877869   5.0317826  68.2072754  38.4913406
   5.2173266  67.3307877  38.1543388   4.3827324  68.0664215  39.1806335
  54.3343582   8.6177416  85.1547089  53.3829918   8.6618690  85.0588760
  54.4902573   8.7971287  86.0819321  19.3104916  61.8911247  20.2435093
  18.8659954  62.6106644  20.6917477  19.9102955  62.3222618  19.6347504
  67.9616241  10.9268513  27.7218285  68.0872955  10.4989357  28.5687790
  67.6845474  10.2221966  27.1362305  60.9057655  51.6555061  17.6825409
  60.7361717  52.0396080  16.8223457  60.7721977  50.7161636  17.5559521
   3.7540970  47.4588356  28.4436283   4.4696832  47.9982071  28.7801514
   4.1333590  46.5841789  28.3577728  18.6964664  51.6849861  64.8329544
  18.5159626  51.1071167  65.5743866  19.5940781  51.9850349  64.9761276
  50.3578072  71.1283340  11.9314137  49.6470337  70.6542358  12.3629932
  51.1543007  70.7908096  12.3411732  43.1972466  54.3720016  25.7330132
  43.9202156  54.5393372  25.1284084  43.5986481  53.8971443  26.4607639
  11.1289091  35.7661858  79.6126862  11.4568300  36.0073738  80.4790192
  11.6492157  35.0022774  79.3637772  83.3994980  28.6937962  37.0516167
  83.9553375  28.1497688  37.6095619  82.9092636  28.0677738  36.5187035
  16.3220806  70.2765732  21.5694447  15.6955519  70.9975281  21.6320400
  15.7814064  69.5022659  21.4133911   2.5035596  23.4280930  39.6628342
   2.0229707  23.8853588  40.3528862   3.0003815  24.1163864  39.2205086
  65.9123459  43.0872002  82.8966293  65.3359375  43.8305359  83.0739212
  65.7364883  42.8601952  81.9835129  64.3039856  61.9015732  28.6067848
  64.5300674  61.3292770  29.3399944  63.5981369  62.4538994  28.9428558
  49.8199425  67.7438049  59.8245621  50.0971222  68.6598587  59.8403206
  50.6178703  67.2555923  59.6216125  44.9887085   3.8485665   2.1632283
  44.4744606   3.6640854   2.9491994  45.6435165   3.1509094   2.1362145
  37.9392319   8.8492031   1.1572984  37.8244247   9.3746243   1.9491216
  37.0816193   8.8656693   0.7324921  75.4682236  30.5843086  82.4866333
  75.4980850  29.8718452  81.8480911  75.5846481  30.1524887  83.3329315
  57.1969833  50.1926575  17.9978275  56.7329140  49.6237411  18.6119957
  57.9667397  49.6867447  17.7375317  13.2067051  54.7640533  60.8212471
  13.2306118  55.2336388  59.9874878  13.6095381  55.3661613  61.4468842
  68.5530472   9.4236879  13.4009781  68.9229202   8.6786318  12.9273605
  68.0217285   9.8816538  12.7496691  58.9114647  14.9608669  38.6825905
  59.8526993  14.8312273  38.7988129  58.5396957  14.8091173  39.5514908
  75.0501938  59.7250595   8.2162352  74.5163956  58.9760818   7.9510455
  75.6698227  59.3648949   8.8507166  27.5468864  63.3019943  66.9709854
  27.6671600  63.9071045  66.2391357  26.6194668  63.0674133  66.9378815
  38.9922829  12.4052906  11.5163822  38.2310410  12.0106945  11.9418678
  38.6275864  12.8949232  10.7791653   7.8362870   1.9201863   9.7264519
   6.9562531   2.1696544  10.0084763   8.2598505   2.7487855   9.5022898
  80.1390457  59.6208801  66.5869141  80.6256485  60.4318085  66.4391174
  80.0738220  59.2193909  65.7204361  21.9257679  65.1029663  61.7255363
  22.4028797  65.8799362  61.4341278  21.0640049  65.1837845  61.3167992
  17.0511990  56.4796028  77.3031540  16.3002167  56.7745399  77.8181915
  16.8078136  56.6660347  76.3963776  25.7882347  55.1926422  88.7163544
  25.7455788  54.8949585  87.8076248  25.1021366  54.6968727  89.1632538
   8.2988663  42.3425255   9.0053310   8.0745401  41.9716225   9.8587580
   9.0527287  42.9060020   9.1797409  72.1311264   3.2433176  20.7284622
  71.1845169   3.3233733  20.8457108  72.2787018   3.4694672  19.8101425
  62.4338036  66.2616043  66.1301651  61.7502747  66.4680634  66.7676620
  62.2244873  66.8046722  65.3702316  41.6241226  44.6782074  62.7696800
  42.2193680  43.9743576  63.0275726  41.1107674  44.3068886  62.0521736
  32.1133957  38.9258537  16.9935131  31.8566341  38.0110283  16.8777523
  31.4301739  39.4248695  16.5458241   1.9920065  13.1900005  18.9443684
   2.6820672  12.7138138  18.4825306   2.2756374  13.1958237  19.8585625
  13.1073265  14.4370241   7.0061259  12.9560156  15.3680506   7.1689925
  13.5982466  14.4142542   6.1847181  17.8716049  29.6024818  10.7822256
  18.2020798  29.3208275  11.6352720  18.3576355  29.0727310  10.1502686
  41.4808998   4.1529675  80.4954605  40.9616699   3.3498755  80.5364075
  42.3276901   3.9100487  80.8698578  85.5084534  19.0124149  55.1678047
  84.7546463  18.4411392  55.3149529  86.1840744  18.4319592  54.8173103
  50.5908432  57.7888947  62.7176437  50.6497345  57.8850479  61.7671051
  49.7686272  58.2196159  62.9514618  59.3722649  39.7542343  13.8583670
  59.2963562  40.5519028  13.3347301  58.7095070  39.8525162  14.5419769
  51.1317596  29.2885895  41.3756409  50.4939346  29.9767189  41.5650864
  51.9823341  29.7147179  41.4813309  22.8442173  61.3419495   0.0068040
  22.4997921  61.7501564   0.8011409  23.3969460  60.6280518   0.3247185
  62.4086037  71.1429367  77.1943970  62.4262314  71.5702209  76.3380356
  62.7765656  70.2736130  77.0359421  67.8976135  62.0926018  20.8329163
  68.5201874  62.6540222  21.2949104  68.0554810  62.2719307  19.9060135
  75.3153305  37.7348862  12.6577911  74.4808960  38.1790733  12.5073032
  75.2576065  36.9338570  12.1369753  30.9908352  68.5206757  52.3185234
  31.3520622  68.8035965  53.1585846  31.7552719  68.2605667  51.8045082
  76.8573303  12.7796984   0.5412498  76.2085037  12.5806913  -0.1337736
  76.5826874  12.2614012   1.2976691  60.6559029  19.1250820  81.1608658
  60.5343170  18.6211510  80.3561859  61.5886726  19.3397484  81.1703949
  36.5104179  20.9664211   3.1448002  35.6140480  20.8896694   3.4717038
  36.4580765  20.6804314   2.2328234  45.9064789   4.9120207  16.9603958
  46.3767242   5.0546398  16.1389561  45.1435204   4.3900323  16.7120953
  71.9010773  56.9630203  37.7489548  71.9945602  56.0451202  38.0038185
  72.7807007  57.3285370  37.8431816  67.8231964  41.3148842  24.8760700
  67.4520264  40.5172844  24.4988480  67.9438629  41.8999062  24.1281261
  21.0388908   2.3373685  66.9486923  20.9162827   2.5273669  67.8788071
  21.3816910   1.4438545  66.9299164   7.7532196  33.9574051  22.9912758
   7.7056980  34.8282242  23.3857975   8.5590696  33.5788689  23.3427696
   0.4845077   9.3857241  47.9066849  -0.1679064   8.6921835  47.8087578
   0.0690196  10.1605721  47.5282516  53.5918312  53.4020119  73.1786880
  54.2142715  53.7891693  72.5631332  52.9321976  54.0826607  73.3122177
  82.3541336  44.5526466  50.5844612  82.9923401  43.8409081  50.5360146
  82.6389389  45.0793152  51.3312759  19.0158463  29.4359417   0.6851192
  18.2661533  29.7038059   1.2165724  18.6521435  29.2970982  -0.1893380
  76.4807816   2.1415622  19.1077385  77.2504196   1.5822324  19.2127934
  76.5650864   2.7974324  19.7998085  50.2580414  52.9930687  72.4269943
  50.5369186  53.0152893  71.5115891  50.0724564  53.9069023  72.6430817
  24.1515465  66.0396805  66.0019073  24.1266518  66.7769012  65.3918915
  23.2359715  65.7777252  66.0985184  48.2167244   4.7442446  31.8821659
  48.3951530   3.8836310  31.5030365  48.4011345   5.3609614  31.1737270
  23.2612209  14.3451424  80.4992065  22.9469204  14.6644964  79.6533585
  24.1248207  13.9778709  80.3106842  46.1436195  45.6177788  17.6815968
  45.6604118  46.2020187  18.2658958  45.9352188  44.7381744  17.9963932
  10.2195787  41.0282593  52.5470390   9.9457283  41.0680313  53.4633675
   9.4091873  41.1391220  52.0498428  65.5003128   7.0863338  34.9226646
  64.6747589   6.9094877  35.3736839  65.3157043   7.8499784  34.3758583
  75.0057983  67.7590027  74.7950211  74.9136887  68.3763580  74.0693359
  74.2048721  67.8702545  75.3072433  72.1744919  56.1555977  74.3868637
  71.5762711  56.7616234  73.9497223  71.9391403  56.2129440  75.3129044
  21.4506321  24.0972748  17.6655121  20.7510910  23.9330750  18.2978992
  21.5581055  23.2646656  17.2056808  71.4514236  37.3331070  66.6619720
  71.1576767  38.2330322  66.8036728  71.0100555  36.8268890  67.3440018
  18.5783234  21.5733891  66.7105103  19.4694195  21.2248783  66.7373352
  18.6937656  22.5212898  66.6442871  63.6928482  70.8881226  58.1514359
  64.1636200  71.6477432  58.4943390  64.3818817  70.2881699  57.8659286
  73.3536758  23.9359493  24.0741005  73.0382843  23.4570141  23.3076897
  72.6103592  23.9390335  24.6771870  41.9725571  23.8672714   3.8156493
  41.2545891  23.2553062   3.6536281  41.8724518  24.1160736   4.7345119
  32.8154907  18.8018780   1.4724669  32.9180603  18.4527512   2.3578041
  33.1534843  19.6957645   1.5268542  63.8717003  33.8382263  37.2229309
  63.0457840  34.2736511  37.0119705  64.4058914  34.5213165  37.6282234
  59.7280769  45.2366982  41.9708710  58.9268684  45.0764313  42.4694786
  60.0346832  46.0898705  42.2779884   9.7648115  15.2662916  17.9174442
  10.0843716  14.8375435  18.7113514  10.0200977  16.1829929  18.0209751
  42.9863167  38.8009567  24.4063530  42.8133888  37.8598289  24.3817978
  42.9614830  39.0248489  25.3366699  73.1859818  19.8625011  47.5639076
  72.7316284  19.8799706  48.4062195  72.8070297  19.1141415  47.1028366
  85.0697021  39.7913017  18.3116875  84.1236877  39.7335777  18.1776733
  85.1652069  40.1405144  19.1977825  77.5310516  68.3515472  34.8890038
  77.0458374  69.1754837  34.9328423  77.5476379  68.0350113  35.7921982
  76.8500137  51.2430077  53.0725594  77.5117874  51.0540123  53.7378197
  77.2331696  50.9229507  52.2558670  20.8265781   1.1414685  29.3403072
  21.0778980   1.0216975  30.2561264  20.8101463   0.2553926  28.9786015
  20.9014034  70.0137253  37.0635872  20.1698208  69.5752335  37.4980392
  21.5641613  70.1085968  37.7476768  86.5045700  36.4388008  41.0246124
  85.7366867  35.9222069  41.2689934  86.1495743  37.1736145  40.5243530
  86.1621628  31.8113918  68.6532211  85.3334579  31.4773083  68.3099213
  86.1282578  32.7533073  68.4862595  19.2487640  45.0435066  17.2106686
  19.6418743  44.2541275  16.8384075  19.2818336  45.6850510  16.5010529
  14.4184952  15.3490343  65.9788513  14.7700930  14.6531887  66.5341949
  14.7095852  16.1593475  66.3970490  12.7713976  41.3679008  80.4637604
  13.0695028  41.6899109  81.3144531  13.2510872  40.5494919  80.3359528
  26.7100868  59.4916840  48.2436028  27.3807316  59.7757874  47.6225128
  27.0443287  58.6670456  48.5964279  45.2508354  63.2796249   1.5299640
  44.4691429  63.4267502   2.0624485  45.1404114  63.8601112   0.7769223
  86.4568558  54.5427856  68.1817017  87.2918091  54.9138451  67.8964081
  86.4684372  53.6446037  67.8509903  14.3566074  53.8278618   3.4597824
  15.0962362  54.4343262   3.4226105  14.6398344  53.1414413   4.0638022
  68.5699844  21.1759167  74.9882507  68.6309891  22.0672951  74.6448059
  69.0090027  20.6355724  74.3313522  33.6420631   9.3651772  48.0967941
  33.1922302   8.8228979  48.7447243  34.5560188   9.0844126  48.1425018
  80.3670502  22.4213963  16.5581284  81.2936554  22.6605301  16.5793018
  80.3087997  21.6397400  17.1075382  74.9291000  20.4949627  61.3000221
  74.1799545  21.0520229  61.0886230  75.5553284  21.0848389  61.7196846
  59.5709038  54.1648903  87.7921677  59.1051064  54.7268600  87.1729279
  60.0915909  53.5808945  87.2407455  24.7239132   5.3960457  50.8122444
  25.1982365   6.0402393  51.3378525  24.8394814   5.6918287  49.9092560
  80.6533279  16.2698917   1.5226725  80.0181885  16.6271420   2.1433175
  81.3456192  15.9033155   2.0727494  85.9354095  35.8915443  60.0572586
  86.5048370  36.5884514  59.7312126  85.5395203  36.2563362  60.8487320
  34.7976341  10.6000328  65.1635590  35.4494514  10.5631781  65.8635635
  34.6739349   9.6872730  64.9031677  76.7106171  11.7950745  79.2866898
  76.0207138  12.4585943  79.2892685  76.4649429  11.1968575  78.5809860
  79.8286362  34.1845856   7.1809020  79.6656647  34.7234077   6.4067278
  80.5839462  33.6466064   6.9436059  39.7964134  58.0335121  32.8902245
  39.3589363  58.4919090  32.1727867  39.0933342  57.5626068  33.3376198
  34.4152641  70.4199371  51.0435905  34.3631821  70.2651138  51.9867477
  34.8440933  71.2719955  50.9640617  68.1649399  22.6791153  88.8430099
  67.8679428  23.3098850  89.4988708  67.7862473  22.9916973  88.0213470
  22.3895607   4.6941209  20.2279568  22.6849155   3.9864435  20.8008366
  22.4404716   4.3254313  19.3460808  58.3872261  35.9878769  58.6929893
  58.9838409  36.1534653  59.4229660  58.3866692  36.8047676  58.1940727
  62.5823669  39.3478127  58.0778923  62.5842094  39.3928757  57.1217575
  61.6703987  39.5038185  58.3232689  79.9031525  40.5709381  57.6162262
  79.4442978  41.0300064  56.9127045  79.2840881  39.9024391  57.9096565
  70.2308197  69.5976257  65.9640656  69.9376602  69.2695923  66.8141708
  69.4617996  69.5203705  65.3993759  54.6841431  36.7519760  60.3202744
  55.5463066  36.7754898  59.9051208  54.1045837  37.1848869  59.6934319
  24.6974907  67.9638824  63.9742203  25.5982914  68.0790482  63.6716843
  24.3408451  68.8515167  64.0079803  87.0890961  64.3190002  19.8769016
  86.8453751  64.0552521  20.7641869  86.3497849  64.0451889  19.3340569
  63.9878082  65.6386337  33.1948853  64.9049072  65.8439331  33.3765869
  63.5290565  65.8520889  34.0074196  56.7958870  62.8618393  71.5893402
  57.2059097  62.6385193  72.4249496  55.8695488  62.9780693  71.8005829
  63.1756973  13.0807962  40.8979759  63.6442947  12.6360226  40.1917000
  63.3832397  12.5711823  41.6812057  67.7158127  63.2850227  87.0936432
  67.3777161  63.3994751  87.9818039  67.2730865  63.9605484  86.5799332
  34.1695023  61.1443291  34.9340515  33.5044899  60.8126297  34.3307610
  33.8508530  60.8960342  35.8018341  14.7799177  61.5948868   5.9716043
  15.1632547  62.3096313   5.4632449  13.8395271  61.6602821   5.8054094
   1.9365485  30.3710079  23.4679985   2.8501711  30.1484375  23.2891464
   1.9413663  31.3199215  23.5935860  68.8488464  25.3425636  71.3966293
  68.1667938  26.0141335  71.3916321  68.7406235  24.8850613  70.5628357
  10.6641836   6.1418109   2.9629405  10.8929167   5.2541666   3.2386229
   9.8263140   6.3172050   3.3912416  80.5289993  62.1316681  32.5036049
  80.5742645  61.4123878  31.8736668  79.9679642  62.7833405  32.0831337
  63.8619194  10.4204359  11.5958595  63.7170448  11.3280001  11.8633862
  63.2607803   9.9115248  12.1398010  80.6202469  44.0256157  44.0054092
  80.1382675  44.6415482  43.4535484  81.4388733  43.8715096  43.5338821
  71.6059418  15.7670641  51.9753342  72.3585663  15.1796808  52.0443802
  70.8960876  15.2995710  52.4155464  57.0897560  35.9664345  21.3023643
  56.9007912  36.9047966  21.3003826  56.3147964  35.5652237  20.9090500
  84.0222626  36.7709999  53.1955299  83.2663040  36.6171646  52.6288757
  84.6978149  36.1824646  52.8586578  42.1913300  39.4813004  74.3930511
  42.8802795  38.9236984  74.0315781  41.7875633  39.8899269  73.6273956
  33.6089859  70.4002533  12.3223944  34.2874794  70.9725952  11.9641991
  34.0069275  70.0171967  13.1041517  48.8985672  52.9327202  81.3614197
  47.9431076  52.9864159  81.3403702  49.1887589  53.5716209  80.7103958
   5.8282652  43.2975235   3.1098886   5.8930860  42.9336510   2.2269237
   6.4001379  42.7425919   3.6402104  76.8447647  66.3152542  21.4292316
  77.2424393  65.5038452  21.7449799  77.3440781  66.5366287  20.6431599
  78.5590439  49.8446884  51.5196877  77.9216080  49.1317444  51.4795227
  79.2444000  49.5882492  50.9026299  70.4378357  53.1456566  28.5942345
  71.0661850  53.4810486  27.9547691  70.3051453  53.8720284  29.2033386
  67.9137650   5.5248942  71.3594818  68.0106888   5.1601067  72.2391205
  68.7029037   5.2448263  70.8957520  63.6289062   8.7412958  39.8923836
  64.4390945   9.1556177  40.1893044  63.2016220   8.4470253  40.6967850
  39.1536713  22.2645988  83.3704910  38.3179665  22.2506618  82.9039841
  39.8113747  22.1326828  82.6876602  84.4053497  20.4347610  42.2488670
  83.6006851  20.2939262  41.7499504  85.0884933  20.5168018  41.5834274
  79.6140060  18.3868389  42.2186775  80.2425079  19.0583630  42.4837685
  79.4240646  17.9053535  43.0238609  72.9406433   8.7115955  34.7630768
  73.5396957   9.1101389  34.1317825  72.1036911   9.1496220  34.6085625
  61.2746048  51.7389069  80.6276474  61.8225517  52.3511162  80.1365433
  61.8781662  51.0527878  80.9125824  41.4961891   1.9224522  64.7665710
  40.7623329   1.9684023  65.3794174  42.1333122   1.3531586  65.1980972
  52.5490189  53.3475533  53.4325714  53.3480453  52.8207893  53.4150200
  51.8409538  52.7122879  53.3261986  77.2559738   4.1753144  20.4448566
  77.2572937   4.8200278  19.7373447  76.6397629   4.5264244  21.0876923
  72.0353622  19.4690552  17.6846390  71.4277039  20.0218124  17.1932621
  71.6960068  19.4768486  18.5796299  35.5668182  43.9510155  84.1771469
  35.0679893  44.7002411  84.5028229  35.0292549  43.1907043  84.3989334
  69.5496292  32.2925339  10.5573092  68.8562622  32.7751160  11.0074081
  69.4723892  32.5605278   9.6416416  72.3290100  13.9207525  40.4291458
  72.2426682  13.0161295  40.7298698  71.4283905  14.2381420  40.3629570
  51.8315506  64.8389359  15.0841131  51.6556931  65.6456680  14.5998716
  51.4524727  64.9916763  15.9496784   4.8477001  15.1206722  31.7617111
   5.1128607  14.4699154  32.4116631   4.5450287  14.6038771  31.0150223
  50.5617256   6.4973254  49.7262344  50.6739845   5.5468855  49.7433624
  51.4127655   6.8340073  49.4458618  42.9274368   0.5300736  71.5918808
  42.6204643   1.4354992  71.5449295  43.5879745   0.4650494  70.9021759
  70.3933487  68.6788712  48.0932541  70.8083420  68.5242386  47.2446671
  70.8414154  69.4494247  48.4421349  83.8853531  63.4276085  28.3220520
  82.9625320  63.6736069  28.2579517  84.3030243  64.1743164  28.7512512
  72.9700928  71.2652512  16.1770420  72.2391739  71.3740234  16.7854481
  73.7320099  71.5887527  16.6577301  31.1389866  18.6063309  85.9649887
  31.0340672  18.8845272  86.8748398  30.2450638  18.5481262  85.6277237
  17.3237076  14.1924849   5.6412354  16.6915951  13.4737997   5.6537299
  17.0099182  14.7991333   6.3118668  50.8145294  52.1188736   4.2173018
  51.6148071  52.4254570   4.6436820  50.8224068  51.1704979   4.3467455
   8.2302313  49.1224823  14.5487461   8.6127014  49.1878204  15.4237776
   8.5195837  49.9174347  14.1009121  74.8528366   4.9013438  78.9487915
  74.6667175   5.7643995  78.5790253  75.8067245   4.8733125  79.0232468
  49.8142853  29.1864548  71.3254166  50.0265656  29.4985905  72.2050400
  49.1708412  28.4919720  71.4664993  34.4528542  47.7337532  42.7455864
  34.3221664  48.5146751  43.2834663  34.5579033  48.0706215  41.8558006
  20.4303398  63.3992729  24.6330223  20.6226711  64.3064957  24.8700523
  19.4872398  63.3105621  24.7705822  31.8281136  60.9171944  65.3008728
  31.8078671  59.9618378  65.2450180  31.1101818  61.1376877  65.8943253
  83.1379547   6.6982822  55.2466545  83.4021835   6.2846417  54.4248772
  83.5296860   6.1508284  55.9271469   1.2528142  24.6347866  10.9668684
   1.8472551  23.8937263  10.8498154   0.4135253  24.2349243  11.1947622
  58.3729820  26.5566692  70.0891800  58.9117508  26.6402168  69.3024292
  57.5216484  26.9131603  69.8354416  73.4061813  36.1432915  50.7227859
  72.9696426  35.7705040  49.9568253  72.6910019  36.4457703  51.2824745
   7.7101936   1.6182668  29.1337509   7.3242640   1.8336569  29.9828091
   7.1773148   2.0982020  28.4997692  13.9457474  59.2901649  29.5398426
  13.1105919  59.1977539  29.9983253  13.7023783  59.4308777  28.6248531
  22.7346516  62.5296440  33.6189537  22.8490200  61.9326096  32.8795624
  21.9187908  62.2462769  34.0316315  25.6128731  32.4603310  66.9343872
  25.7550621  32.4259911  65.9884262  25.9854012  33.3003960  67.2022400
  14.5286884  42.4063530  60.2101555  15.4345770  42.2864037  60.4951324
  14.0638742  42.6832581  60.9997787  15.3771420  44.5374680  30.9375801
  15.7510319  45.4181061  30.9073563  15.7549496  44.1437149  31.7239971
  67.1981964  11.0089846  50.9334145  66.3797302  11.2448540  50.4967041
  66.9593964  10.2887802  51.5169487  79.1827393  44.6569138  54.6284561
  78.9045715  44.8832436  55.5159416  78.5434723  44.0075607  54.3353615
  18.0531139  22.3250942  87.5933380  18.8712196  22.6671066  87.9538422
  18.1721344  22.3700562  86.6446381  40.9399452  52.2801857  33.9991646
  40.4248428  53.0576477  33.7836266  40.8443298  52.1846581  34.9467735
  39.5046616   0.6629796  51.3346634  40.3323784   0.3311614  51.6825333
  39.3330116   0.1194986  50.5656433  33.4640312  68.2559814  38.0218086
  34.0174789  67.4768677  38.0757141  32.8992233  68.0967102  37.2655945
  41.2794037  19.8968868  76.9409332  40.5261536  20.4837284  77.0077438
  40.9042282  19.0534992  76.6876068  47.1279068  58.1712074  59.3283234
  46.8728142  58.0713806  60.2454910  46.4617195  58.7489281  58.9559517
  48.0732460  30.8921242  77.2093201  47.3098907  31.4014034  77.4816208
  48.2477646  31.1822567  76.3139954  48.2263031  38.6296158  71.2883377
  48.3972054  38.0738678  72.0487137  48.2450676  38.0287590  70.5434494
  31.5796280  13.3247814  81.1187668  31.9743462  13.6419544  81.9310684
  32.1331177  13.6861725  80.4264679  80.0396500  26.2223454  52.1227951
  80.7774658  25.6601315  51.8866158  80.3937073  26.8169785  52.7840729
  41.0306816  26.2568035  85.2038193  40.7010269  26.7471371  85.9569016
  40.5149117  25.4504623  85.1986237  71.7549744  31.2569981  63.4300461
  71.9547653  32.1832924  63.2947960  72.4225845  30.7918854  62.9258690
   3.6267900   9.7887335  67.2565002   3.2963889   9.9173708  68.1456146
   4.5598741   9.9938698  67.3157043   2.3206832  30.7535000  11.0733910
   1.6306087  31.1803493  10.5656214   1.8565656  30.3126945  11.7850914
  24.8511353  25.8304329  14.9316120  25.1308231  25.0246048  14.4972754
  24.6007938  26.4140701  14.2154226  61.9238091  29.3136902  34.1290932
  62.4162598  29.2404861  34.9466324  62.4830742  29.8414154  33.5590401
  20.0182343  52.0878868  61.1337242  19.6436577  51.2203407  60.9811287
  20.4678612  52.3018112  60.3162231  30.6495380   7.1772270  75.8535156
  31.0885983   6.4523664  76.2985306  30.4861374   6.8512049  74.9685059
  85.8096237  33.5385742  65.5731964  86.4461670  33.2894249  64.9031448
  85.0197754  33.7633591  65.0814133  56.8614883  62.5126228  68.4993896
  56.7782555  62.5532837  69.4520950  57.8019562  62.4241829  68.3446808
   0.5329963  39.3836594  16.9980354   0.2262780  39.2333870  16.1038456
  -0.2658018  39.4036865  17.5250568  81.3189926   5.6929774  23.6300907
  80.8917542   6.0595465  24.4042511  81.9684448   5.0835834  23.9809170
  18.4750309  51.8625946  39.3092155  17.5767841  51.8506889  38.9786911
  18.6619473  52.7889290  39.4615097  67.2666931  19.7784443  21.3834400
  66.4412537  19.3005466  21.4640465  67.7365265  19.3282528  20.6814327
  48.9953575  57.7786789  42.6160164  49.0653801  56.9190369  43.0311661
  48.2316780  57.7066498  42.0434418  10.4704275  37.4540634  14.2100477
  10.4242392  36.5658989  13.8561192   9.8981638  37.4362679  14.9771385
  51.0924721  17.7274742   6.9834113  50.9024048  16.8688335   7.3613553
  51.0354767  18.3325863   7.7228870  41.6419487  66.7718735   9.3759489
  41.7445564  66.3482895   8.5237284  40.8586388  67.3138123   9.2812891
  22.8489723  49.1630135  39.4479713  21.8980503  49.0536842  39.4529495
  23.1235828  48.8325195  38.5926361   0.1898956  17.7391605  21.1177273
   0.3220260  18.3495369  21.8431339   1.0152137  17.2582531  21.0560036
  62.2942963   1.7225934  58.2746773  62.8554192   1.0787833  58.7069817
  62.5640984   1.6973971  57.3566322   7.5111804  26.1586571  33.2579994
   7.5679908  26.6303902  32.4270554   7.1030540  25.3229580  33.0315666
  65.3662949  28.6413078  13.7250452  65.2854538  28.2753716  14.6058331
  66.1650467  28.2472897  13.3743668  55.8758659   7.6731868  33.7049446
  55.9320412   6.7837563  33.3556747  56.0238609   7.5711036  34.6451073
  84.9275055  58.5139694  11.9331036  84.8680649  57.8776283  11.2205248
  84.9691162  59.3630447  11.4931355  67.2874222  26.2301044   3.2107368
  67.6785126  26.5448074   4.0257487  66.7968369  26.9803905   2.8751402
  84.2467117  69.9517746  29.4077129  84.6823120  70.6021347  28.8567867
  83.7409058  70.4690018  30.0345020  40.5943298  36.3948364  10.3015461
  40.9891396  36.7296982   9.4964237  39.9644089  37.0685310  10.5576048
  50.2441673  41.9166527  64.5063858  49.3300705  42.1989136  64.4748917
  50.4197121  41.5750961  63.6295967   2.3012140  30.4227524  18.0242310
   2.0886915  30.9242001  18.8113880   3.0249779  30.9032249  17.6223068
  48.3527336  30.9865532  80.7140503  48.7574883  30.1550636  80.9610901
  48.9355125  31.3474751  80.0459671  49.3494797  11.5833349  16.8642864
  49.1953278  12.3000956  17.4796925  50.2589531  11.3273249  17.0177364
  47.7662010  34.2206993  84.3908615  47.6902084  33.7190018  83.5792236
  48.5070076  34.8080292  84.2409210  39.7024155  71.0657120   0.8449720
  39.7754250  71.6406479   1.6067823  39.6025467  71.6624527   0.1032457
  15.3333025   2.9582264   5.5400238  14.8643379   2.4521997   4.8765168
  14.6459608   3.4247959   6.0155311  34.6973114  65.7458496  80.2778320
  35.5069695  65.4030075  79.8994980  34.5299950  65.1842270  81.0346832
  66.2875748  64.3807220  36.6402359  66.1578293  63.6872292  37.2871246
  65.7181931  64.1370468  35.9104004   8.8136301  58.2670898  31.8567562
   8.9291420  57.5801926  31.2002048   8.7890854  59.0796890  31.3514709
  82.5059052  60.0087738   7.8254366  81.5770035  59.9295921   8.0424709
  82.8572922  60.6019363   8.4894514  33.0607109  52.6645355  83.7449265
  32.6192398  51.8355751  83.9297562  32.4754372  53.1174278  83.1378174
  70.0030136   6.7730064  18.9622002  70.2588654   5.8542237  18.8809071
  69.1043701   6.7432394  19.2905083   1.9700358  24.2033005  26.4632797
   2.4728763  24.2188892  27.2776127   1.0561720  24.1747074  26.7465935
  81.7403183  65.9348526  25.7567577  82.3146515  65.2436295  26.0862808
  82.0967560  66.7408142  26.1303940  43.8116188  49.7645378  27.3473434
  43.2007179  49.7713280  28.0842209  43.3382492  50.2020912  26.6397419
  10.3618441  51.6804428  31.7792625   9.6418495  51.0945053  32.0127563
   9.9826145  52.5578575  31.8298187  17.7323360   1.4380074  76.3845673
  17.3061047   1.4222118  77.2414856  18.6092472   1.7795568  76.5594940
  39.2461281  23.9418697  15.6752472  39.9932251  24.3665848  16.0967865
  39.2118683  24.3300743  14.8009729  11.8500175  46.7460175  79.1417618
  12.5688782  47.3198738  79.4066391  11.5554571  46.3393517  79.9566727
  28.1989212   7.0187025  15.1867218  28.9110222   6.7016807  14.6311674
  27.4283962   6.5363150  14.8870125  40.9510384  10.4911804  42.7042999
  41.1538086   9.5680676  42.8558922  39.9957428  10.5210924  42.6519089
  22.0559788  19.3451500   6.2490878  21.1058273  19.2322865   6.2756147
  22.4051628  18.5099182   6.5600400  33.1485214  63.7623787  36.1926346
  33.1496429  63.9650192  37.1281395  33.6877632  62.9751091  36.1174545
   4.5507264  46.5086288  36.5690384   4.5730081  47.0087318  37.3849030
   4.5548010  47.1734543  35.8804016  86.4398651  14.4987936   7.8422155
  85.6172791  14.1624784   8.1978512  86.9460602  14.7569389   8.6125145
  63.9390640  15.4921236   4.3054709  63.2111359  15.0022993   4.6881227
  64.0538101  16.2438278   4.8868542   9.9767208  57.7583580  74.5445175
  10.7369661  58.3004112  74.3337173   9.8744335  57.1838112  73.7857895
  38.6180382  66.5602646  22.9096470  38.3361244  67.3879776  23.2990608
  39.2234077  66.8167648  22.2139683  20.9688931  11.6966095  55.5559959
  21.8903084  11.8038330  55.7920609  20.5023365  11.7290506  56.3911629
  69.4330368  55.8918533   5.7816772  68.7440262  55.2376518   5.6654139
  69.8960724  55.9034958   4.9440041  27.6779671  46.3514862  55.2429085
  27.0808964  46.5910072  54.5341301  27.3754253  45.4899597  55.5300865
  58.9812241  60.1528549  20.2513428  59.2982025  59.7490349  21.0592308
  58.1590691  59.6999702  20.0637646   5.6025968  37.7062492  87.8387070
   6.2252426  37.3269081  87.2185135   4.7430201  37.4729424  87.4880981
  65.7453613   6.8395572  74.5328827  65.2142944   6.1454215  74.9232407
  65.1845398   7.6147480  74.5610504   2.8329229  61.7282715  21.7433186
   2.4485266  61.9269295  20.8894997   2.4291272  60.8994865  22.0007877
  36.3719711  36.8454323  82.7730713  35.8154945  36.0766258  82.6485519
  36.0115547  37.2792435  83.5464706  68.0772247  17.9072399  35.9613571
  67.4881897  18.5506496  35.5672760  68.2229462  18.2291813  36.8509369
  18.3385620  60.6027451  67.1876984  18.6958141  59.8659134  66.6920319
  17.4746323  60.3040123  67.4716339  86.5207291  54.2113686  53.3016396
  86.0553589  54.3889389  54.1190300  86.8454285  53.3163605  53.4004517
   4.3069000  26.6197968  48.3883476   4.9133358  27.2608242  48.0174675
   3.8472028  27.0967960  49.0792770  42.1143951  50.3230171   5.9486961
  41.6357803  50.4018326   5.1235018  41.7578926  51.0197105   6.4998379
  60.7997398   0.3286068  17.1469765  61.5571709   0.7762057  17.5240498
  60.7438850  -0.4959363  17.6299267  27.9819736  49.5297470  16.9677143
  28.8761940  49.3848991  16.6584892  27.5896912  48.6567688  16.9836369
  39.9318619  29.9064693   9.4517784  39.0508194  29.7906551   9.8075628
  40.4768982  30.0901985  10.2168999  49.8602142  45.6966896  68.0672989
  48.9958420  45.6378174  68.4742737  50.2850151  44.8673248  68.2862244
  72.5630264  33.8324890   9.6275349  72.5725098  33.6169586  10.5601063
  71.6947708  33.5627518   9.3281851  86.3112030  18.0698166  76.7345505
  85.8385391  17.2676411  76.9566650  86.0347290  18.2709751  75.8404999
  64.7823410  20.2749519   5.4541512  63.8390388  20.1248055   5.3919077
  65.1752625  19.4990768   5.0543265  65.6262207  51.5083046  65.3336411
  66.4439240  51.0512428  65.5303192  65.1266708  51.4670906  66.1491013
  78.3342361  24.0120564   7.9196596  77.4686432  24.0006542   7.5111818
  78.8838806  24.4952431   7.3026905  54.4791603   7.2821412  60.8280716
  54.7004242   8.1407385  61.1887436  53.5230598   7.2807741  60.7822189
  15.3692188  20.2938423  79.7135696  15.0443096  20.2767143  78.8133621
  16.0081825  19.5821247  79.7511673  81.3807602  29.9405842  72.0106888
  80.5428925  29.5010147  72.1555557  81.9249802  29.2823563  71.5784912
  22.4921627  64.7424393  38.7210312  23.1090145  64.0153046  38.6373634
  22.9253616  65.4755325  38.2838287  37.4213486   8.1899633  72.2187881
  37.2024422   8.9973097  71.7534943  36.6184425   7.6698217  72.1867371
  64.5725021  58.9678192  23.9201031  63.6864395  59.2197456  23.6599884
  64.9670944  58.6199341  23.1204090  26.7659683  16.5985451  67.9211426
  26.0438995  17.1271172  68.2609329  27.3899612  17.2380104  67.5777054
  72.9542236  17.0330868  28.4869480  72.2361221  16.4324017  28.6862907
  73.6328125  16.4766598  28.1046619  84.5844116   7.9697561  17.4424438
  84.6316757   7.1654916  17.9593163  85.1161728   8.5991459  17.9296055
  77.5460892  21.0362835  74.8307648  76.9023209  21.1384792  75.5317230
  77.2301331  21.6070366  74.1303024  80.3649979  57.7470245  74.0038757
  79.6224518  57.1958122  73.7568436  81.0151672  57.1336365  74.3463135
  42.5515823  19.1949444  67.2712555  42.6938705  19.4838963  66.3698730
  43.2272797  18.5335293  67.4202423   9.8607874  69.4691391  81.8519974
   9.9261255  68.5300827  81.6784210   8.9465828  69.6839218  81.6667099
  21.7936249  61.8984566  72.2303619  22.6173458  61.5065269  72.5203781
  21.4307728  61.2636833  71.6126022  64.9845428  17.2530193   7.9900718
  64.9796753  18.1546936   7.6688414  65.8822098  16.9528332   7.8475585
  41.1123619  66.8259811  34.6585922  40.5625076  67.2206345  33.9817314
  40.4928131  66.4100723  35.2580986  63.2960815  53.6268959   4.6653986
  63.2178001  52.9975243   5.3823338  62.6336021  53.3516693   4.0316753
  28.4791126  36.8384819   3.1117430  28.2220802  36.3089981   2.3568838
  27.6727352  36.9428749   3.6168056  11.6997299  47.4488678  17.8680592
  12.1284008  47.6515617  17.0365601  11.6128254  46.4956245  17.8666039
  71.9680099  38.5096664  59.2383270  72.3604202  38.5540733  60.1102676
  72.7075958  38.3562279  58.6503677  76.9019012  11.4619169  64.1819534
  76.7449799  11.7006998  63.2683945  76.1151733  11.7517185  64.6437988
  46.1829414  20.3385315  19.6274395  46.0864868  21.2903805  19.6576347
  46.1700020  20.0672474  20.5453014  64.5703278  37.2214088  24.9518242
  64.6150360  36.3031883  25.2184830  63.8378639  37.2567635  24.3366241
  84.3946075  46.6423340  46.5915184  84.5797501  45.9851532  47.2623863
  84.7217712  47.4619026  46.9623375  30.6697178  64.0523834  79.0881500
  29.8622398  64.1896820  78.5928116  31.1292877  64.8902969  79.0340652
  55.1755600  49.5157204  76.8560867  55.5181694  49.7476120  75.9929047
  55.0108337  48.5742760  76.8033829  50.7473564  40.8196182  86.1063385
  49.9487038  40.3024673  86.0017548  50.6389923  41.2597771  86.9494019
  54.1689415  22.2391491  77.4818115  54.4530487  21.3601475  77.7325592
  54.9809799  22.7395363  77.4015503  21.3850117  48.2332802  23.0372639
  20.7254314  48.9014091  22.8507481  21.0975437  47.8358154  23.8592205
  47.6461983  48.5198708  49.8056526  46.7587700  48.4618721  50.1596832
  47.5610924  48.2302361  48.8973007   2.4368680   5.2810493  69.1477432
   2.9008026   6.0096831  69.5601654   3.0778813   4.5705104  69.1260986
   2.8762655   1.3577911  27.5508003   2.9800079   1.8358960  26.7280712
   2.5375960   2.0089970  28.1651821  55.7115440  58.6963005   3.9546897
  55.0930252  58.8165779   4.6752439  56.4374847  58.2066956   4.3413849
  73.6496582  46.8714943  53.3321381  74.0325699  47.6091728  53.8069420
  74.3949203  46.3083038  53.1232491   3.1557837  71.3508224  16.1759949
   2.7334375  70.5077362  16.0115070   4.0422883  71.1238785  16.4567757
  28.8347244  16.3855362  81.5438080  28.5076084  15.6066322  81.0937729
  28.5096855  16.2986164  82.4399261  69.7759476   9.6033030  60.7976952
  69.4034424  10.3877850  61.2002640  69.4139862   9.5938845  59.9116211
  58.0624924  59.2071075  14.2044220  58.6071129  59.7779503  14.7464170
  57.8111343  59.7528076  13.4592619   1.0592408  62.7527809  16.7482891
   0.2142571  62.5133057  16.3676510   1.6970792  62.2274361  16.2651672
  -0.1021876  41.1611938   2.3010221   0.7755775  41.3681107   1.9801710
  -0.6485410  41.8807983   1.9849557  86.1097183  48.2666359  47.9000244
  86.1240540  47.3787460  48.2573433  86.7226562  48.2390785  47.1653290
  19.6975727  47.9737320  42.1730919  20.4611473  47.4945259  41.8512993
  19.3649578  47.4383812  42.8935089  29.6826820   5.2672286  64.0982056
  28.9607868   4.9092011  64.6148453  30.1961651   5.7767730  64.7250519
  57.6769943  63.0276985  13.4802809  58.4812279  62.8973618  13.9827309
  57.9661026  63.4477310  12.6702051  21.0998993  36.5405045  83.6992950
  20.3822918  37.0575333  83.3333054  21.5816727  36.2246361  82.9348679
  70.5681763  33.1637192  69.4643097  70.6584015  33.3593140  70.3969574
  70.2064514  32.2778549  69.4392700   4.2768078   1.0073256  75.3905869
   5.0814314   1.1123749  75.8983078   4.0645242   0.0771708  75.4679108
  66.8962097  38.5619469  13.2713051  66.4091110  38.2708588  14.0421743
  66.5085754  39.4083290  13.0485678  73.9272995  43.3953781  18.3064671
  73.4993591  44.1482391  18.7142601  74.8519058  43.4931908  18.5339813
  36.9472046  68.8426743  84.6568756  37.2550278  68.7896347  85.5616760
  35.9975243  68.7413330  84.7206421  25.2425308  67.8105392  14.5902014
  24.9514866  68.7032623  14.4042788  26.1945858  67.8790359  14.6618376
  26.2925243   5.1554346  63.7095985  26.7995262   5.6162968  64.3780212
  26.6617088   4.2724094  63.6954079  65.1178513  16.3884792  56.7732773
  65.8135223  16.5309353  57.4151344  64.4212723  16.9893856  57.0377045
  25.6105270  21.2631474  83.4854279  25.8686848  21.7100563  84.2915649
  26.3090191  20.6274471  83.3297729   7.7294965  27.4745712  71.8609695
   8.6175108  27.6182480  71.5338287   7.7282805  26.5649414  72.1589661
  36.0174484  47.4079437  45.6536217  35.7169571  48.2829666  45.4081154
  36.5323105  47.5458221  46.4486923  81.6900787  47.4946251  13.6106834
  81.0297852  47.2314453  12.9696093  81.2106857  48.0315742  14.2416353
  48.7801781  62.7930069  75.7373734  48.3792648  61.9243469  75.7678986
  49.0807190  62.8864517  74.8333969  73.5143661   8.9824858   8.3702517
  73.3044434   8.3081446   9.0163393  72.6869736   9.4415808   8.2257500
  76.2298050  26.9876976  21.3541679  76.1429977  26.5704765  22.2112694
  76.1470871  27.9241753  21.5341682  46.9418373  57.3648186  54.6675529
  46.5967712  57.9787712  54.0193024  46.8197632  57.8088264  55.5067101
  15.8619099  41.6525002  21.9511604  14.9223909  41.6693306  21.7688046
  16.2549267  42.1422119  21.2286968   5.4824829  22.9763851  73.2918243
   5.3903723  22.7957764  74.2273102   5.5886502  22.1138096  72.8906708
  37.8636818   1.4776289  86.1555176  36.9619522   1.1608864  86.2082977
  37.8630943   2.2880015  86.6649551  60.9964981  23.9726715  44.1565437
  60.9332199  23.2396698  43.5442200  60.1811409  23.9379616  44.6567612
  16.5513439  46.1612549  37.8724403  16.9469395  46.0010109  38.7292099
  16.3915634  45.2876930  37.5152435  69.6857071  14.0943069   1.8376191
  70.4188766  13.6219301   2.2320228  69.7518463  13.9014330   0.9023879
   5.0205564  59.3931351  77.9323654   4.2420063  59.1269150  78.4214630
   5.6966729  58.7712555  78.2013779  62.2536087  20.0732765  69.6731110
  61.9416656  20.3167267  68.8015366  63.0211182  19.5255108  69.5084534
  27.7538338   4.9729161  83.1164169  27.2639675   5.7946587  83.0847702
  28.6652431   5.2416887  83.2318573  18.6599312  38.6321373  64.3056946
  18.2981663  37.8722610  63.8496895  18.9669838  39.2079201  63.6053925
  46.5474014   4.0666566  86.8809814  45.7307129   4.1021271  86.3829956
  46.4681015   4.7733259  87.5217361  77.0025940  43.6593971  69.8027420
  77.0036011  43.4680061  68.8648758  77.5747375  44.4215431  69.8922806
  38.5064659  70.5322342  71.0638809  37.8855133  70.5572891  71.7919006
  39.3627014  70.6500778  71.4752274  50.1902046  19.7390594  13.0528040
  50.5355835  18.9570942  13.4834700  49.2637024  19.5448914  12.9109392
  71.4721832  42.0381470   1.9107394  70.9043274  42.1653442   2.6707397
  72.1479034  42.7099991   2.0015197  13.6186638  36.6844482  85.3800278
  12.8655653  37.2660065  85.4842606  14.1167326  36.7899361  86.1906052
  18.7038288   3.0058908  68.7406158  19.0355434   2.7302713  67.8860779
  18.4474602   3.9194860  68.6147156  52.9114685  57.2534027  74.9257050
  52.9515991  58.0534286  75.4497070  52.3245811  56.6762657  75.4142838
  76.6063309   0.9985932  47.0345116  77.1605225   0.8492908  47.8005486
  76.7326813   1.9238045  46.8241501  32.4371948  61.2410431  71.2269897
  31.5892124  61.5253258  71.5680771  32.4168091  61.4842720  70.3014374
   9.7791262  64.7584686  32.5725784  10.5834999  64.7219315  33.0901489
  10.0794163  64.8742294  31.6711044  67.3854370  10.9698772  72.0191727
  68.3423843  10.9915800  72.0192184  67.1464310  10.9426212  72.9456482
  77.7227859   7.6006112  27.4788780  77.2813263   7.1224775  28.1808281
  77.0118103   7.9957252  26.9742680  82.9107513  68.5026703  58.4536819
  82.8946304  69.3237381  57.9619293  82.7714233  68.7655945  59.3634605
   2.1540518  20.6427860   3.5011017   2.5910716  21.4745560   3.6838655
   2.8321431  19.9810123   3.6370406   0.4879489  28.8730774  82.7514343
  -0.4102843  28.7459087  83.0567856   0.9324295  29.2978916  83.4850616
   0.6593766  33.4365387  27.1797218   1.0232254  32.9575615  27.9243183
   0.4178807  32.7556229  26.5518169   3.9861660  17.0915546  18.5572395
   4.2721052  17.8219147  19.1059151   4.0033908  16.3327599  19.1404762
  42.7757912  59.0177269   5.2812524  43.0355186  58.5141258   4.5097866
  42.1295700  58.4655075   5.7213473  81.8385239  14.5337248  88.0828781
  82.0622787  15.3790150  87.6934509  80.9016571  14.5961952  88.2688980
  55.2591934   7.0786214  72.0314560  55.1222801   6.3022580  72.5743637
  55.6511192   6.7414699  71.2258835  29.1567135  41.9353447  12.5404129
  29.6764488  42.4373703  11.9126549  29.3368187  42.3482895  13.3849669
  13.2808609  36.0836067  76.0271683  14.0915670  35.7546730  76.4154892
  13.5683432  36.6013565  75.2751541  56.1489410   2.4435248  10.9797525
  56.9189644   2.4721005  10.4118795  55.4324951   2.1870890  10.3990831
  85.0065308  57.9874077  87.4053192  84.2078934  58.4991951  87.5337219
  84.7481918  57.0869675  87.6020508  56.9574738  22.8474369  54.8616066
  57.7897034  23.1222420  54.4767609  56.3941536  22.6656895  54.1093597
   6.1693892  41.5832443  73.7521667   6.3858728  40.6714325  73.5573120
   7.0171552  42.0243530  73.8064651  86.3509674  12.7124653  81.0203323
  87.2635880  12.5479259  80.7831039  86.3288193  12.6110544  81.9718857
  51.4456444  33.0278435  69.8842392  51.5130119  32.0921860  69.6938629
  51.7904472  33.1169205  70.7727203  44.3124084  18.2659817  88.1950378
  44.5547867  17.3823986  88.4721069  44.9957962  18.8276062  88.5608139
  28.6723042  36.9788094  60.5143547  29.5350685  37.2084846  60.8594894
  28.2019196  37.8113785  60.4719009  76.2602005  10.5841637   2.2953687
  77.2098923  10.5406904   2.1838329  75.9979248   9.6803055   2.4699612
  85.8618927  24.5768871  32.7626419  85.4276733  23.7336369  32.6337433
  86.0737152  24.8749123  31.8780251  61.4187965  43.3261681   4.3527074
  61.4267960  42.8248062   3.5373504  61.0599518  42.7214813   5.0021830
  15.0830593  69.5160599  13.3350258  14.6246634  69.7488022  12.5276003
  15.8798180  70.0463104  13.3194723  19.9630451  49.6048660  39.5199814
  19.3354645  50.3146019  39.3834114  19.8941765  49.4003983  40.4525490
  81.6370697  38.6859970   1.6805280  81.2282639  39.2722321   2.3172696
  82.5102997  39.0531540   1.5430740  16.8415489  11.5408430   2.8465476
  16.2979794  11.7509947   2.0872054  16.2759132  11.7096052   3.6000786
   8.6507502  17.3472023  74.8821945   7.7508354  17.3623009  74.5563736
   9.1907072  17.4577084  74.0995941  61.8304291  54.6390305  35.2720070
  62.5429916  54.9750862  34.7283630  62.2707710  54.1747093  35.9838600
  50.6262054  30.4303474  83.9765854  50.9625587  29.7573776  83.3847961
  50.3250237  29.9450378  84.7446976  77.7586899  37.8983803  47.4575348
  78.1254654  37.8096924  46.5778503  77.1823578  38.6605339  47.4010201
   3.4348545  48.2019768  59.3910942   2.5587785  47.8566666  59.5628014
   3.7983468  47.6143227  58.7286987  83.1680603  42.3785934   4.9377031
  83.1478729  41.4236984   5.0009756  82.2557220  42.6282463   4.7909470
  69.0472641  55.1771584  20.4559479  69.6272049  55.9192162  20.6269722
  68.1865997  55.4723282  20.7532139  51.8216476  68.5602570  47.5520859
  51.1012192  69.0422363  47.9581757  51.9880219  69.0244904  46.7316971
  37.3460083  36.5780106   2.2564385  37.3647423  36.2848778   1.3454204
  37.1587257  35.7853546   2.7592878  84.0675430   2.7669954  14.8987522
  83.4197769   3.3481038  14.5000820  83.5523300   2.0448794  15.2583828
  85.3933716  25.7936306  76.4741516  85.9673233  26.5097847  76.2022400
  85.9266739  25.0058556  76.3681641   7.3750734  58.6716881  74.8937225
   8.2784300  58.3635330  74.9659653   7.2079773  59.1201515  75.7226944
  71.1009979  25.7528687  58.9416237  71.6670914  25.5209217  59.6778107
  70.2579498  25.9613647  59.3441620  13.4955025  71.1500397  51.9849167
  13.1994152  71.1769562  51.0750580  14.4335957  70.9690094  51.9262581
  15.1158419  35.7149048  32.0083847  15.8274212  36.2608337  32.3428154
  15.3031912  35.6230354  31.0742035  19.6003723  58.7298622  72.9566345
  20.5546780  58.6997910  72.8885880  19.2907200  58.5216103  72.0751724
  39.1475410  50.2628212  53.6154137  38.4234543  50.1411362  54.2295189
  39.5912476  49.4148674  53.5972404  27.0252132  63.5724297  57.8941536
  26.7691364  62.6501503  57.8865089  26.2586288  64.0310059  58.2380791
  61.9018898  40.6412621  12.1428595  62.1392670  40.3324738  13.0172367
  61.8278465  41.5910225  12.2361717   9.0167513  40.5325813  57.7876663
   9.8402758  40.8581238  57.4242630   9.2558603  39.7188911  58.2314796
  62.7671928  14.6495790  19.6231537  62.2298851  15.3624735  19.2777328
  62.4707069  13.8738737  19.1471195  79.3635025  58.5858917  77.4884796
  80.0504074  59.0258026  76.9876099  79.6826935  57.6900406  77.5971222
  49.8782845  25.4741268  13.5825615  49.3292847  24.7771091  13.9417248
  49.9974670  26.0842342  14.3104324  79.3441544  51.3967667  27.9076443
  78.8167343  50.6370583  27.6608562  79.1283875  52.0609779  27.2530460
  40.4670639  48.4132652  86.3971939  40.4000702  48.9831772  87.1633148
  41.2667847  48.6988258  85.9554520  28.0909786  24.8113346  76.4258728
  28.5681992  25.6409225  76.4092026  27.7490330  24.7496090  77.3177795
  65.3242264  46.8449326  48.8128281  65.7446365  47.6991005  48.9122353
  64.6137466  46.8515739  49.4542427  14.0903625  58.6790123  23.2030945
  14.3736162  59.5041656  22.8092403  13.8841295  58.1158752  22.4570560
  59.0555344  12.6159554  62.2332802  58.5911560  12.7533360  63.0589371
  58.8675957  11.7065258  62.0012245  47.5157089  47.2098732   2.4173677
  47.1539116  48.0014915   2.0190260  48.0273819  47.5283241   3.1610165
  12.9166489  54.1442184  56.0189400  12.5778952  54.1628876  56.9140015
  13.1951056  53.2379570  55.8870926  22.2947731  70.9857254  55.0832939
  22.8808746  71.4263382  55.6985817  22.3968620  71.4720459  54.2651863
   3.1294162  69.5883484  68.1261749   2.4215624  69.6194763  68.7697601
   2.7736454  69.0709915  67.4036789   1.5974859  48.9150543  30.1898861
   2.1199591  48.1214333  30.0740528   0.6983048  48.6375351  30.0147057
   8.1739635  55.2919998  11.4550867   7.8773861  54.6469650  10.8130550
   7.4726477  55.3221550  12.1058397  52.4741058  47.3700104  51.1444435
  52.2287903  47.0970840  52.0285034  51.7848969  47.0136757  50.5838623
  26.4205971   3.4299428  31.6181812  26.3696747   3.7510149  30.7178764
  26.3897991   4.2207603  32.1565971  48.3501091  34.7983017   4.9190011
  49.0078545  34.1507950   4.6653528  48.0644455  35.1862068   4.0918612
  63.6763382  41.1395035  68.1819687  64.5755997  41.1149902  68.5090179
  63.4505196  40.2213173  68.0330582  69.2175598  40.3413353  69.5717239
  70.0083466  40.3381119  69.0323868  69.1092148  41.2559433  69.8324738
   4.0934443  25.0118942  11.8342695   3.2446630  25.2359161  11.4526720
   4.0830622  25.4221821  12.6990175  76.3790436  70.9275360   0.2608256
  75.7504044  70.4977493   0.8407633  77.1440887  70.3523178   0.2685129
   3.6521850  69.0787506  57.1237411   3.1191766  68.4450912  56.6435204
   4.5328450  68.7037277  57.1185303  42.3734627   0.2249849  52.0818138
  43.1374092   0.7580491  52.3019562  42.3297501  -0.4301060  52.7783623
   9.0278320  53.9528694  31.8563366   8.2752533  54.0538445  32.4391403
   9.1623955  54.8250465  31.4856148  83.7470245  30.0981846  20.6322613
  84.0609818  29.1996346  20.7336063  83.2162170  30.2559223  21.4130287
  53.8146782  10.1592350  17.0474243  54.4033127   9.4163342  17.1809769
  54.2400742  10.6828241  16.3683643  72.1103592  12.6332865  67.1721802
  72.0558472  12.2659760  68.0544205  71.6074295  12.0267162  66.6287003
  76.2669601  62.1216888  32.7135048  75.6792831  61.4126396  32.4525185
  75.7497787  62.6498375  33.3216286  48.0322609   3.5802128  37.0999908
  48.3272285   2.6705451  37.1415901  47.3228683   3.6315072  37.7405891
  79.2695312  16.5200768  85.6946716  79.6108704  16.0326767  86.4444504
  79.9730148  17.1263332  85.4627380  76.0429535   4.0989885  64.6011047
  76.8739395   4.0381322  64.1299362  75.7269592   3.1966145  64.6469269
   0.4955435   5.6516557  23.5225334   0.6315799   5.2597036  22.6599216
   0.0125907   6.4588728  23.3453636  73.2334900  51.2383156  82.4601822
  73.7923126  50.9400177  83.1777954  73.1362228  52.1790962  82.6075058
  11.9911356  37.5522995  11.2692661  11.0920162  37.4808197  10.9487886
  11.9638052  37.1702995  12.1465130  45.6183205  52.6775093  53.7133484
  45.5238266  53.4884033  54.2131004  45.8333168  52.0151176  54.3700409
  18.4483738  40.3450661  77.8405457  19.4008732  40.4398079  77.8409500
  18.1495018  40.9329376  77.1467743  69.1149673  49.0082283   4.7206354
  69.1752930  49.3295860   3.8210127  68.1749954  48.9401321   4.8881159
  27.6140728  55.3701782   1.6690413  27.0847244  55.1488609   0.9028547
  28.3565502  55.8590240   1.3140914  24.2054920  37.8564987  20.9685078
  23.3265381  38.1142197  21.2464485  24.7718868  38.5623360  21.2803116
  48.6971169  18.1077251   9.7524443  49.4833298  18.6426563   9.8617449
  48.2562943  18.1536903  10.6008530  61.3371391  25.5043526  71.2710190
  60.8846321  25.9866600  71.9630051  61.6252556  26.1799755  70.6572189
  31.2467289  58.0919685  56.5194397  31.6857853  57.8125801  57.3228111
  30.5153637  57.4822235  56.4217186  19.6560478  50.1929855  22.5200691
  18.7813358  49.8106194  22.5901070  19.5130329  51.0437927  22.1054592
  21.2472134  31.2290077   9.0520878  21.6977005  31.6280861   8.3077555
  20.3404922  31.5244923   8.9697552  71.6108398  59.5164452  40.1059113
  72.0344543  58.7326279  39.7560310  72.3358154  60.0817146  40.3725739
  55.7579231  21.6111088  29.4125500  55.5534096  20.8106174  28.9292049
  56.7035294  21.7181091  29.3095551  38.6221085  55.2440186   6.8570848
  38.5124016  54.6806221   7.6231008  37.8194008  55.7645035   6.8256445
  39.6220779  46.0652580  60.8077087  38.6700592  46.1640816  60.7967377
  39.9106979  46.6072998  61.5419579  39.2648506  69.4161758  45.0850334
  38.8706818  69.4513626  44.2134666  39.9666710  70.0664749  45.0569305
  39.7446976  67.4525986  31.3275509  39.7464409  67.7897034  30.4316807
  40.4711990  66.8297806  31.3505096  56.5446205  33.8750229  69.6164856
  57.3248367  34.1655159  70.0888290  56.8014412  33.0432587  69.2184372
  81.7638855  65.8994598  59.3122635  82.0553970  66.6996994  58.8753662
  80.8142700  65.9971695  59.3823624  36.6425896  17.5787601  81.4524307
  37.0445862  18.4319744  81.6156998  36.6507111  17.1431408  82.3047256
  45.0790443  27.2523499  68.5844421  44.7239952  26.9195061  69.4086914
  44.8752747  26.5712585  67.9434891  71.5086517  62.8665543  64.4148331
  71.3999252  62.7444077  65.3579636  71.7018280  63.7986984  64.3147430
  25.8061543  47.2404289  76.6976318  25.6085892  48.1756248  76.6465378
  24.9721508  46.8089447  76.5119171  72.0431519  62.3078804   0.4457049
  71.8612900  62.9859390  -0.2049791  72.3875732  61.5738945  -0.0630894
  86.3292618  32.9362831  21.6694908  86.2049789  33.8256493  22.0008640
  85.6620789  32.4177246  22.1191635  28.8804188  52.3241692  60.6885834
  28.6694660  51.9398232  59.8376961  28.5708008  51.6803017  61.3256111
  42.5695610  15.3172054  65.0009460  42.8802376  14.4204435  64.8763275
  42.2748642  15.3442688  65.9112473  65.4429779   7.2151651  62.1343575
  64.5057602   7.1027131  62.2931366  65.4904709   7.8546147  61.4236679
  39.0483437  59.6372261  50.0115929  39.2928810  60.2649727  50.6915665
  38.6889153  58.8914948  50.4921455   2.2159870  18.6358109  59.8751755
   2.5373149  17.8879280  60.3788109   1.4789766  18.9699841  60.3864250
  58.2488632  53.2627945  27.0749588  58.7138634  54.0988579  27.1066513
  58.7781067  52.7162476  26.4940796   6.0646300  46.5637589  42.0172310
   6.7610288  45.9962006  42.3475914   5.9708090  46.3170319  41.0971489
  28.4581184  58.4709969  41.4982147  28.3723869  58.1591225  40.5973167
  28.7568302  59.3761940  41.4109039  48.6767349  55.1968803  73.2560501
  48.2504425  56.0203743  73.0186310  47.9756279  54.5460396  73.2230759
  55.8416176   3.2377460   6.9482894  55.2640266   3.8285129   7.4316235
  56.6755600   3.7050571   6.8993497   5.2379065  15.4347830   7.6276617
   5.6272435  14.5608749   7.5971336   5.6950417  15.8757668   8.3437576
  79.8958511  58.7686768  80.4996262  79.5439148  57.9340515  80.8091125
  80.7747650  58.5562973  80.1855698  20.3122826  21.7011070  85.9171143
  19.6724815  22.0138741  85.2775345  21.1387367  21.6728802  85.4350281
  13.8028612  43.4091682  54.8082619  13.3674059  42.7446938  54.2743263
  14.7268534  43.1595993  54.7946587  77.7034760  20.1343307   3.0449190
  77.1578140  20.8411369   3.3897581  78.5378342  20.2300396   3.5041709
  57.0034637   3.8094668  66.9734726  57.7328300   4.4269681  66.9191742
  56.2369308   4.3207951  66.7142410  28.0645809  58.1598778  29.5645561
  27.9054260  59.0342789  29.2091293  27.4431419  57.5969200  29.1029034
  74.9944916  56.7857132  19.0602264  75.1707764  57.7184181  19.1835747
  75.8528214  56.4012146  18.8822784  43.6732025  43.3399887  21.3797588
  43.6585083  42.6519699  22.0450745  43.4003181  44.1300659  21.8461800
  59.8659477  50.9279213  10.2982845  60.7811852  51.0050659  10.0288000
  59.3793793  50.8592529   9.4768438  85.1641388   2.4733167  46.0716782
  85.2514572   2.8145692  46.9617081  86.0109177   2.6517873  45.6625862
  47.7183304  37.6325531  64.3826752  48.0103226  37.4203529  63.4961433
  48.5219917  37.6473885  64.9024277  28.6891937  50.3423157  19.3357124
  28.0475769  49.8471832  19.8450279  28.5864048  50.0181541  18.4409561
  31.2342682  44.1220932  87.7522812  31.5111465  44.1463013  86.8363190
  30.5179138  44.7549591  87.8027573  42.9494896  64.7995224   0.5408888
  42.6155777  64.4012604  -0.2629261  42.7326393  64.1696625   1.2282636
  82.3151245  39.5138817  57.3902435  81.6468964  40.1953583  57.4629326
  81.8325272  38.6934547  57.4914093  33.5195122   2.3285513  16.8904896
  33.9945145   2.0498588  16.1075897  32.5988312   2.1722748  16.6803570
   2.7806351  21.9539032  78.0265198   2.5493279  21.3456917  77.3245163
   3.2196734  21.4095325  78.6800766  13.4542084  11.5084476  20.1042976
  13.9190521  10.9332466  20.7119942  13.2386084  12.2824450  20.6245613
  43.8020287  37.6313171  19.1833305  43.6523781  38.1586227  19.9680500
  43.9556541  38.2726250  18.4895325   7.4251342  65.7013321  56.4477615
   6.5338540  65.6157761  56.1093369   7.9068117  64.9825897  56.0383377
  11.6329613  40.9900093  49.9806137  10.8012905  41.0182304  50.4536438
  11.3941879  41.1457825  49.0668564   1.9338305  10.2880335  34.1669731
   2.6929064  10.2131710  33.5886726   1.8879924   9.4422064  34.6127396
  55.4359932  45.4640198  23.7846718  55.9896393  46.2156143  23.5729656
  55.7556496  44.7633934  23.2161922  60.7926216  52.3301010   1.7905568
  61.2615891  52.2070961   0.9652253  59.8920746  52.5209084   1.5281929
  47.9378624  65.8038712  59.2937965  48.5667267  66.4475098  59.6201172
  47.1984177  66.3270264  58.9843483  61.0600433  60.3020973  48.3044548
  61.6124153  59.6558571  47.8645744  61.2263374  61.1190758  47.8342171
  25.5528622  17.9787426  47.0280571  25.0475044  17.1736221  47.1404228
  26.4363747  17.7491188  47.3159981  14.7454176  27.4866982  88.2087097
  14.2461967  28.2653675  88.4550552  15.4194965  27.8130264  87.6125946
  41.5771027  51.1912613  10.9823399  42.5119591  51.3909569  10.9333029
  41.5238838  50.4362411  11.5682955  76.6800919   3.4859259  41.1605949
  77.5893707   3.7704906  41.2525673  76.3932495   3.3073573  42.0561752
  12.4569082  65.5621490  51.8077164  12.0978794  64.7666016  52.2006912
  12.9440365  65.2531738  51.0438614  39.5509109  70.3574142  77.6559448
  39.1088715  69.5092926  77.6948776  38.8403015  70.9948883  77.5860214
  81.6599350  32.8704720  42.2015495  81.6772690  32.3574448  41.3936310
  81.0301971  32.4154930  42.7607155  20.5192013  59.5020714  62.4654083
  20.5010757  60.4541092  62.5630150  20.8340473  59.3587570  61.5729027
  35.5357780  57.4793358  31.7708569  35.0358543  57.5431175  32.5846405
  35.9527130  56.6187286  31.8127193  76.8056717  61.5355415  14.6958094
  77.5097122  61.3288231  15.3104811  76.8437805  62.4870911  14.5991993
  86.2976303   2.6373479  26.2014217  86.1785736   1.9787265  26.8857269
  86.5219193   3.4378569  26.6758804  47.7328415  41.0734749  63.6955795
  47.4164276  40.4557228  63.0364151  47.7240982  40.5763206  64.5135040
  76.6344986  24.8339500  78.2053223  75.7138138  24.7006893  78.4307404
  76.6711349  24.6993828  77.2583389  73.9859467  52.1055183  42.1909676
  73.4667969  51.3020821  42.2256279  74.2947769  52.1522789  41.2861671
  17.5478153  37.7377014  73.6756287  17.3475380  37.3542099  72.8217773
  16.8105316  37.4841766  74.2309341  50.8593559  40.7867470  60.5974426
  50.7370262  41.6122551  60.1286125  50.6170197  40.1125793  59.9626198
  76.8157120  12.8752871  84.4151840  77.5473022  12.9385490  85.0291977
  76.6234894  11.9388094  84.3673172  84.5404510  45.5475235  77.7934265
  84.5234222  45.0114250  77.0006180  84.8110809  46.4143143  77.4906693
  40.9753685  49.5247688  40.3140564  40.2942390  48.8534546  40.3543930
  40.8803329  50.0118828  41.1325417  31.3282547  53.9327240  82.3455124
  30.8429775  53.1089821  82.3922424  30.6666565  54.6090393  82.4908295
  34.7545052   4.6324382  36.2029648  34.2248421   5.1873794  36.7754402
  34.6155968   4.9909959  35.3263969  74.9524307  50.8029823  23.0989361
  74.8856506  51.5425491  23.7029305  75.0439529  50.0376892  23.6665497
  57.4422264  40.4136620  66.4252014  57.2675591  40.7916183  67.2870941
  58.2357597  40.8572044  66.1255188  58.5524826  24.5947933  45.3171043
  58.5449409  25.5493946  45.3871727  57.6816940  24.3262444  45.6100960
  77.4584274  53.6111679  72.1743546  76.6238937  53.3077965  72.5317764
  77.8838425  52.8166542  71.8518524  77.8351288  22.8135834  11.8197155
  77.9762344  22.1697025  11.1256437  76.9020920  22.7464294  12.0226326
  65.0106201  19.9069538  51.9852295  64.3492584  19.5506020  52.5783920
  65.2084503  20.7736893  52.3400040  12.8654833  55.0199127  51.0029221
  12.9489317  54.0768814  51.1442070  12.6701002  55.3756142  51.8698311
  59.9776001  44.4790306  67.4249496  60.3406029  43.7995605  66.8568115
  60.7369652  44.9939117  67.6978912  81.2069016  16.3977299  49.2349167
  80.5687485  15.9269524  49.7709732  81.0668793  17.3198051  49.4503326
  14.1512480  66.1487961  16.2309456  13.4066162  66.4110260  15.6896601
  14.9004412  66.1732101  15.6356764  14.6493044  68.4099045  17.8295536
  14.3566236  67.6100616  17.3927174  14.9175873  68.1218414  18.7020645
  54.2387161  37.4122696  19.1948318  54.1645203  36.6279907  19.7385597
  55.1779823  37.5053520  19.0356236  56.4153709  22.2000065  74.2856903
  56.3632393  23.1440639  74.4349213  55.5346031  21.9530964  74.0037079
  23.1056156  37.1393204  35.0343399  22.2186623  37.3882332  35.2943192
  23.1292553  36.1886444  35.1433640  12.6532679  60.7587891  46.6914253
  12.3018417  59.9316978  47.0210495  12.5558548  60.6986313  45.7410965
  32.0807114  44.0077553  26.7282238  31.5504379  44.4125214  27.4146690
  32.8334389  44.5911293  26.6317291  33.9894333   7.6616378   8.8960161
  34.3951836   7.2326341   8.1426535  34.6399193   7.5854230   9.5940771
   6.9361811  12.6977167  75.7793808   6.0479097  13.0380154  75.8861618
   7.1737571  12.3717594  76.6474457  18.1209526  60.7637558  82.8522263
  18.3902264  59.8675842  83.0537186  18.8625507  61.3038139  83.1253510
  39.8265686  62.8682327  14.7530012  39.9759216  63.6937752  14.2921276
  40.5027199  62.8462448  15.4301767  65.5697632  55.8203735  18.6142101
  65.8797913  55.0063515  19.0110493  64.9392929  56.1691093  19.2443867
  36.3251801  44.8274879  39.9011040  35.9842148  44.0041466  39.5517006
  36.7628403  45.2405739  39.1567612  41.2859116   8.2889786  85.9444351
  42.0601158   7.7937770  85.6768341  41.6185608   8.9356880  86.5668030
  64.3436279  53.2353783  36.7504997  64.5757294  52.8732605  35.8953781
  65.0777054  53.8068504  36.9758492  59.7291946  20.2439518   7.2392306
  59.7037468  19.6681347   6.4750199  59.0365944  20.8850060   7.0792680
  13.0248117  54.9605103  41.5704422  12.6032925  54.1140633  41.7190323
  12.2982454  55.5751724  41.4678459  12.1482296  57.7860107  55.3005295
  12.0303793  58.1671600  56.1706276  12.5494204  58.4856033  54.7849236
  10.1278696  69.6139603   4.8426170   9.7420464  69.6995316   5.7144256
  10.5099936  68.7363739   4.8348923  35.7932434  20.7499638  17.6518059
  35.5279236  19.9017715  17.2962685  36.2539101  20.5360699  18.4631443
  24.0949421  17.9153309  62.8111343  24.4195347  17.6786747  61.9423065
  23.2846470  17.4151611  62.9085236  59.2990036  59.9347496  84.9260254
  59.5777054  59.0216026  84.9946899  60.1142616  60.4360046  84.9441833
  69.8736343  20.3582611  29.9101810  70.4129410  20.1558018  30.6746349
  69.2218018  20.9795837  30.2346878  39.4496918  58.9032974  75.9009171
  38.7381020  59.5168915  75.7182312  39.7421761  58.6117592  75.0373840
  48.7260590  61.4746628  10.1281013  49.3414040  62.0464325   9.6691217
  48.3049583  60.9689255   9.4330235  12.8447208  64.5633087  33.1468849
  13.7418633  64.8958664  33.1190796  12.8538694  63.8008614  32.5682411
  59.5419922   7.7260499  63.9959526  59.3527908   7.0282927  63.3686028
  60.3255119   7.4271984  64.4574890  49.1131897  60.7833099  65.9928207
  48.2782021  60.6540985  66.4426346  48.8780022  61.2110519  65.1694412
  50.9661026  51.3431854  27.3575439  51.0543900  50.9903336  28.2429447
  51.6741409  51.9829903  27.2829838  85.0805359  41.7951050  77.0680313
  84.9710770  41.9647026  78.0037003  85.1352844  42.6647186  76.6717834
  10.4261274  32.5935249  77.5606918   9.4768744  32.5825920  77.6832886
  10.5475521  32.8839798  76.6567383   0.4003819  11.9491034  71.4360046
  -0.2394891  12.6036301  71.1560211  -0.1269182  11.2438822  71.8113098
  80.6075363  48.8739395   6.8383937  81.0120926  48.3835716   7.5540109
  81.0080566  49.7419891   6.8864231  79.1074524  59.5662613  72.3833694
  79.3630066  59.1012459  73.1800385  79.5327911  59.0813637  71.6761246
  25.8455601   9.6741199  76.8100510  25.5669422   9.3635826  77.6715469
  26.6355762   9.1691484  76.6174088  54.6610909  19.9703922  70.1420441
  55.3960304  20.2313423  70.6970215  53.9315529  20.5140610  70.4394150
   2.1309853  48.0050926  74.0223999   1.9755998  48.0546227  73.0792007
   2.9710538  47.5534706  74.1033554  60.9274559   5.6163964  22.0922070
  59.9786072   5.5784469  21.9718838  61.1451759   4.7981958  22.5387249
  49.7479134  12.3260050   6.6111393  49.0960922  12.9631920   6.9032960
  50.5308151  12.5331154   7.1214299  58.6783447  20.5143127  52.9731064
  59.1977081  19.7731037  52.6614952  58.4965744  20.3105583  53.8905334
  13.2723484   2.5269175  52.2551117  13.9455824   3.2058356  52.3004799
  13.7437210   1.7106693  52.4217834   2.0140622  50.3769684  78.2566757
   1.5179058  49.8397827  77.6390305   2.9299970  50.2267799  78.0227127
  25.2142220  25.8576927  66.7297287  26.0053291  25.3189907  66.7432785
  24.5000858  25.2383156  66.8801041  51.0275002  40.2760277  78.8796844
  50.1524086  40.3871574  78.5080643  50.9742470  39.4606056  79.3781586
   8.5523615  68.8652039  26.6333179   9.4264374  68.8336792  26.2444363
   8.4970036  69.7355423  27.0278759  58.2797623  16.5229969  58.1431732
  58.2830505  15.9890900  58.9376335  58.0007706  15.9223347  57.4520874
  52.1308212  28.0759525  39.2412109  51.7092476  28.4910545  39.9936714
  52.9871292  28.4996586  39.1825447  85.4168930   2.9659772  21.8405590
  85.6386414   2.5881228  20.9895077  84.5551300   2.6036613  22.0462723
  61.1231003  69.3766174  19.1801434  60.8138008  70.1088562  19.7134342
  60.9774857  68.6041870  19.7263794  46.7803726  40.8979759  25.5647259
  45.9949646  41.3554230  25.2645473  47.5001068  41.3318825  25.1065331
  63.2142220  40.3856926  81.5724716  63.9705620  40.8475113  81.2106628
  62.5444489  40.4530373  80.8919601  69.4044876  22.9747219  22.5032291
  68.7325287  23.3454819  23.0752754  69.7109756  23.7165356  21.9816875
  31.6732006  52.4560890  23.0926342  32.3928528  51.8249550  23.0903530
  30.9314518  51.9748840  22.7259159  12.4597750  14.4097309  68.4807358
  11.9756327  13.6117277  68.2685318  13.2513695  14.0997839  68.9206696
  83.7303162  36.9712257  75.0667877  84.5407791  36.5000954  75.2601929
  83.1581726  36.3122101  74.6736221   7.0798974  37.5445099  80.9465637
   6.8243976  36.6940842  81.3039551   7.1193209  37.4046478  80.0004578
  37.1687393  47.2038422  60.6953545  37.3118057  48.1251526  60.4786682
  37.1159782  47.1879463  61.6509666  63.1524086  51.4936867  21.9803848
  62.9924812  52.2002716  21.3547688  63.8045158  51.8506813  22.5833321
   6.2981901  13.1347437  68.1688232   5.3441968  13.1061230  68.2416916
   6.4695101  13.0473137  67.2311478  41.0347824  50.5410423  80.6411667
  41.7131767  50.4813766  79.9685211  40.8701859  51.4795265  80.7327576
  51.0056992  43.2168579  16.1314545  50.9614754  42.7153130  15.3173752
  50.2137451  43.7544479  16.1248913   2.1826797  51.1574745   5.8537598
   1.8472555  50.3688660   5.4273629   3.0276239  51.3163261   5.4329662
  78.9278564  55.3713570  11.2685175  78.5923767  55.0029297  12.0857954
  78.1578140  55.7458687  10.8407326  58.2260056  53.2050629  35.7606659
  57.7634735  53.5419121  36.5280190  59.1515732  53.3527069  35.9549866
  19.3091564  57.5356216  41.7541847  19.5212479  57.3840675  40.8331604
  19.7594414  58.3515892  41.9725266  29.0219955  49.5900269  73.9470520
  29.0849628  50.1413155  73.1670837  29.2997761  48.7232590  73.6507721
  54.7088776  46.7073479  88.4324265  54.4672279  46.5032005  89.3358459
  54.7300415  47.6637802  88.4004517  75.0134735  32.2839775  74.0227585
  74.8634338  33.1231537  73.5874405  75.8738022  32.0029640  73.7111664
  25.1815681   2.5579846  52.5920677  26.0829220   2.6363473  52.2795753
  25.2318096   1.9307057  53.3133354   9.4417915   5.9033761  13.1640291
   9.1736488   5.0251603  13.4343395   8.8108549   6.1487842  12.4873266
  29.4812717  61.0374222  66.7801285  29.0166073  61.7367287  67.2397995
  28.8398857  60.3305168  66.7084579  70.2160187  65.5268402  77.7089386
  71.0935593  65.5236740  78.0912247  69.6577530  65.8950272  78.3937759
  13.3057842  65.1879044  12.3395615  14.0989628  65.1728668  12.8751678
  13.6083069  64.9720306  11.4574556  69.8285904  54.8896751  23.8412189
  70.1427765  55.4135284  23.1042690  69.9723969  53.9832458  23.5692959
  45.0229836  24.7138672  72.0765686  45.5395622  24.7932205  71.2746429
  45.6410980  24.9115734  72.7801819  73.8417130  60.3051147  59.5486031
  73.5864029  59.6903877  60.2364693  73.0757294  60.8675079  59.4336052
  53.2410736  34.6133194  58.4381943  52.4629173  34.5333519  58.9898300
  53.6222000  35.4567032  58.6824837  74.2417374  40.7928123  32.1211624
  74.8533173  40.5734253  32.8240623  74.4557495  41.6969414  31.8909855
  32.5806007  27.4929638  69.6974335  32.4823952  26.6186237  69.3204498
  32.6323776  28.0759354  68.9400101   9.8502665  48.9724159  18.9931068
  10.4928265  48.5336037  18.4356174  10.2799206  49.0408173  19.8457203
  16.1971226  21.9839668   3.2766743  15.2778673  22.2458687   3.3277700
  16.1802502  21.0313759   3.3689778  51.5681152   1.3388275  79.4780731
  51.2701073   1.0174209  80.3290253  52.2614784   0.7307156  79.2217941
  66.4553833  40.0526009  46.9983253  66.7642822  39.8592262  47.8834343
  65.5376663  39.7805481  47.0001488  62.3644295  30.9608250  26.8468628
  62.0677452  31.4132557  27.6364918  62.4554443  31.6543007  26.1933804
  16.2060909  37.1468849  23.8407478  15.8858309  36.3184319  24.1975746
  15.7878580  37.8177452  24.3804302  55.1117363  38.6535568  67.1952438
  56.0452614  38.8510857  67.2710648  54.9449997  38.0148582  67.8884201
  80.4476242  17.8733807  83.4628983  79.6848984  18.0122128  82.9014664
  80.5772858  18.7135353  83.9028549  62.8903923  19.4879265   7.8593388
  62.3040771  19.4421654   7.1041093  62.3492966  19.2132740   8.5996189
  74.9654388  47.2927170  77.6974792  75.4633484  47.1103630  76.9005661
  75.6218338  47.2976952  78.3941498  53.0572052   9.7971516  52.2064323
  53.1528358   9.6238718  53.1429443  52.9298210  10.7441492  52.1498566
  80.9999084  19.1587849  46.3198853  80.0682755  18.9500408  46.3885727
  81.3623962  18.4600582  45.7752609   0.9393979  21.8078079  58.1495743
   0.0423219  21.8413067  58.4817848   1.3610290  22.5832977  58.5198097
   1.8261664  23.0868549  43.1639900   2.4319818  23.7790737  43.4286652
   0.9639105  23.4106503  43.4245720  29.1759796  15.2385120  66.2473602
  28.2385826  15.4144182  66.1662598  29.3249359  14.4730597  65.6922760
  13.2487659  13.2213364  81.8633347  13.7695875  13.9660091  81.5625992
  12.5416031  13.6145754  82.3747177  72.6029434  56.4515800  52.6097641
  71.7796631  56.2251434  52.1771469  72.6194000  55.9042435  53.3948669
  71.3313904  64.7493668   4.5352941  71.6576920  64.1079712   5.1664619
  72.0330276  64.8276825   3.8889153  77.8716965  70.6938477  83.9211884
  77.9949646  69.9212799  84.4727173  77.5729980  70.3437576  83.0818787
  49.8036232  50.7907639  44.2337952  49.3821602  51.4964485  44.7243156
  49.0770302  50.2835617  43.8717957  63.8422508  37.5380249  38.0477791
  63.3040199  37.8489227  38.7757072  64.4193726  36.8825111  38.4395256
  31.4286880  55.8500519   6.2378531  31.6279659  56.5473595   6.8625793
  30.9877014  56.2954483   5.5143995  72.3265610   2.8864346  79.8047714
  72.2216263   2.2985029  80.5528030  73.0219116   3.4887483  80.0692291
  26.9351101   1.2357261  13.6884813  26.5221786   0.9307342  12.8805838
  26.5227394   0.7166840  14.3789721  57.9280281   5.3243999   1.2752267
  57.9093285   5.5510192   2.2050254  57.1285591   4.8166695   1.1363271
  83.2687531  60.8573990   3.7490115  82.7688217  60.1462364   3.3483269
  82.7180405  61.6317940   3.6338482  34.1992226  11.2065105  79.6523285
  34.4140282  12.0537033  80.0426483  35.0382347  10.8663368  79.3415680
  44.8583870  37.8770027  27.5662365  45.3212433  37.2286110  27.0355892
  43.9476471  37.5824089  27.5638428  80.7532349  43.4691238  61.7101135
  80.8944168  44.4157562  61.7237015  80.4511566  43.2847595  60.8207359
  46.2161789  25.0504436   7.1522350  45.7220879  25.7094288   6.6645384
  45.5837440  24.6871281   7.7721257  27.1190853  20.3596420   2.8069787
  27.4186077  20.4733505   3.7089696  27.4883423  19.5190868   2.5361505
  67.7610016  54.0565300  27.0486431  68.5513382  53.5199661  27.1094418
  67.8736420  54.5582314  26.2412777  85.4309006  21.3796539  49.3527794
  85.3506470  21.3774452  48.3989525  85.3051300  20.4651203  49.6058388
  62.8094826  54.2504501  79.5623703  62.4208336  54.9040070  80.1437836
  62.8874931  54.6963577  78.7189713  78.9106598  68.1370087  22.2755337
  78.1842422  67.5140457  22.2538586  79.4213333  67.9368286  21.4910774
  76.3108749  16.9992371  38.1985703  75.6609268  17.5789814  37.8014526
  75.7990875  16.2704601  38.5495644  13.5034647  51.3603592  87.4608688
  13.6655512  50.4443398  87.6864090  13.3048058  51.3449631  86.5246353
  23.9814568  54.5531464   7.5802279  24.4136295  55.0291443   8.2893724
  23.1753178  54.2183037   7.9729767   3.7654576  47.2559776   4.1060238
   4.4191976  46.8974380   3.5057676   2.9263954  47.0740089   3.6828277
  15.3791914  55.0234947  10.7716131  15.2397394  55.3216782  11.6704302
  15.8735895  55.7313576  10.3584156  52.0963173  27.7506809  28.5542336
  51.2812157  27.5604229  28.0898590  52.7831535  27.4059124  27.9836025
   2.5395346  53.2951851  85.1741943   3.4532039  53.4402924  85.4199295
   2.5485241  53.2793236  84.2171707  17.0983143  18.4651794  26.4347076
  17.5021801  18.5758629  25.5739670  16.5999737  19.2710037  26.5708561
   2.1623795  38.6892433  67.4341354   2.8189220  39.0275192  66.8252411
   1.4393395  38.4067535  66.8740921   0.6775622  35.0397606  78.6855698
   0.6356033  34.7405663  77.7772980   0.0850555  35.7908401  78.7179413
  64.7448730  47.4164658  36.6445198  64.0093842  46.8039322  36.6533928
  64.7060471  47.8497276  37.4971657  70.8726654  45.7150230  11.8935604
  70.5835495  44.9098129  12.3228359  71.0304718  46.3265457  12.6128426
   3.9903605  64.5742188   9.1191473   3.6161525  64.4049683   9.9837589
   4.6364722  63.8785515   8.9974451  64.6305237  28.4984074  87.0763168
  64.2123413  29.2592793  87.4793472  65.5473862  28.7542820  86.9757462
  70.3368149  28.7626057  77.2719574  71.2648697  28.6007977  77.1023407
  69.9614487  28.9323101  76.4079361  48.8614006  61.8867569  69.2106934
  48.3447876  62.6449318  68.9377289  49.5747528  61.8412399  68.5740662
  14.2680235  69.0896149  41.8279572  13.8011837  68.2791214  41.6245232
  15.1469145  68.8037262  42.0770531  57.9799004  15.8601990  45.1760712
  57.6957054  14.9808426  45.4254646  58.4981842  15.7282648  44.3822136
  50.9448280  28.2018604  59.8289757  50.9347458  27.2877007  60.1125984
  51.8346138  28.5009346  60.0162354  78.4653244  14.5904484  80.3060150
  78.3044891  13.8791542  80.9260330  78.5087280  14.1590710  79.4526291
  42.5312042  52.7243462  52.8000450  43.2259598  53.1302910  52.2816315
  42.6812515  51.7835960  52.7067108  62.4246254  37.1028595  23.5502968
  61.6775322  36.5535202  23.3129997  62.7989655  37.3732758  22.7118626
  16.5803986  46.4705620  52.7318954  15.8041401  46.7742043  53.2024879
  16.7840004  47.1802216  52.1226654  44.7546196  35.7611656  13.3200760
  43.9676323  35.2973480  13.0341368  44.4474602  36.3535461  14.0063486
   0.3130931  31.4854984  52.1306381  -0.5947920  31.1824665  52.1428108
   0.6653218  31.1536121  51.3047981  57.5944977  44.5472908  43.8037720
  57.1323280  43.9181099  44.3576279  57.9642372  45.1811295  44.4184074
  59.9160652  27.3093472  21.3095531  60.7373199  26.8279266  21.4095840
  59.6884804  27.5820198  22.1984215  79.5387573  25.7192249  41.6567116
  80.4384995  25.5320683  41.9244270  79.0141602  25.0492077  42.0950127
  16.2856236   1.2426192  30.5901470  16.0974960   0.4681736  30.0599823
  16.9763851   0.9604238  31.1896858  50.9508438  16.3291054  67.3951569
  50.9383812  15.8751955  68.2378006  50.7292137  15.6525278  66.7553482
  80.6043549  34.7014885  59.8107185  81.0662766  33.8685570  59.7153740
  81.1096039  35.1818504  60.4666214  15.4247742  67.7340240  61.7551193
  15.1714964  66.8228912  61.6070633  15.1446943  68.1922531  60.9627724
  11.5014238  19.7666893  80.5183792  10.8358059  19.8698654  81.1984787
  12.2115326  20.3492184  80.7878876  22.2051487  49.4281387  75.2541351
  21.7057629  49.2446899  74.4584045  22.3970852  48.5650253  75.6207733
   1.7170697  43.6120491  80.9030838   2.6295297  43.6316147  81.1916428
   1.6443715  44.3426285  80.2889175  60.9343262  35.3538094  63.4141808
  61.2185898  36.1245995  63.9054146  60.3611374  34.8824577  64.0187607
  83.3863220   4.5070367  72.1321564  84.0021820   3.8803639  71.7523804
  82.9379425   4.0152798  72.8201675  72.6582184  15.3076286  20.0476017
  73.1685562  15.9152212  20.5829697  72.5735016  15.7470322  19.2014465
   9.5528812   9.0625906  59.2289925  10.1865768   9.7456598  59.4482613
   9.8127127   8.7658777  58.3568230   3.9227045  46.1127205   9.1303864
   3.5239110  45.8461571   8.3020515   3.2942297  45.8381157   9.7981014
  19.0336037  64.1525803   9.7763262  19.3289051  63.6088905  10.5066929
  18.0803852  64.0656204   9.7831059  63.1401482  69.1441345  60.4333954
  63.5054779  69.5225372  59.6336594  63.0373840  68.2138138  60.2329330
  54.4447632  58.6522026   8.4093685  54.1052628  58.8191910   7.5301156
  54.2932358  57.7177696   8.5511551  22.0163956  14.9195576  45.6410255
  21.4319057  14.2229805  45.3420563  22.4315205  14.5632401  46.4264793
  69.0004196  36.8041725  54.8363190  69.6943741  37.4588623  54.7586327
  69.4609985  35.9897575  55.0383720  80.0287170  40.1368141  72.2683334
  80.2283478  40.2860718  73.1925049  80.6283646  39.4393463  72.0033798
  50.3773003  36.9638824   4.8440218  49.5673447  36.4890480   5.0303855
  50.8940659  36.3571510   4.3138680  47.4613762  47.1166039  21.1042061
  48.3426704  47.3797684  21.3693390  47.3779182  47.4316635  20.2042027
  66.8171387  29.1754742  82.6679688  66.6235580  28.5842495  81.9404984
  66.1623383  28.9603519  83.3321915  53.0233421  27.1816921  69.6871719
  52.4501305  26.4374447  69.8708954  52.6577148  27.5758286  68.8952103
  55.7469978  57.6220551  13.5950079  55.2008286  58.3114586  13.2173166
  56.6114998  58.0232086  13.6841154  72.8513870  24.1355305  49.3584747
  73.7538376  23.8165035  49.3532639  72.8574219  24.8610439  49.9828377
  62.8030014  50.6889801  58.1920166  61.8519554  50.6475296  58.2921715
  62.9711380  51.5728569  57.8653259  70.6143951   4.0350986  27.2149696
  69.8617935   4.5024371  27.5774822  70.7519531   4.4329047  26.3552818
  48.5410080  65.4278107  75.5648041  48.6792564  65.5482330  76.5042801
  48.5266457  64.4783020  75.4445953  79.3090134   4.7267523  44.6746063
  79.3403854   3.8032987  44.9245682  80.0258789   5.1315556  45.1629448
  80.1791077  62.7102928  69.9302902  80.0130692  63.6182213  69.6766586
  80.6559601  62.3377953  69.1886139  23.9496746  53.3614502  13.6640806
  23.3377285  54.0167923  13.3290005  24.8146477  53.7047691  13.4400644
  82.0337601  58.1057930  47.1495399  82.1362915  57.9328804  46.2136841
  82.9220352  58.0510178  47.5019493  73.8884735  25.5047245   7.6297879
  73.7504349  26.4281502   7.8406506  73.6955032  25.4412022   6.6943960
  25.8285217  11.0336838  56.3631630  25.6160564  10.4343538  55.6476936
  26.3754883  10.5164919  56.9544067  53.2888603  62.4092789  29.0694218
  53.9422417  61.7954750  29.4049397  53.5015907  62.5015945  28.1407356
  25.0369663  12.1649046  76.2309036  25.5016289  12.9539680  76.5096588
  25.6192188  11.4453468  76.4747314  19.4790173  63.8780899   1.2161136
  19.0120449  64.3030624   1.9355370  18.8254967  63.3092003   0.8092918
  68.3138275  11.9862318  61.6054764  67.9109726  12.3306036  60.8083878
  68.5630417  12.7647562  62.1034966  31.8875122  57.9385300   1.7971644
  32.7307663  58.3428764   2.0012667  32.0143089  57.5422401   0.9351273
  66.2473068   5.2972212  65.4746933  66.1553345   6.2398329  65.6134644
  65.3939285   4.9355412  65.7137909  22.3491058  54.5943680  76.6413574
  21.4047813  54.4903259  76.7582321  22.4406662  55.4057579  76.1418610
   4.3755908   9.0325651  11.6023588   3.6592996   9.5899563  11.9064541
   4.1880484   8.8860693  10.6752138  49.7670517  60.0041122  12.4942684
  48.8137321  59.9767532  12.5759201  49.9232979  60.1592484  11.5627375
  54.5407829   5.1295838  35.3634262  53.6913872   5.2722411  34.9458008
  54.6413345   5.8705559  35.9609871  51.8470268  49.1643829  75.8672104
  52.2558975  49.8161049  75.2977219  51.8808861  48.3511696  75.3634491
  86.3364639  43.6819382  82.3996964  85.9209213  44.1699791  81.6887970
  87.2132111  43.4814377  82.0720673  80.7364044  52.3672676  86.3779144
  80.3824234  53.2248077  86.6136017  81.6188126  52.5524902  86.0565491
  30.0466480   2.5848606  77.8345566  29.5125771   1.9559875  78.3198624
  29.8601093   2.3978457  76.9145279  84.5348663  53.1953659  21.3720570
  83.6185913  53.4546547  21.4692440  84.6223679  52.9672737  20.4465580
  51.1848259  32.9887962  13.3994951  51.9688721  32.4455032  13.3199072
  51.5169144  33.8560333  13.6315451  20.5316486  25.2295589  78.2572403
  20.5233173  26.1199608  78.6084442  19.7515850  25.1828079  77.7044754
  74.6126556  26.9074726  10.5215311  75.0134430  26.0888367  10.2292328
  74.3555908  26.7380600  11.4278688  72.5402908  40.2890930  75.0266571
  71.7812729  40.8187599  74.7825623  73.2916412  40.8615379  74.8717041
  14.3453836  50.2131348  41.6583481  14.2921581  50.8208847  42.3959351
  13.4636145  49.8480415  41.5847168  71.8845596  66.5142822  87.9400177
  71.3824234  67.0410004  87.3181992  71.2382431  65.9289093  88.3347931
  66.5314102  47.2810936  55.2002640  67.1233749  47.9981995  55.4273376
  65.9650726  47.6444664  54.5194893  81.3404236  49.4208183  86.5266724
  81.5148773  49.7968941  85.6639023  80.5683899  49.8911362  86.8413010
  78.9852905  68.1458969  14.4755735  79.4312057  67.3042450  14.5705271
  78.3277130  68.1483765  15.1711407  69.3777161  46.7016830  83.3975906
  69.0483780  45.9141350  82.9645386  69.5757141  47.3042145  82.6806641
  45.9138069  42.2014236  82.1185913  46.6233711  42.2062683  81.4761505
  45.2867851  41.5633430  81.7781067  49.6224098  66.6285706  12.5551624
  48.8339958  66.4929123  12.0295849  50.3396339  66.6043091  11.9217300
  58.6570969  52.6546326  46.4243507  59.2241364  51.9328804  46.1527405
  57.7686882  52.3158226  46.3140335  70.1671753   7.8817215  87.0451660
  69.6334381   8.6723433  87.1243591  69.9712524   7.5471382  86.1700134
   7.8297138  32.2438278  57.9859009   7.0280938  31.8102093  57.6933022
   7.6413550  32.5143738  58.8845406  55.5386620   3.7583899   0.3828814
  55.7449646   2.8717103   0.0871264  55.4531631   4.2661953  -0.4239987
  22.4301929  64.7708969  47.6747971  22.3738232  64.7550049  46.7193909
  23.3289108  65.0452652  47.8571701  23.0206108  25.8486042  30.7022572
  23.6117897  26.4759407  30.2860966  22.2278595  26.3524265  30.8864861
  43.9019203  64.7516708  79.3385315  43.2753448  64.0319214  79.2637558
  44.7074928  64.4091415  78.9512863  31.7428818  49.0809441   7.8028173
  31.3599987  49.4282417   6.9972005  32.5618248  48.6725655   7.5221286
  86.7010345  57.3257256  21.5331059  86.4726715  56.4367599  21.8048172
  85.8859406  57.8198318  21.6208630  43.8182220  36.8133049   9.0685034
  44.4140930  37.1610451   8.4049931  44.3600502  36.2215424   9.5904894
  84.5812073  52.4186020  23.9386177  84.7190475  52.7321892  23.0448093
  84.0835037  51.6077080  23.8338680  30.4254398   8.7191715  85.6892776
  30.0210686   8.0218449  86.2054672  30.2968197   8.4493952  84.7799377
  40.1802177  57.2694588  73.9379425  40.3678513  56.4483032  74.3926163
  39.7720718  56.9998245  73.1151733  12.9483175  33.8533936  65.8852997
  13.1680250  34.7828827  65.9486160  13.0129375  33.6550980  64.9511032
  33.9447327  60.2374268   6.9710069  34.4787598  60.9734459   7.2698774
  34.0834694  60.2096939   6.0243206  19.5867805   0.8172415  70.1812210
  19.2601986   1.1477714  71.0180740  19.2643223   1.4442109  69.5337906
  63.2373734  67.5631256  79.4039459  63.7769470  67.8041306  78.6509552
  63.0949821  68.3869476  79.8700638   2.2000968  51.7595711   8.5792294
   1.9749686  51.1276894   7.8963861   3.1029897  52.0109215   8.3847055
   5.7452960  12.1248178   4.8610125   5.7224803  12.2074909   5.8143625
   6.6097894  12.4523592   4.6128192  48.4279442  55.0173073  30.1653652
  48.0508461  55.8784676  30.3454609  49.3686256  55.1783867  30.0918236
  48.1234207  68.2505951  54.0873032  47.3610992  68.1846161  53.5122032
  47.8915100  68.9351959  54.7148132   2.9710610  55.7418785  38.0943375
   3.9203877  55.6199455  38.0824089   2.6149509  54.8553734  38.0349503
  17.1220589  41.9748459  76.2956848  16.9067116  42.4373970  75.4858017
  16.2977810  41.9459610  76.7814407  66.5028381  65.6933899  61.0416031
  67.1543198  66.3946609  61.0464859  65.9822083  65.8446350  61.8304672
  18.5461292  16.3443565  69.2899094  18.5930557  15.3957539  69.4089966
  19.1906185  16.6950932  69.9046021  77.5438461  35.7265129  48.8274727
  77.5294571  36.5983963  48.4326935  77.0875702  35.8339195  49.6620407
   1.2421499  60.9363518  32.8998108   1.8667656  61.5518341  32.5160561
   1.6135874  60.0732117  32.7174530  31.5500298  50.2913666  31.1324844
  32.1367836  51.0399475  31.2400818  30.7221928  50.6754875  30.8437443
   8.7482157   9.2094765  70.7046127   8.8673429   9.0426025  71.6395950
   9.3437424   9.9339075  70.5128326  16.6321602  55.5565109  38.1716194
  16.6215019  56.2915688  37.5585861  16.5637264  55.9637947  39.0351410
  44.0662155   8.7906752  78.5961838  43.2025681   8.8896265  78.1954880
  44.6740150   8.7843580  77.8567429  52.3187523  55.7963371  52.0625839
  52.3597794  54.8578606  52.2464676  52.2270584  56.2052422  52.9231758
  54.1789055  60.3702545  71.9387360  53.5070152  60.7586632  71.3784409
  54.4794426  59.6012535  71.4544296  43.5675240  15.0277538  16.2143288
  43.9363480  14.2432823  16.6202888  42.6468163  14.8110905  16.0674000
  79.6106110  45.3474121  31.0646343  79.7303619  44.4800072  31.4512825
  79.5720444  45.9407616  31.8147545  77.4289017   1.3944457  81.9823837
  76.5397949   1.6515772  82.2265396  77.6165085   0.6318749  82.5296707
  12.4062586  57.9612617  47.2335510  12.7289724  57.8840332  48.1313934
  13.0981617  57.5753975  46.6963234  18.0448895  10.1653929  80.6411743
  17.8095837   9.2682943  80.8779755  17.2271500  10.6564884  80.7209091
  38.1577644   3.7079654  10.1258535  38.6589127   4.5225630  10.1647463
  37.3816910   3.9285638   9.6108017  58.1181221  61.6149178  58.8100967
  57.8870087  62.5167961  58.5877609  57.3011703  61.1264496  58.7090263
  85.4187241  23.1307964  74.1370010  85.6468353  22.4723511  74.7932358
  85.0548935  22.6271954  73.4088135  14.9717655  65.9418259  86.8239136
  14.2422314  65.8892441  87.4413605  14.6460247  65.5151367  86.0314102
  54.7119980  41.9244804  59.3307915  55.5900955  41.8594589  59.7062225
  54.1266403  41.6758347  60.0461693  25.4969921  54.4210510  38.9867134
  25.3315945  55.0211105  38.2595253  25.6414089  54.9926491  39.7408066
  79.8439636  69.6591415  79.2462845  80.2593460  70.5110550  79.3801880
  80.2110138  69.3406830  78.4216003  19.3958225  51.3044662  49.8538971
  18.4406757  51.3574486  49.8204689  19.6947594  51.9884911  49.2547493
  59.5626144   5.4640427  48.2532654  60.4336586   5.1802130  47.9758606
  59.3373871   4.8760009  48.9741745  69.4531021  15.9343443  42.7892570
  70.2302246  16.4529476  42.9974976  69.6552887  15.0578632  43.1165695
  44.8271294  52.4331627   5.4726458  44.4834213  52.6776695   6.3318968
  44.7350578  51.4809608   5.4399595  18.5465298   1.4427638  27.6094761
  19.3474388   1.3851200  28.1304874  17.9122276   0.9064780  28.0851765
  55.5628624  64.4442291  18.6704063  56.3553581  64.3855667  18.1367950
  55.8726006  64.3463745  19.5708065  32.4495163  61.8678551  39.7013741
  32.1522446  62.7777214  39.7000465  33.2249985  61.8700676  40.2624893
  15.7134342   1.3864990  11.2920084  15.2782145   1.9901843  11.8939886
  16.1019249   1.9522126  10.6247187  16.9460163  45.7639160  40.4322586
  16.8214970  45.4872093  41.3400879  17.6683979  46.3908005  40.4698792
  55.2248726  54.9942856  75.5080032  54.4839630  54.5721474  75.9428406
  54.8238220  55.5771790  74.8633041   1.4398235  51.7575531  74.8649750
   1.2817162  51.0623894  75.5037155   0.5923628  51.8896141  74.4400024
  85.7526321  10.3628492  43.6753235  85.2428284  10.5620375  44.4605980
  85.1573792   9.8523455  43.1264229   8.1893196  19.9869938  66.8727798
   8.1424465  20.1793766  67.8092728   8.1398964  20.8440628  66.4494324
  74.7026215  45.4804077  66.2113419  75.1572418  45.2487068  65.4014816
  75.3542633  45.9596405  66.7231293   5.8515472   1.0581305  12.9257202
   5.1539989   0.4054599  12.8650646   5.6060905   1.7307673  12.2904701
  26.2909603  48.2107544  43.7635612  25.9494247  48.8811073  44.3553467
  27.1031208  48.5844612  43.4215546  15.4277849  37.1491699  64.2195816
  16.0317631  36.6247673  63.6938019  15.4300518  38.0095520  63.8000870
  57.0571785  34.3719978  27.3469238  57.8311539  34.7732277  27.7421513
  56.4605789  35.1042786  27.1917820  54.7916908  67.6693039  79.8721466
  54.4728088  67.3530731  80.7174530  54.8938484  66.8779526  79.3434143
  55.6496887  41.0666275  23.6913815  56.0552826  41.5298119  22.9584484
  54.7120056  41.2285309  23.5875969  73.9505692  64.0561218  29.2065830
  74.6711884  64.6814575  29.2833900  73.6513519  63.9238205  30.1061382
  21.2211647  67.5483170  44.3146439  20.6768608  68.3074875  44.1057854
  22.1196823  67.8677597  44.2318535  28.9562225  48.8719177  54.8086853
  29.3341331  49.2968521  55.5786514  28.8573780  47.9551048  55.0654221
  79.3392410   9.9990568  13.5121498  80.0101242   9.4240723  13.1439838
  79.3643494   9.8246517  14.4529924  52.2561760  69.3985062   2.8208661
  51.9539757  69.9379807   2.0901999  52.0505600  68.5015411   2.5574162
  56.8158646  19.0609798  39.9097443  55.8791618  18.9812946  39.7295532
  57.2244568  18.4006424  39.3500671  34.7032738  49.4059525  34.6524887
  35.1955986  48.6000023  34.8083572  34.9007530  49.9574509  35.4095116
  52.9288101  37.7596245  58.0564194  53.1167297  38.5548630  57.5579071
  52.1314163  37.4102936  57.6584663  80.8944168  23.0025940  78.3255692
  81.5039673  23.6822128  78.0378265  81.4530334  22.3269176  78.7098160
   9.3960295  34.5173569  56.5102692  10.0347452  33.9823532  56.0390549
   8.9058962  33.8913040  57.0432434   8.7490683  52.7528343  28.9204369
   9.0341511  53.1207542  29.7568550   8.5533037  53.5162811  28.3772430
   9.4909391  51.3143463  44.8848877   9.5804539  51.0876007  43.9592476
  10.1380892  50.7666969  45.3293037  72.9179230  18.8225822  88.5862579
  73.7656097  18.5082989  88.2717972  73.0828476  19.7256660  88.8573227
  59.8918304  52.9110184  40.5547829  59.9054794  52.0805550  41.0305786
  59.1585197  52.8259468  39.9454842  37.1469727  31.9790783  77.0955505
  36.2200470  32.1081429  77.2965012  37.3323402  32.6128960  76.4026260
  49.6034927  50.9171219  66.0578918  50.3601074  50.9330597  65.4717865
  49.6652527  50.0734596  66.5058365  32.9362793   7.6302056  12.9572201
  32.9336014   6.9083080  13.5857811  32.0111122   7.7858000  12.7672386
  32.3411827  64.6514206  26.2466145  31.7601967  63.9001579  26.1270275
  33.1849747  64.3588715  25.9021435  51.5998459  70.0006409  21.8195896
  50.7858276  70.3962555  22.1311874  51.7036514  70.3360901  20.9291210
  52.9102364  55.4583511  40.7365875  53.1554756  56.3561554  40.9602699
  52.0177116  55.5310402  40.3984261   7.7433906  64.3318710  29.8704033
   8.7002363  64.3316574  29.8443508   7.4797306  64.5813370  28.9846954
  31.0391502  41.4042587  45.3978348  31.9178677  41.4915276  45.0284157
  31.1658115  41.4983788  46.3419380  81.0736542  20.5243950  67.6880035
  80.3062592  20.3051891  67.1595306  81.2440109  21.4457550  67.4922791
  52.4438934  50.2243805  44.5483894  52.5970840  51.0105743  45.0724754
  51.5233421  50.2826424  44.2926178  67.4502411  32.7183647  52.0270882
  67.1691818  32.4899826  51.1410408  67.7374802  31.8887787  52.4085541
  45.5411530  34.4492874  88.2691650  44.6659012  34.8153038  88.3964462
  45.6373787  34.3834114  87.3190918  10.7836676  31.2383938  10.7130671
  11.1231441  32.0337639  10.3027334  11.0748653  30.5297985  10.1391935
  77.0966949   5.8458695  44.1602287  77.8681107   5.3151441  44.3589401
  76.3745270   5.3900585  44.5925980  17.3028069  53.4652939  61.4300995
  17.9655628  52.8457870  61.1248131  17.6115017  54.3173943  61.1220970
  14.0673847  52.2643127  75.3061142  13.8813896  52.6226730  74.4382324
  13.6969576  51.3819389  75.2853165   8.9785147  70.6213303  46.7271614
   8.2200155  70.0388565  46.6866837   8.7112055  71.3972549  46.2345047
   0.9726511  47.7408676  63.3540764   0.9170514  47.7008858  64.3088226
   0.2560041  47.1845169  63.0489159   5.3329244  41.1701546  79.8233490
   4.4366322  41.3745880  79.5567093   5.7349672  40.7915993  79.0415039
  31.8704586  35.7802963  78.3538818  32.1485062  35.1800537  79.0457153
  31.8868752  35.2508850  77.5565872  69.3131332  11.9937420  48.9587708
  70.2305374  12.0343494  49.2288551  68.9253235  11.3283987  49.5272369
  73.0860977  54.0796280  77.8708420  73.9847031  54.3986626  77.7873917
  73.0564423  53.6708336  78.7358551  55.2487450  45.7509499  71.7517090
  55.6177139  45.1385422  72.3881454  55.9863701  46.3054504  71.4974136
   6.8317823  37.0762062   1.9738766   7.3011994  37.1079521   1.1402872
   6.2880430  37.8639755   1.9727112  74.5519409  48.9864731  56.3735161
  75.4465561  48.8074341  56.6630707  74.2399597  48.1499367  56.0284081
   2.9682450  28.6942616  89.0453033   3.9168425  28.5682011  89.0677490
   2.7394440  28.6261406  88.1183472   9.8541307   1.5319805  79.6429596
   8.9153118   1.3485905  79.6080246   9.9895172   2.2142870  78.9854202
  49.5513268  43.5965233   4.7429333  48.7685509  43.3761978   5.2478580
  49.8268051  42.7665253   4.3537731  45.9368210  32.3978119  66.4201050
  45.5632095  33.0589905  65.8374481  46.8360672  32.6902008  66.5687485
   1.3300222  50.2893181  10.9407730   1.4014902  50.8369675  10.1589785
   2.2051780  49.9185905  11.0543280  25.9420280  64.4687271  43.2483673
  25.7111588  63.7681656  42.6383286  26.1720924  64.0143967  44.0588531
  56.2925262  21.1709461  -0.0008548  55.3984070  20.9593163   0.2674686
  56.5318604  21.9254646   0.5373386  20.2876987  55.0682564  73.5371323
  20.1785393  54.5350723  74.3245544  20.9958897  54.6413002  73.0550537
  44.8359947  27.1153545   6.3105397  43.8838158  27.1927891   6.3704805
  45.0302353  27.2599964   5.3844829  71.6266403   3.2886987  46.9011345
  72.3203964   3.9383225  46.7874527  71.9069901   2.5434225  46.3699150
  33.0933990  49.7661629  22.2665577  32.5105705  49.0278893  22.4440327
  32.7065353  50.1991768  21.5055943  60.5099106  13.8248081  79.4734726
  59.8452759  14.2877665  79.9835358  61.3416634  14.0948591  79.8626938
   5.8289089  29.1295319  32.8385353   6.1112237  29.4335003  33.7011681
   6.5937915  29.2573185  32.2774162  85.8363266  20.9681568  21.1642170
  86.6692581  20.5231285  21.3204479  85.9580383  21.8416958  21.5361652
  85.0933304  39.4491501  78.3689651  85.4547577  39.8687782  79.1496811
  85.0930099  40.1385498  77.7049103  65.7742462  31.6309872  86.8291245
  66.0763931  32.2902718  86.2043915  66.2384033  31.8389282  87.6400223
  60.7171288  61.4634857  58.8810883  60.9182587  62.2090302  59.4467239
  59.7666206  61.4947891  58.7724991  29.2371483  23.8435631  86.4116058
  29.9192734  23.1824188  86.5291977  29.7166157  24.6583538  86.2617416
  23.1597042  33.3366318   9.6114035  24.0680637  33.1209145   9.4002590
  22.6748466  32.5303841   9.4350300  72.4865646   9.5613947  61.9064713
  72.0243301  10.2189569  62.4262581  71.8879852   9.3606968  61.1869926
  28.4145374  70.4386749  36.2269859  27.9652100  70.6288834  37.0504913
  28.3503418  71.2516403  35.7257881  36.2358665  22.5911808  12.2786045
  36.4113007  22.4471741  11.3487024  37.0534210  22.3537331  12.7161570
  60.8397636  31.3913422  23.2452869  60.4413986  30.6907501  23.7617226
  60.0985603  31.8405533  22.8390064  32.3605843  13.8053741  11.1328583
  32.4331856  14.0740795  10.2170210  31.6868801  14.3789444  11.4980650
  70.7054977  68.6389465  85.6822662  70.0057602  68.4942474  86.3191833
  71.0136948  69.5270386  85.8626709  59.2950745  62.6804924  37.2824440
  58.8620567  62.2696953  36.5341301  59.1508102  62.0714302  38.0066452
  76.8464661  35.3021622  82.4614639  77.7157822  35.5363464  82.1363907
  76.6216125  36.0046616  83.0715179  82.0836182  60.6064110  81.9641495
  82.1918106  60.3776588  81.0410080  81.9268188  61.5506744  81.9601364
  40.5968857  69.4839172  53.8309212  41.2911148  68.9916077  54.2689972
  39.9952202  69.7272339  54.5345039  10.9404707  19.3571701  45.8121033
  10.0100269  19.3083172  46.0314636  10.9592285  19.3998260  44.8560371
   6.0576324  70.8029404  61.2088585   5.2261257  70.5485153  61.6089783
   6.1941061  70.1614914  60.5116158  42.3589020  63.2573700   2.6666434
  42.4184074  63.5390854   3.5795105  41.4715195  62.9089012   2.5808840
  29.7952385  59.4443169  53.1251259  29.0159550  59.3106194  53.6646385
  30.4658985  59.7380676  53.7416954   1.4005758  45.6559868  21.9674301
   0.9114007  46.4742813  22.0530472   1.7880903  45.6989403  21.0932331
  10.7746344   8.3637638   5.1496053  10.5313063   7.5831490   5.6472635
  10.1820402   8.3629465   4.3978982  38.1970024  15.7970181   2.9239364
  37.4356499  15.4723501   3.4047332  38.9121170  15.2185173   3.1888549
  68.2793884  51.1711121  87.8915176  68.0157623  50.4269142  87.3503189
  69.1862717  51.3425026  87.6377029  39.1881104   2.6505406  20.8703594
  38.2635231   2.8368363  21.0336418  39.6154213   2.8017259  21.7134361
  69.0321655  32.2460403  37.5951614  68.5620956  31.5611591  37.1195450
  69.9449921  32.1403465  37.3272057   6.7455812  19.8488026  29.5644531
   7.3934865  20.0205574  30.2477913   6.3444877  19.0175514  29.8181782
  21.6230164  57.4011459  57.8002892  22.0473576  56.6439781  58.2038574
  21.8258152  57.3208237  56.8682747  86.6054306  37.7654305  14.7833900
  86.1046219  37.9653206  13.9925241  85.9643631  37.3829994  15.3825665
  82.1457291  59.7909737  33.9790306  82.5624771  60.2520714  33.2510605
  81.5191116  60.4212570  34.3344612  56.8098259  31.6349525  67.4006500
  57.0416908  31.3339462  66.5220871  57.4695320  32.2964478  67.6090698
   8.0907774  40.4217873  21.6291771   7.4398394  40.5565720  20.9404507
   7.8383584  41.0339203  22.3204155  54.6594086  69.7408142   1.5871567
  54.5241470  70.6823959   1.4805918  53.8765068  69.4368362   2.0463889
  50.8818665  51.3474159  52.8223038  50.0802956  51.1639481  52.3323479
  51.5791588  50.9564285  52.2958603  44.6656685  50.7268333  33.1291199
  45.0184517  50.5405540  32.2590179  44.3735046  49.8760490  33.4562912
  76.6946945  50.4677696   3.2346606  75.7548294  50.4395142   3.0555379
  77.0362320  49.6606102   2.8498509  15.3083782   9.3251324  50.4994888
  16.0073948   9.2866201  49.8467102  14.5025063   9.3712606  49.9850235
  42.3122635  20.6146660  70.1129074  42.5113297  20.1894875  69.2787476
  41.3576698  20.6843014  70.1244507  77.3575516   6.6282115  72.9485931
  78.2235641   6.2329798  72.8483505  77.1689987   6.5577707  73.8843918
  53.1406975  61.4050369   3.3755820  53.1462784  62.2994499   3.7165029
  53.1787224  61.5108032   2.4250038  21.8859863   3.4668462  28.0410767
  21.7013569   2.5277920  28.0590019  21.3587437   3.8007956  27.3153191
  29.4900436   2.9769454   3.4214392  29.6378040   3.6519766   2.7590714
  28.9378242   2.3289382   2.9839766  46.2991638  44.7999916  40.3711281
  47.1767769  44.5354843  40.0953293  45.7849998  43.9932098  40.3400307
  25.8669529  59.8984985  65.6100616  25.6637974  60.5717239  66.2594681
  26.7527981  59.6114731  65.8317032  47.3253975   6.1895475  50.9026260
  46.7281837   6.8774552  50.6087723  47.2260818   5.4928775  50.2537651
  73.1073685  21.7908783   5.7221808  72.3415146  22.1044445   6.2031956
  73.4005508  22.5496788   5.2177052  68.3185883  14.1488924   4.2767391
  68.9927597  14.7486629   4.5961270  68.5294113  14.0222960   3.3516655
  59.5200958   7.3002896  83.2609711  58.8091583   6.6854768  83.4420929
  60.2230263   7.0350857  83.8540878  18.1711330  37.5363197  77.7451553
  18.2399292  38.4906731  77.7185059  18.6962147  37.2375145  77.0027008
  84.8424988  22.1278934  31.9195652  85.4791870  21.5670471  32.3626328
  84.3978577  21.5454006  31.3037491  41.5099945  41.9967308   8.7905331
  41.2988243  42.4796906   9.5895262  42.0107651  41.2394066   9.0937195
  33.1588364  44.5313759  61.7435913  33.9916878  44.8467407  61.3926926
  33.3964348  44.0750847  62.5507965  34.8305283   5.1458831  13.6881409
  34.1531105   5.4708662  14.2812023  35.3115463   4.4996672  14.2051144
  42.5538635  59.9862900  25.8415966  41.7995872  60.3568230  26.2998638
  42.6379890  59.1009560  26.1956253  70.3972473  67.9506149  51.5967865
  71.3093796  67.6702042  51.5218849  69.9981308  67.6918259  50.7661476
   5.7982163  53.4655533  49.4243813   5.6422935  52.7596321  48.7970085
   5.5157852  54.2582016  48.9681206  84.4060516  68.9821548  17.0425205
  84.2130814  69.4135132  17.8749409  84.4606323  68.0520020  17.2617607
  73.7094955   1.3946537  64.2535782  73.6638184   0.8007284  63.5043106
  74.6124420   1.3212912  64.5626602  43.6907463  28.1718197  66.3379974
  44.4514694  27.9622192  66.8798447  43.8463097  29.0692482  66.0436325
  41.6840782  55.5061607  39.6524620  42.1466255  54.6747437  39.5474625
  41.6538353  55.6455498  40.5989723  69.5394897  44.3738556  32.2692604
  69.7071075  43.4442558  32.1143875  70.1000290  44.5977821  33.0121498
  32.2437401  60.2150726  54.6374245  32.5029373  59.6232262  55.3436546
  32.5581627  61.0746078  54.9177246  81.2492294  49.3320618  71.8080521
  80.5220108  49.9337730  71.9672165  81.3236923  49.2932625  70.8545456
  48.4909172   5.2716012  80.4440079  48.5837517   5.5588727  81.3523560
  47.8831139   5.9003940  80.0548782   6.1252398  31.3165245  38.9743805
   5.4950662  31.9632721  39.2919197   5.7124786  30.4717445  39.1538467
   1.4594165  31.5612431  20.3497581   2.3448722  31.6265049  20.7074471
   0.9432463  32.1727180  20.8750210  57.4801865  29.0087185  81.3245316
  56.8931084  28.4580822  80.8064804  57.7417641  28.4544525  82.0597839
  67.3682327  41.3458176  72.5721359  67.3517075  41.5481377  73.5075684
  66.9195251  40.5032692  72.5013580  57.2104340  69.6849518  69.4882965
  56.5435829  69.1338272  69.0786514  57.0517540  70.5586166  69.1308670
  62.1862755  53.7119331  39.1892014  61.3435745  53.5676575  39.6196365
  62.1300316  53.2077827  38.3774757   0.2666873   8.7075462   4.7903571
  -0.2963948   7.9938154   5.0899534   0.2552395   9.3395252   5.5091782
  17.2422771  66.6269150   4.2780609  18.0316238  67.1001358   4.5411644
  17.5683441  65.8636627   3.8012438  24.1247616  49.0881424  22.2882118
  23.2196026  49.2911797  22.0522079  24.0790253  48.2195358  22.6877861
  73.4435272  47.1892090  28.1494331  72.7970505  47.5477715  28.7574902
  73.8479004  47.9586487  27.7485886  67.9548111  35.6556168   8.1716290
  68.1508942  35.5046654   9.0962896  68.5694885  36.3391991   7.9049377
   2.9820008  24.0981617  65.5868759   3.3150630  23.2021027  65.6356735
   3.2740762  24.5069447  66.4016266  28.3216381   1.6419449  61.9321365
  29.2635498   1.7358751  62.0742989  28.1231537   2.2583804  61.2272644
  28.2508411  57.9021530  14.2223673  28.3197994  56.9551125  14.1015530
  29.1489639  58.1884117  14.3886805  10.5880480  47.0522957  46.2301254
  10.7506742  47.6658669  45.5136642  11.4601097  46.7725754  46.5085106
  56.3407440  24.9040794   9.4271421  55.4720383  25.3028393   9.4778671
  56.4674683  24.4962463  10.2837906  21.3729477  46.9458237  64.1479263
  21.3336544  47.5823326  63.4341049  22.3084621  46.8290482  64.3134766
  65.0631485  24.6121998  14.8152771  65.5109558  25.4498100  14.9340439
  65.1615219  24.4180660  13.8831472  59.9149246  50.9908180  83.0760040
  59.6001930  51.8757744  82.8915329  60.3516998  50.7188416  82.2688599
  75.5997086  26.9642849  34.6852837  75.6635361  27.8650093  34.3677139
  76.4316330  26.8084145  35.1323128  32.5975647  43.5947418  85.3088150
  32.7661972  42.7921944  84.8151474  32.2974854  44.2220001  84.6509933
  11.0736885   8.1377401  17.7316551  10.4212999   7.8886747  17.0769901
  10.8284807   7.6438804  18.5140915  28.0721912   6.3929820   6.5218501
  28.7975998   6.1139293   5.9631510  28.4343414   7.1078367   7.0453601
  68.6625824  13.9004717  63.4849281  68.0365677  14.4072962  64.0021057
  69.4301224  14.4680538  63.4144745  38.8125420  68.2586365  79.3589706
  39.7573738  68.2893753  79.2087097  38.7175179  67.7990112  80.1931992
  82.5014648  63.3584518   4.1964555  82.3081589  63.1053925   5.0991335
  82.4982071  64.3155441   4.2100930  74.7214279   0.3979866  27.7102280
  74.3989944   1.2638047  27.9604816  75.4272461   0.2166641  28.3308468
  59.6015320   7.2994227  43.3175049  58.7864227   6.8566308  43.5536423
  60.0747299   6.6613255  42.7835121  45.7112846  56.6886673  46.2191734
  45.3701706  55.7982712  46.1351089  45.8277321  56.9867134  45.3170433
  37.2365189  45.5773354  78.2758636  36.3510551  45.7166252  78.6116943
  37.2463913  44.6610184  77.9992752  69.0435486  22.0376625  39.9316406
  69.0236893  21.9294128  38.9807892  68.1392517  21.8898201  40.2084656
  56.3505554  53.5426903  52.0064240  57.1887970  53.8113441  51.6303902
  55.6938095  53.9804688  51.4648819  34.0538216  53.4030342  40.7845726
  33.7469101  54.3062401  40.7054672  33.5251198  53.0313988  41.4906845
   4.6153965  35.6739082  85.8336182   4.0226617  36.3503151  86.1613007
   5.4139752  36.1475334  85.6008377  13.5810165  49.4389725  15.2372274
  14.4019308  49.9239006  15.1525297  13.7805042  48.7366066  15.8561935
  79.7309418  30.5520420   7.8769250  79.0885239  29.8451557   7.8148627
  79.3264389  31.1926079   8.4619770  54.0715714  62.5536652  26.5410309
  54.0424080  61.9665146  25.7856293  54.9985313  62.7709427  26.6398582
  79.8473816  68.5576019  76.3779526  79.7510757  69.4387817  76.0167160
  79.1709290  68.5001297  77.0527420  72.4654617  35.2113838  88.0315475
  72.9476089  34.6541405  87.4206161  71.6095734  34.7909737  88.1148148
  84.9264984  39.7179527  67.6006699  84.2085495  39.7432480  68.2332306
  84.8293381  38.8728905  67.1617432  43.8387489  24.3672466   1.7984238
  44.3110237  23.5614700   2.0079777  43.5135918  24.6806736   2.6423836
  72.5444641  66.3601151  66.4729385  72.0520020  65.8509979  67.1167679
  73.0988617  66.9376831  66.9976120  75.6812668  13.3480425  40.6174202
  75.9027176  12.4389639  40.4155159  76.0977478  13.5138512  41.4631615
  54.6269150  30.5873890  10.1342850  54.7543564  30.4557362   9.1947861
  54.7611580  29.7207832  10.5179567  83.8254852  30.3149185  13.9451237
  83.5687714  29.3927860  13.9447403  83.6594086  30.6101437  13.0498629
  22.4910736  67.5183105  31.6005764  23.3812294  67.4227600  31.2618675
  22.5410233  68.2642899  32.1982841  11.5908203  13.2814493  75.8143997
  10.7208033  13.5766010  76.0830765  11.7478991  12.4937515  76.3350601
  47.5236816  42.9227791  85.5806961  46.9463692  43.6694946  85.4214478
  48.2729836  43.2943497  86.0462265   3.0459020  43.8746910  65.5016403
   3.7781577  43.4471893  65.9458008   2.8682489  44.6539307  66.0283813
  39.2657547  37.9758148  63.7432938  38.4498253  37.8943367  63.2494774
  39.9102364  37.4975967  63.2215843   2.5030580  64.4167557   6.8289990
   3.1091845  64.6352005   7.5369005   2.1466885  63.5627632   7.0738001
   9.8686752  60.8274918  79.8989639   9.9661541  61.7794342  79.9221039
   8.9804192  60.6698380  80.2189255  73.3055038  69.1636276  54.6495056
  72.4151917  69.3749695  54.3685760  73.4384918  68.2596970  54.3641052
  37.7772675  36.6736603  75.8883896  38.5286636  37.0380554  76.3562088
  37.4485817  37.4008522  75.3598251  86.2202454  43.5606804  22.4741745
  86.3321457  43.1553421  23.3340645  86.8843002  44.2494888  22.4458332
  34.3418846  48.4978409  78.6851883  33.6447563  48.7124290  79.3050232
  35.1510849  48.6918259  79.1582565  47.4270592  37.1180458  52.6673622
  47.1491547  36.2428017  52.9374504  46.6697578  37.4779587  52.2056389
  76.9497070  31.3985100  35.2874756  76.2414169  30.9661198  35.7645493
  77.2063904  30.7669239  34.6155815  79.2576447  39.8987770  51.2369041
  79.4510803  39.2315903  50.5783653  79.7622986  40.6631432  50.9588737
  12.4328508  66.7948990  68.7195892  12.1950989  66.4801865  67.8474274
  12.8481140  66.0423279  69.1408081  53.9786797  31.1989460  50.4110794
  53.7377319  32.1099052  50.2427711  53.6623993  31.0275040  51.2980995
  52.5200577  11.6428699  28.8995113  52.2776146  11.9523001  29.7722683
  51.8110313  11.9460058  28.3323917  31.7824860  33.5433464  16.0155449
  32.1565742  33.0708961  16.7592373  31.5603218  34.4056091  16.3668003
  43.3621407  14.5004034  72.0298386  44.0309258  14.2654991  72.6730957
  43.5841789  13.9850349  71.2543869  73.1218567  69.6722794  28.4127293
  73.8721924  69.1967087  28.7691936  73.4614029  70.5464935  28.2211819
  48.6176338  70.9200897  43.3447723  49.1651497  70.1941147  43.6438026
  49.1585274  71.3791199  42.7021523  38.3116112  37.7784462  11.3812237
  38.2067375  36.9344139  11.8203564  37.9403076  38.4143715  11.9927483
  77.2827301  59.0624733  79.8615723  78.0823288  58.6131783  80.1354523
  77.3454361  59.1026268  78.9072723  32.9925652  68.4362717  74.0303040
  32.2433968  68.1677475  73.4984512  33.4848633  69.0330353  73.4666214
   6.9906011  61.2622108  43.0029030   7.6141057  60.8890724  42.3798103
   7.5344305  61.7414970  43.6280136  49.2263298  12.7156096  14.3432331
  49.5840454  12.0519238  14.9329720  48.7937737  13.3427935  14.9226866
  67.5222473  26.1308842  10.6774435  67.5284500  26.9095974  11.2340393
  68.3762054  26.1386929  10.2450972  76.8063431  70.4673767  37.6375885
  77.7632065  70.4881058  37.6521759  76.5800629  69.6057510  37.9877701
  19.4996243  36.8067818  75.5280151  19.8942814  35.9543953  75.3438492
  18.8177776  36.9036789  74.8632355  73.0418396  52.5651283  53.2954025
  73.1358948  51.6963959  53.6861610  72.6439133  52.4013519  52.4403801
  52.1497231  27.6563721  51.9542046  51.5376968  27.8371983  52.6676178
  51.7735786  28.1044464  51.1965904  52.9220924  30.4351635  62.4470596
  53.3718452  31.1676006  62.0257645  52.7175293  30.7534924  63.3262901
  21.8808289  48.6310539  30.9164867  22.6785202  49.1475029  31.0313988
  22.1393089  47.9177551  30.3328590  62.4594421  41.2283249  86.6242828
  62.9632568  41.1861229  87.4370651  63.0816460  41.5530434  85.9733963
  10.8661709  18.9035225   0.6443866  10.9007607  18.6611729  -0.2809792
  10.1296806  19.5118866   0.7052801  86.3614807  48.1222458  21.8007984
  86.9423294  48.8141670  22.1171646  85.8424377  48.5406723  21.1139641
   3.2529986   5.9180937  80.8347168   3.8573148   6.6450028  80.9851761
   3.5747418   5.5005984  80.0357132  56.6513901  54.0858269  19.6478977
  56.9374657  54.1148415  18.7349072  57.3112907  53.5506668  20.0887699
  65.2474518  47.9417686  26.6348419  64.4294052  47.4738464  26.4672737
  65.6601410  47.4548073  27.3481388  66.9177475   0.2016877  78.7995605
  67.3192291  -0.2491277  79.5423965  66.7443466   1.0862889  79.1214981
  49.4546165  21.5863209  30.8785706  49.6070976  22.1269932  30.1035500
  48.5087891  21.6302853  31.0189686  70.7402115  45.8561668  63.7376442
  69.9889297  46.0942726  63.1944008  70.3579712  45.6071472  64.5791397
  40.5949745  58.4052544  44.7127647  40.7260170  57.7294273  45.3778343
  41.1341133  59.1391678  45.0076065  18.1242123  71.3727646  36.0483017
  17.2560272  71.6033173  35.7176514  18.4186287  70.6649628  35.4750900
   7.7850895  28.4648132  56.4576225   8.4966583  28.5511665  55.8232346
   8.0894794  27.7942944  57.0691643  18.2961788  22.4417248  12.3604002
  19.1689377  22.8316402  12.4102821  17.7241058  23.0796585  12.7870226
   9.2136068  42.5031509  85.7060928  10.0718927  42.9074593  85.8330231
   9.3247042  41.6036263  86.0139008  71.1136856  31.1448669  16.0545502
  70.6532745  31.2187004  15.2186050  71.6634445  31.9273930  16.0951328
  72.6200485  52.4032288  79.9325790  72.5875320  52.3614159  80.8883133
  71.7330704  52.1770782  79.6526337  56.0533791   2.2276437  72.4022369
  56.5451927   2.0687375  71.5965729  55.8912926   1.3547453  72.7600174
  15.3027544  38.7690887  48.9946632  14.9824390  38.1675987  49.6668510
  16.1905212  38.4655457  48.8050232  46.1930733  11.3326206  62.6185646
  46.1687927  10.8788280  63.4610138  45.3803749  11.0742378  62.1838303
  52.4183273  50.9219666  73.8321381  52.9261208  51.7000542  73.6020126
  52.0811920  50.6000748  72.9961014  37.6357231   4.5301895  74.5741425
  37.2554436   4.0572743  75.3143921  38.2752113   3.9215963  74.2041473
  70.0684433  52.0539894  60.5929909  70.6260376  52.3344765  61.3186913
  70.6741257  51.9173851  59.8644905  35.5738831   5.4166708  64.5498734
  36.5223312   5.2880602  64.5614777  35.2520103   4.8917403  65.2827301
  20.3911762  49.5982323  16.7074833  19.8306141  50.2132111  16.2344055
  20.3204098  49.8658142  17.6237926   5.7588944  26.2768021  45.0743523
   5.8203244  27.0708351  45.6053619   5.6882515  26.5953312  44.1744728
  50.2776833  62.8180046  77.9354553  50.8612633  63.4971313  77.5971451
  49.6309128  62.6904678  77.2414398  14.9469328   6.9564896  67.2167435
  15.7658300   6.8314424  67.6963272  15.0164223   6.3664865  66.4662094
  25.0508137   3.9655244  81.0088425  25.6040993   4.3978853  80.3583298
  24.8339672   4.6557431  81.6355896  21.1370888  49.2522697  49.1025696
  20.6891708  49.9730873  49.5453186  20.4791718  48.5592041  49.0475082
  25.5434914  52.8242607  36.6894989  26.4071407  53.2241135  36.7917786
  25.0731068  53.0625458  37.4883690  71.4352264  50.7170944  77.1261826
  72.3455887  50.9695168  77.2803345  71.3062134  49.9410934  77.6715393
  78.3473053  11.5969725  19.5936623  79.1616287  11.4548426  20.0762615
  77.6943436  11.0833454  20.0691280  68.5131226   3.7134242  22.3032913
  68.8749771   3.5477431  21.4327488  68.3380051   4.6543994  22.3147697
  42.9577599  68.6272812  61.8741760  42.0323906  68.4502258  61.7051277
  42.9530449  69.3682098  62.4801750  43.7483444  47.7080650  55.6653595
  44.2978439  47.0473061  56.0868835  42.9137802  47.6583405  56.1314697
  59.4639282  26.9519711  29.6266689  59.5706062  26.6166153  28.7365074
  59.2442627  27.8762512  29.5096836  84.5613708  63.2507820   1.4462825
  84.3561935  64.1797028   1.3402587  84.1709366  63.0137520   2.2874765
  10.9080601  42.7045860   9.5759392  10.6216125  41.7927399   9.5238495
  11.5704889  42.7084427  10.2668829  63.4646645  56.5226707  49.4215889
  62.6727753  56.2747231  48.9444466  63.7431412  55.7176666  49.8582268
  46.3654175  54.7396736   5.0975380  46.7874069  54.0464630   4.5899787
  45.7748680  54.2761230   5.6913443  40.5890503  22.5388145   9.0960941
  41.1563072  22.0895691   8.4694929  40.3289680  23.3442612   8.6490555
  10.6551771  27.0298901  73.2275543  11.1157389  26.3286381  73.6883850
  11.1858778  27.1929665  72.4478149  62.5416069  68.3122101  83.2821274
  62.2483635  68.1665955  82.3826599  62.7184486  69.2518463  83.3272400
  43.5871239  31.0546551  65.0831680  43.5559082  31.5592327  64.2703552
  44.0919037  31.6013985  65.6852493  14.6785860  47.5620422  30.5191917
  14.2725859  47.7844582  31.3570023  13.9649601  47.1955681  29.9970169
  79.6663284  41.9734650  70.4017105  79.7737732  41.3184242  71.0913467
  79.0520706  41.5741539  69.7856979  47.4856148   9.8359251  67.1751404
  46.6336594  10.2605276  67.0745773  47.9888878  10.4361038  67.7253571
  66.2195282  30.3237114  39.1500778  65.3887482  30.7989845  39.1374130
  66.6185303  30.5610905  39.9871445  46.5084839  34.4284363  79.2753906
  46.5252457  35.3468628  79.0062408  47.1891022  34.3626900  79.9452133
  21.2004871   3.5621397  11.8899193  20.2631092   3.3853676  11.9693422
  21.3463974   3.6627028  10.9492655  77.8648300  27.4606953  71.6940155
  78.5167847  27.0735016  72.2781982  77.0541763  27.4557247  72.2029800
  20.8246975  67.3324738  12.2404814  20.6878014  67.3370667  13.1878309
  20.0979309  67.8481140  11.8909616  74.4580917   2.7633679  67.2540894
  74.6084366   3.7068028  67.1944504  75.2374039   2.3712652  66.8601990
  68.6341934  68.7473907  77.1759720  68.5736237  67.8858490  76.7632751
  69.0627823  68.5811844  78.0155640   0.6036257  57.7836227  46.5470657
   1.4726877  57.8468590  46.1508789   0.7693233  57.7874146  47.4898071
  43.0909653  67.0796661   5.8680072  43.8116875  66.4639587   5.7349720
  42.9546661  67.4781952   5.0084572  10.5677347  55.5796928  83.8805237
  10.9167013  55.7961578  83.0158844   9.6188688  55.5558929  83.7567520
  51.5217171  47.5248528   0.4475367  51.2523422  48.2991943   0.9415593
  51.0618668  46.7993393   0.8699123  20.9503670  68.2953873  61.9228287
  21.0399551  68.1387711  62.8628731  20.0095749  68.4085999  61.7874680
  11.4638243  57.3751183   6.0437379  10.7475786  57.2420006   6.6646271
  11.8502722  56.5062943   5.9340172  67.2037354   2.4401124  30.9444160
  66.4776306   1.8293711  30.8179111  67.6704865   2.1022520  31.7087593
  61.1266212  48.1161232  79.9044342  60.3687935  48.4491730  79.4238052
  60.8293152  47.2847557  80.2741241  11.3675661  55.7913322  37.5862999
  11.1976662  55.6240692  38.5133324  12.3182564  55.7203140  37.5004158
  82.8461380  71.2715759  83.2616119  83.6868515  71.0189056  83.6431808
  82.2648392  71.3812103  84.0141449  80.3987198  40.0201225   3.5638120
  79.5150604  39.8950233   3.9098406  80.4295502  40.9436035   3.3138802
  34.7695808  70.2327576  46.8881378  35.4978218  69.7466965  47.2749672
  34.1390572  69.5584488  46.6351967  77.5114059  21.2501259  80.2582474
  77.5645676  22.2031841  80.3295517  78.3843155  20.9426003  80.5025711
  33.9484901  27.6249466  74.5925522  34.1844902  28.2798672  75.2495270
  34.7785378  27.2084885  74.3605728  49.7916069  25.2567558  89.1694183
  49.5058098  25.3407230  88.2597504  49.7374535  24.3186665  89.3518677
  67.0501862  64.7258606  45.5154495  67.7060013  64.1922684  45.9642410
  67.4081726  65.6133499  45.5366707  18.1415386  50.7556686  32.2076416
  18.8775368  51.1295509  32.6921539  17.4167118  50.7591591  32.8328209
  33.7867737  31.0686455  15.3510647  33.6477165  31.4930592  16.1976852
  34.3049011  31.6982803  14.8497314  45.2661476  17.0714722   9.8623323
  44.4053879  17.4729481   9.7433949  45.4935188  17.2577782  10.7732782
  84.2755280  36.9758797  66.2620773  83.9988861  36.2328110  65.7258377
  83.4851990  37.2379036  66.7342453  23.5432739  20.8028793  72.9504013
  23.1181374  21.1786842  73.7212830  23.8539104  21.5606499  72.4549026
  82.0548782  18.3447018  66.5070419  81.7172470  18.4990101  65.6247559
  81.9042816  19.1695385  66.9687805  26.9964008   8.5788021  86.2521820
  26.1697330   8.9086456  86.6043930  27.6588745   9.1794281  86.5936661
  53.7626572  59.2714996  12.5493393  53.6148033  59.9456825  11.8861265
  53.5303802  59.6939697  13.3762608   1.6002392  34.6444893  67.7191467
   1.1908537  34.7371140  66.8588791   2.2691109  33.9711456  67.5948410
  46.8521080  44.2584686  26.8997211  47.4694901  44.2924118  26.1690235
  47.3069649  44.6979179  27.6182079  47.5710373  68.7023697  21.5039482
  47.9354172  68.3655853  22.3225040  47.5293045  69.6500015  21.6323357
  26.3747749  35.9553757  82.9971771  25.7622643  36.4722290  83.5205536
  26.7017441  36.5671768  82.3376160  16.0927658  31.4916286  89.1842270
  16.1631413  32.2023392  88.5469131  15.2956228  31.6889763  89.6760101
  18.2509441  45.4677467  19.6945057  18.9475536  45.8740311  20.2101612
  18.6389542  45.3361397  18.8294277  10.4188042   3.6409659  33.6452065
  11.2110052   3.1635365  33.8916016  10.7006683   4.2258964  32.9419022
  44.7851715  31.7507000  20.9542999  45.0059357  32.4710732  21.5446873
  44.3531494  31.1058121  21.5143967  61.7950706  28.4939728  40.7379532
  61.6065712  27.8455009  41.4163208  61.1546288  29.1895714  40.8869781
  51.1223259  56.3613396  29.9328346  50.6463013  56.7728043  30.6541710
  51.3501282  57.0868530  29.3514881  84.1793900  45.7225876  22.6116657
  84.5636597  45.9702187  21.7706890  84.5469513  44.8586044  22.7978287
   9.1211739  63.3220863   3.1631341   8.6724644  63.3582497   4.0078735
  10.0206223  63.5850563   3.3582473  79.7589874  14.8690987  14.7897797
  78.9425430  14.4570112  14.5072317  80.2227859  15.0647640  13.9756317
  69.4211502  30.6813831  64.8169250  69.0055084  31.4962349  65.0988617
  70.2299881  30.9609623  64.3881454  30.3757267  61.8404846   2.1688573
  30.0666656  62.5972404   2.6668882  31.3292351  61.9243889   2.1727486
  22.9507198  42.1148033  10.2578630  23.0817947  41.2492981  10.6450996
  22.7110424  41.9365196   9.3484678  64.1186676  10.9814472  22.2842083
  64.1675339  10.4384146  21.4974689  63.5808372  11.7298527  22.0256329
  56.8824501  69.1071854  10.9900913  56.4537964  69.9577026  10.8946085
  57.4958305  69.2281418  11.7149143  86.9215546  30.2450256  13.1562881
  85.9838409  30.4371700  13.1550808  87.2727585  30.7703228  13.8752813
  77.6250687  52.0099792   0.4263045  76.6786499  51.9618416   0.5612570
  77.9922333  52.0314178   1.3100258  81.1160202  53.7544632  73.3864212
  80.3588867  54.1814690  73.7872391  81.5507126  54.4506531  72.8938904
  22.6324444   1.0089892  12.0322924  22.4154053   1.9101781  12.2710066
  23.0241661   1.0795234  11.1617689  60.0326347  43.4228477   7.8677073
  60.8405991  43.1906586   8.3254337  59.6508980  42.5824242   7.6143389
  84.6862793   5.4966559  24.5920620  85.5622711   5.1732135  24.3817043
  84.2424850   4.7463660  24.9874649  83.8473358  30.4292049  87.0339127
  83.9432144  29.5395775  86.6939087  84.6734161  30.8599300  86.8141479
  53.1510315  66.5150757  62.7565308  53.7540779  67.1406937  63.1579857
  53.5969162  66.2308121  61.9586487   8.4573088  30.4870796  60.4423523
   8.4371653  30.6050262  59.4926605   7.9605832  31.2294197  60.7864876
  11.7109375  22.2495308  13.6257086  10.9163694  22.6654091  13.9602795
  11.4266844  21.7915173  12.8347244  45.6970787  23.0622139  41.7558556
  45.7354202  22.9114971  40.8113747  45.2448158  22.2933025  42.1029358
  75.9073944   0.1560342  86.0328522  76.4408112  -0.1362324  85.2937393
  75.0788727   0.4274800  85.6377563  54.9853096  67.6204224  64.3806381
  55.4008446  67.0567551  63.7280693  55.6774712  67.8011093  65.0166321
  57.4115677  23.9043312  38.1688194  58.0787048  23.2247772  38.0720291
  57.7198410  24.6229706  37.6167717  77.2424469  70.1557465  49.9873314
  78.0730743  70.4532623  50.3585129  77.4897842  69.4739075  49.3627090
  56.3350372  17.8343506  80.9540100  55.6590462  17.7835484  81.6297989
  56.1802979  18.6749840  80.5231705  64.8996124   5.4120836  71.8444977
  65.5569534   5.7793183  72.4354935  64.4121323   6.1720257  71.5265732
  64.4127426  31.1433258  33.7141075  64.8621750  30.3397713  33.9759102
  64.8284149  31.8307133  34.2346344  44.6096191  56.1686897  28.4302006
  43.9429245  56.7323723  28.0377560  44.1878586  55.3123245  28.5008469
  24.3581161   1.0628680  72.6061096  24.3842449   1.4745673  71.7423706
  23.8318539   1.6584845  73.1395187  35.7575417  55.1309814  67.3645706
  36.1624794  54.4966240  66.7730942  35.1503372  54.6125145  67.8925171
  23.8740826  55.4208412  17.0091267  24.6428204  55.9120522  16.7193298
  23.8102074  55.6067543  17.9459229  21.9042740  28.7857132  29.0379276
  21.0026684  28.5745068  29.2802696  21.9059162  29.7364120  28.9265690
  40.1674919   8.3483868  72.0404510  39.2514076   8.0726252  72.0091858
  40.6109848   7.7776089  71.4129486  35.1691628  62.4184723  30.8988190
  34.5918999  61.6565056  30.9478703  35.4474640  62.4495888  29.9834995
  85.0050049  66.5636902   8.2502413  85.9521255  66.5484924   8.1125555
  84.8898087  67.0444794   9.0698767  21.3762646  14.1609535  13.3924141
  21.2010975  15.0833340  13.2059650  20.8874989  13.6840019  12.7217007
  39.5937119  31.7461433   7.4353037  39.8033142  31.0950489   8.1049118
  39.5126915  32.5686913   7.9180903  76.4179306  42.7104530  72.2518387
  76.5390320  43.1226997  71.3964920  76.9557037  41.9194641  72.2147827
  28.0736389  19.1681767  86.6850586  28.2927399  19.3979187  87.5880737
  27.5266743  18.3864956  86.7627563  35.4291077  62.3906174  28.1614227
  36.1445732  61.9672089  27.6870098  34.9106941  62.8191681  27.4803772
  37.2892342  14.8762856  73.1742172  37.4585457  14.2474890  72.4726562
  38.0064545  14.7426481  73.7938690  27.4523449   1.9759833  75.2127075
  26.5997448   1.9720491  75.6477737  27.6601620   1.0504328  75.0846405
  25.8151665   9.3225069   5.5579224  25.9979401   9.5790100   6.4618206
  25.3468914   8.4912252   5.6348710  75.0257874  57.4657669  26.7149734
  75.3324585  57.3445129  25.8163738  75.7993622  57.3061333  27.2556496
  85.2651749  40.3652954  35.0136070  85.0564880  40.9678917  34.2997742
  85.7193298  40.9068222  35.6591492  76.6962357  37.4309464  24.0303631
  76.5672836  36.5645523  24.4163284  77.6403961  37.4899940  23.8843632
  82.9974442  66.1131592  54.5828705  82.7936478  65.1791687  54.6315155
  83.5196228  66.2854919  55.3663597  14.1027145  30.6472168  12.8370085
  14.2811518  29.8827076  12.2893610  14.2806110  30.3495235  13.7291765
  80.2949448  15.3455238  45.3301811  80.6593475  14.9480534  46.1210403
  79.3667908  15.1124287  45.3508072  14.4481640   7.2916880  85.1953125
  14.8385744   7.2164807  84.3245926  13.6540842   7.8082161  85.0579529
  83.0580368   7.4225774  75.3109283  83.9404602   7.6595364  75.0256119
  82.5700378   7.2931929  74.4976959  20.6222000  46.3183250  85.6998825
  21.0922375  46.3652534  84.8673553  19.8662148  45.7604103  85.5169907
  46.9618988  16.2966404  35.8883553  46.5205498  17.1119423  36.1265335
  47.7666206  16.2996464  36.4066620  34.3031273  40.6341896  16.6146641
  34.2786598  40.8854256  15.6913462  33.5645638  40.0343552  16.7193203
  83.6058197   2.1312771  28.9194775  84.4073792   1.7141360  28.6036701
  83.9115982   2.8377304  29.4883862  26.0141983  46.9002228  82.7785721
  26.0794601  47.0517616  83.7214432  26.1844635  47.7564621  82.3860168
  17.3090858   4.3474021   4.3830490  18.1092491   4.0317912   4.8030014
  16.6473064   3.6927745   4.6060815  41.3917961  45.5105247  58.7985802
  40.6884041  45.8449402  59.3550301  41.6411667  46.2567024  58.2533569
  50.7119522  19.0251389   4.5700693  50.0027809  19.6671810   4.6031184
  50.6086121  18.5126400   5.3718781  58.1073341  62.9223442  24.3954506
  57.4625893  63.6290779  24.4281197  57.9935646  62.5342636  23.5278778
  15.3408232   2.6825104  20.1096916  15.5587072   2.1451163  20.8712463
  14.7325001   2.1444843  19.6030331  24.1519279  29.8637543  77.5754700
  24.8864136  30.0140343  76.9803467  24.5074272  30.0456924  78.4453888
  57.0721321  48.4125786  40.9892731  56.3465958  47.8737030  41.3046188
  57.3118210  48.9550056  41.7406387  76.1349945  54.3958206  42.4819183
  75.2828903  54.1213760  42.8207855  76.5683289  53.5792236  42.2336845
  11.4234409  69.7788315  61.3933563  10.9521904  70.4536133  60.9046593
  11.3551407  68.9957733  60.8471146  65.9769974  10.0976610   6.4528327
  65.0513229  10.1479912   6.6912203  66.1086655  10.8279572   5.8482156
   5.4661880  52.7780533  31.6130447   5.8285799  53.1955681  32.3944435
   5.1971040  53.5074844  31.0546932  20.8192501   7.5758543  79.2991791
  21.6210079   8.0307055  79.5571060  20.2141609   7.7265902  80.0253830
  28.5752010   6.2072558  61.5891800  29.1301613   6.9420738  61.3278503
  28.8118572   6.0410361  62.5016479  48.0479164  69.1683426  57.0735703
  48.4340668  70.0279694  56.9057808  47.2939568  69.3498459  57.6346703
   9.8918419   8.5738668  32.5068703  10.1720867   8.0311241  33.2438393
  10.6745386   8.6618118  31.9629192  75.2342224  49.2053261  61.4930687
  74.8362885  48.4546967  61.9340210  74.5730057  49.8950462  61.5505371
  79.4699249  65.5352783   1.5094593  78.6863937  64.9910431   1.4311627
  79.4760742  66.0625992   0.7106340  74.9002838  61.3961563   2.8953104
  74.4455338  60.9322548   3.5983231  74.2153015  61.9055290   2.4622238
   9.2956305  25.6726990  65.1041031  10.2148924  25.4136925  65.1681671
   9.2810965  26.5809364  65.4059753  53.2286873  37.6210747  26.1893768
  53.2718811  37.6841736  25.2352352  52.3122978  37.8002243  26.4000206
  70.9829788  22.8357983  13.8051119  70.3783188  23.2783108  14.4007692
  70.7652359  23.1840248  12.9404974  71.3712006  59.5973816   6.3005595
  71.0093460  58.7494583   6.5580912  71.1451645  60.1835594   7.0227342
   2.1859605  20.6868877  41.8072166   2.1317067  21.4924603  42.3213577
   1.8635889  20.0046787  42.3961983  44.0387993   3.3476150  33.2720375
  44.1398773   4.1862369  33.7222939  43.4720421   2.8337007  33.8472862
  12.1717081  63.6760941  55.0823097  11.9186850  63.3899765  55.9600029
  11.8570957  64.5782623  55.0245056  25.4543705   3.7336311  16.6211567
  24.9335651   4.5117254  16.8200665  26.2418270   4.0745006  16.1969490
  34.1467667  71.2674103  43.0729790  33.8949852  70.3737640  43.3058739
  33.4363670  71.8123398  43.4115295  11.8869295  63.8442421  63.3703880
  11.1643457  64.4329758  63.1524429  11.4599543  63.0438538  63.6758385
  85.3413849  69.3015213  69.9503784  84.7459183  69.7420807  69.3441086
  84.9723282  68.4243851  70.0536118  75.1899033  25.8316994  74.4250870
  76.0483398  25.4593182  74.6267014  74.5981369  25.4263630  75.0589218
  59.8455200  68.6822128   4.4238534  60.6152573  68.8285065   3.8740056
  60.1287880  68.0289154   5.0635343  42.7976303  57.5998306  60.4956322
  42.3913269  56.8267784  60.1037865  43.7167130  57.5461388  60.2336464
  54.8076706  47.5621338  63.2395706  54.2099876  46.8876877  63.5622597
  55.1446266  47.9820976  64.0309753  49.2085838  41.0596352  23.5455036
  50.0066490  40.8434029  24.0277576  49.5062485  41.6198387  22.8287048
   7.5199308  26.1954746  26.9007816   7.5023780  26.2585659  25.9458237
   7.8973513  25.3336506  27.0769806  25.3009396  25.7733631  70.8586502
  25.9393063  25.5376320  70.1854935  25.8298569  25.9711246  71.6315536
  12.2147398   0.6080701  70.6423340  12.0780077   1.2973422  69.9923782
  11.8530006  -0.1794859  70.2359695  66.3411560  14.4099941  46.4842377
  66.2565536  13.5669813  46.0388145  65.4483414  14.6318579  46.7486115
  13.7403841  70.5498657  65.0052872  13.7354898  71.1361694  64.2486801
  14.4620523  69.9446411  64.8346329  77.7774811  14.7654600   8.0227842
  78.3371658  14.8521862   8.7944469  77.1848831  14.0447779   8.2364931
  28.1141834  66.8699265  66.7434769  27.6129246  66.4608994  66.0380173
  27.6453781  66.6276093  67.5420609  22.7706566  24.6892414  67.4820938
  22.7257309  23.8316250  67.9048309  22.6540108  24.5034084  66.5503769
   6.1453333  53.1096878  53.6434021   5.6167245  53.8864822  53.4606590
   6.9768167  53.4564667  53.9668427  63.3244972  35.7534561  15.1213064
  63.1866646  35.2096672  15.8968897  62.4458733  36.0364113  14.8679571
  78.4457245  47.4823380  45.7594299  78.1810913  46.9841957  46.5327721
  78.0663757  48.3509979  45.8927116  34.2184372  48.1045036  75.9494858
  34.2092781  48.3497238  76.8747025  33.3646011  47.6981392  75.8009491
  51.6987267  41.8675919  80.8876724  51.4366837  41.6648254  81.7856979
  51.2874908  41.1844368  80.3581314  60.4639511  42.9827957  53.4980621
  59.8460464  43.2228394  52.8075523  60.9188728  42.2134132  53.1555290
  40.0673599  52.8219948   1.0806706  40.8973083  53.2804451   0.9493734
  39.7943916  53.0691223   1.9642131  85.5927734  34.2477417   5.0872769
  85.6056824  35.0976486   5.5274162  85.4651031  33.6142502   5.7934079
  32.8305054  53.8287430  57.2942276  33.0858879  54.6427689  57.7282448
  32.1525917  54.0916939  56.6717148  14.2950172  64.5918732   9.7778988
  15.1301069  65.0094986   9.9887276  14.5366383  63.8119583   9.2783165
  62.9416733  70.7327271  33.1158714  62.5956459  71.1865845  33.8843193
  62.7697945  71.3296356  32.3875923  11.5804281   4.6528611  62.1473160
  11.3700361   5.5438471  61.8678322  10.7406597   4.1936359  62.1357880
  41.7442436   9.7393169  80.5856552  41.9194489   8.9927168  80.0128326
  42.1672783   9.5106621  81.4132996  66.9784546  59.3422585  46.8032684
  66.4763031  59.0252151  47.5539780  67.7906342  58.8362923  46.8274612
  52.9657135   5.3726645  56.1040916  53.3755951   4.9222093  56.8425484
  52.7577934   6.2442656  56.4407082  15.5205326  42.3636055  44.8536186
  14.6977282  41.8785820  44.9166756  15.6291599  42.7641487  45.7161713
  16.2843685  66.0413055  49.5936852  16.4016876  66.9912415  49.5841255
  16.2762623  65.7916641  48.6696472  62.0683784  59.3799171  38.8462639
  61.9568291  58.9596977  39.6990280  61.1953392  59.3616447  38.4542160
  58.5289764  65.1836777  31.9302692  59.0659714  65.9742966  31.8774567
  58.6745644  64.7390289  31.0952091  58.6508827  57.8914642  70.8118286
  59.5856209  57.8521271  71.0141907  58.5568161  58.6714630  70.2650299
   5.9961448  61.9160576  71.7168503   5.9781675  62.8431015  71.4791565
   6.9232106  61.7222939  71.8555450   5.5242867   4.0436172  21.8037739
   5.6958599   4.2881021  22.7131824   5.1104188   3.1824331  21.8612785
  34.7018738  58.1970596  55.4293709  35.1410141  57.3752823  55.2101173
  34.8347511  58.2955017  56.3721771  18.3300247  71.3741989   4.3222370
  17.4996185  71.6099243   3.9086030  18.1268215  70.5957184   4.8407955
  81.7656021  10.4784164  37.5757370  82.1898499   9.6233530  37.6472321
  80.8287430  10.2821932  37.5815430  38.7293282  51.4334488  50.9971237
  38.8513298  51.1490250  51.9029083  38.3572273  52.3123360  51.0701103
  83.3797302  21.4368095  11.0313778  83.8678970  20.8067684  11.5614433
  83.9716949  21.6532974  10.3110037  12.0105515  23.8135109  56.2085075
  12.8418427  23.8464069  55.7351112  12.0954504  24.4819870  56.8883324
  30.4304333   5.9406185  13.4429913  30.5689259   5.8062124  12.5054483
  31.2512817   5.6617169  13.8487644  57.2305489  29.6451283  25.2872677
  56.8892365  30.3793030  25.7978802  56.5019150  29.3866291  24.7229080
   8.8499622  20.3441105   1.3891573   8.2331314  20.1426678   2.0928428
   8.6810045  21.2623386   1.1781121  28.9667110  32.9505653   3.9954991
  28.5478191  32.9844322   4.8555083  28.2458591  33.0513000   3.3738425
  76.4657822  24.3545074  70.9181442  75.8998184  24.0548401  70.2067261
  76.0300446  25.1361771  71.2577896   8.5203142  69.1012268  38.6273880
   8.0223169  69.0867844  39.4447174   9.4085827  69.3400116  38.8923340
  41.0692902  47.3670349  56.8472557  40.6578598  46.7632103  56.2289085
  40.3750458  47.5817413  57.4702835  75.1481857  29.1274548  30.8246117
  75.0975494  28.2576466  30.4282513  74.3147507  29.5415707  30.6007175
  57.9336472  69.9776230  88.2416000  57.7440491  70.6462708  88.8997726
  58.7805176  69.6167145  88.5038834  57.7152557  51.5105171  33.6543999
  58.2061462  51.9437943  32.9561691  57.8991623  52.0320625  34.4356804
  41.6186142  36.1825256  75.7696686  41.3559799  35.2989082  75.5118484
  42.5755119  36.1603966  75.7599640  24.7770844  62.4143982  47.5242386
  24.0407200  62.1443291  48.0729332  25.4982471  62.5470314  48.1395149
  69.7933350  19.0169621  77.3850861  70.2348938  19.7728405  77.7722549
  69.0027084  18.9051342  77.9129486  16.1202755  70.8119431  51.3855743
  16.7185192  70.1442947  51.0500450  16.5256863  71.1092300  52.2001266
  69.5809250  35.1921387  63.2953072  69.7427979  36.0427742  62.8873215
  69.3580170  34.6148071  62.5650826  64.4003754  28.7535934   8.4847975
  64.5182266  27.8089027   8.5842953  64.9580688  29.1371346   9.1616354
  27.0251713  58.2261009  69.2436829  26.5547504  59.0243263  69.4840317
  27.6030388  58.0554886  69.9874496  82.9454803   2.9919586  78.5846481
  83.6540146   3.6163654  78.7406082  82.5586472   3.2710299  77.7547607
  62.7592354  54.8006783  66.9519196  62.4780235  54.9850960  66.0557327
  62.8953705  53.8533821  66.9700851  59.3333321  25.7800713   5.1028705
  59.9123192  25.6522045   5.8543057  58.5111732  25.3628998   5.3602662
   7.4050579  52.3323364   4.3997025   7.8332272  52.2477570   5.2516117
   6.4743781  52.4171371   4.6067672  84.6497726  21.0471249  67.3505554
  84.5613480  20.1824303  66.9496536  85.0956726  21.5740967  66.6874542
  75.9965439  64.8358154   5.8483043  75.5510941  65.1161880   5.0488048
  75.5441208  64.0324173   6.1053953  63.2917252  62.4271049  81.9019012
  63.3125877  63.0366287  81.1641541  64.0549316  62.6630936  82.4292145
  81.1724548  47.9852066  47.3554764  80.4646988  48.2524605  46.7690544
  81.9653320  48.0628548  46.8248749   4.9948111  20.3584290  80.4010010
   5.7471004  19.7772732  80.5130234   4.4543881  20.2026558  81.1755371
  50.9146347  28.0119152  32.4035721  50.9004707  27.1600609  31.9672508
  50.1888885  28.4953175  32.0087967  67.0221863  53.6574440  87.5195389
  66.1695938  53.2500420  87.6723099  67.6552429  52.9614716  87.6958847
  58.5348969  31.3016872  61.6980438  57.8734245  30.6349430  61.5132751
  58.9260941  31.4936104  60.8457756  82.4707336  22.8452969  53.0440140
  83.3121490  23.2338314  53.2833633  82.6759796  21.9309540  52.8488731
  54.3049545  27.1562653  26.7669525  53.6045074  27.1214886  26.1154976
  55.0948792  26.9166946  26.2823296   3.0633123  25.8674240  53.1547127
   3.6754448  25.8713818  53.8905869   2.7321534  24.9698792  53.1234627
  66.0574417  54.1051598  64.8616333  66.7311325  53.8882484  64.2171783
  65.6076660  53.2763786  65.0261459  68.4504242  19.4540977  82.5157166
  69.3411026  19.1181774  82.6160736  68.5235825  20.1289368  81.8408356
  60.5317879   2.5146599  44.5262489  60.6345634   1.8564967  43.8388710
  61.0741119   3.2488120  44.2379189   5.6974788  13.8180494  37.0575256
   6.6186166  13.5602512  37.0217934   5.3936558  13.5037346  37.9090691
  77.9475098  50.0326309  85.0999222  78.7582932  50.5218048  84.9600067
  77.8574448  49.9854851  86.0517120  46.6173439  24.1378613  70.1133575
  46.4846916  24.0491047  69.1695557  47.5565605  24.2955666  70.2094345
   7.6804757  54.5536385  83.9133148   7.4949861  54.9379349  84.7701416
   6.8209238  54.3131714  83.5675201  11.0168037  59.6633492  62.1838264
  10.2277298  59.4192314  61.7000885  10.7322435  60.3672752  62.7667007
  18.7560863  32.1457748  58.7646713  19.1064072  32.8786926  58.2583733
  18.6507015  32.4947472  59.6497383  35.2324371   0.4054997  86.3175964
  34.8209114  -0.3680281  86.7029953  35.2205162   0.2386544  85.3751297
  44.0562592  36.4499397  50.0696068  44.9783096  36.6181946  49.8753281
  43.8709030  35.6124878  49.6446953  45.6003647  40.9211578  51.3249893
  46.1771126  40.8889580  50.5617332  45.4601898  40.0034332  51.5581551
  61.3352280  37.1877975  31.6352921  61.1716461  37.7460747  30.8751621
  62.2423744  37.3733559  31.8779583  84.5415573   6.7973070   7.7814465
  85.2123642   6.4275680   8.3555021  84.2322464   7.5756555   8.2448397
  64.7561874  57.8737831  14.9234934  65.3555527  57.6311226  15.6292620
  65.0281143  58.7561607  14.6711092   3.6745837   5.4793043   6.0878110
   3.0843127   5.1595082   6.7701182   3.8979249   4.6995487   5.5795479
  22.7207355  58.4693108  18.2255058  22.2862129  59.1869240  18.6864338
  22.1768322  58.3168411  17.4527473  48.7159233  15.5668545  76.3094254
  49.3968964  16.2381592  76.2663574  48.5281715  15.3570957  75.3945618
  62.2780685  56.4932442  64.2915955  62.7617760  55.9713135  63.6514091
  62.4785271  57.4004974  64.0615082  37.2843704  62.9892883  58.2085190
  36.5275459  62.4160995  58.0864372  37.7684975  62.5954475  58.9342880
  25.6275330  28.1727772  82.0137482  25.4567108  28.8755417  81.3867188
  25.4753284  27.3678188  81.5186691   1.0379983   3.7027512  83.7508621
   0.5859631   4.0883460  84.5013428   1.6770958   4.3657498  83.4896774
  70.7079849  58.5850143  52.9087029  71.5332794  58.1406479  53.1027565
  70.5901337  59.1986923  53.6337814   3.7583749  43.5871429  72.6650238
   4.5238242  43.9116440  73.1393890   3.9860866  42.6877403  72.4295349
  70.6860733  70.6875000  51.3237762  69.9310837  71.2492905  51.1488304
  70.3259659  69.8007889  51.3408623  50.1776161  57.4684792  83.7480774
  49.6018944  56.7084503  83.8325500  50.0456390  57.7702103  82.8493195
  66.8522034   7.7781882  17.6214600  66.0291672   7.3004775  17.5183182
  66.8909149   7.9900384  18.5541191   1.0556313  58.1166191  13.4651518
   0.5289024  57.9895287  12.6760798   0.8393412  57.3677406  14.0206957
  67.7184525  34.0177078   3.8892741  68.4430084  33.6834526   4.4179745
  67.8964539  33.6931877   3.0065317  30.8937645  26.1442719  85.7324753
  30.8482723  26.0140190  84.7852707  30.8967896  27.0949898  85.8436279
  25.2332745  69.9207230  20.4167328  24.7388554  70.2015686  21.1867371
  25.3292408  68.9745941  20.5256977   9.9865723  24.7378387  71.3039246
  10.7937174  24.2239799  71.3303070  10.2651844  25.6067791  71.0148697
  72.5753326  23.7762089  20.1250687  72.6962585  23.2456970  20.9125729
  73.4179382  24.2123070  19.9983349  63.9807281  20.5191898  37.3143005
  63.0483551  20.7357254  37.3092804  64.4219742  21.3571396  37.1751022
   1.8777612  46.4866867  34.4192734   1.1256889  46.4621964  33.8276482
   2.3188300  45.6485252  34.2807922  77.1084595  48.7909088  25.1402779
  78.0369110  48.6215210  24.9805069  76.7382965  47.9302788  25.3365593
  12.7552710  70.9990005  49.2109032  12.2596607  70.9066620  48.3972244
  13.4248028  70.3166504  49.1622849  70.1418228  34.6396332  80.5656815
  70.4373779  33.7882881  80.8883057  70.8363571  35.2468033  80.8210220
   9.0843449  11.3133907  25.7214508   9.2284184  11.8962765  26.4669151
   8.9264126  10.4553909  26.1153107  70.7528381  53.3310089  76.9996338
  70.9154892  52.3965530  76.8709183  71.5509491  53.6580925  77.4146881
  73.5143509  41.7237434  27.6854706  73.9575729  41.9870491  28.4919796
  72.9156799  42.4457932  27.4944763  62.6116753  10.2618256  35.8720016
  63.3649101   9.9309883  36.3613052  62.0400810   9.5009785  35.7689323
  82.4069214  66.1072540  11.7804699  82.2665482  65.3514023  11.2101898
  82.8676834  65.7516479  12.5403881  20.9985390  55.5026703  52.8314896
  21.1239166  56.1153145  53.5561829  20.2120056  55.0106659  53.0671425
  48.2638474  59.8794174  31.6588898  47.3263168  60.0028038  31.8073444
  48.5127525  60.6035957  31.0845680  76.6375656  18.2749577  71.6238632
  76.1976624  17.4785042  71.3265762  77.2620850  17.9718723  72.2829132
  77.9165115   3.5351610  69.8057480  78.8647537   3.6657593  69.8068848
  77.5548859   4.4067645  69.6452255  14.9925251  35.0873947  52.2492790
  15.1217890  34.5055313  51.5003090  15.8104391  35.0276947  52.7429237
  70.3345108  32.0091705  13.4725142  69.4728851  32.3639374  13.6915255
  70.2963181  31.8526554  12.5289698  48.6603775  53.8075485  65.6064606
  48.5369301  52.8612099  65.6801529  49.2968330  54.0199432  66.2891312
  84.5347137  24.9459801  23.4123268  84.9540329  24.1112461  23.6211853
  85.2502365  25.5036583  23.1069508  13.8497400  39.2387085  10.4237318
  14.4027281  38.8532677  11.1033421  13.0151129  38.7769203  10.5036097
  37.2130890  40.4691048  82.1140594  36.8231621  40.5410805  81.2428513
  37.7197342  39.6575623  82.0834045   2.5732858  15.3339939  57.1720734
   2.3027513  16.1176186  56.6935616   2.2767007  14.6057386  56.6262589
  20.9381332  12.9131927  88.3012009  20.9914093  13.2574873  87.4096527
  20.7421970  11.9831867  88.1874924  77.8181076  57.1477470   7.9909835
  78.6783905  57.5535583   7.8839211  77.6481934  56.7213898   7.1509948
  54.4454117   8.7476692  77.9270782  53.9692802   8.0842628  77.4276581
  54.5618019   8.3575487  78.7933884  64.9353104  57.9845695  74.1974640
  65.8839264  58.0034981  74.3239365  64.6190491  57.3600655  74.8503113
  85.9286041  70.4228058   9.6258287  85.5556946  71.1233521   9.0906591
  85.1692734  69.9351730   9.9450006  67.1737366   2.4697082  16.4352970
  67.0760956   2.3444963  17.3792362  66.6708679   3.2617471  16.2454681
  40.2611313  68.1369095  61.1898537  39.8654289  67.4917831  60.6037941
  39.9576340  68.9812927  60.8564835  21.5630150   6.5997615  69.1947784
  21.9419651   7.2491908  69.7871246  20.7035065   6.9549284  68.9682083
  64.1332855  57.8141365  86.3459930  63.5127602  57.7016106  85.6259079
  64.8795853  57.2643776  86.1071625  59.9722290   3.1953902  11.9721479
  59.9466934   3.3478832  12.9167786  60.2232857   2.2758520  11.8846788
  76.4867554  47.4396515  75.4669571  75.7390594  47.1293259  74.9561920
  77.2269058  47.3909035  74.8619461  29.7177467  34.9557076  68.0415497
  30.3647976  35.1863365  68.7081604  30.0817356  34.1815109  67.6121674
   0.0969649  24.8842087  87.1085663   0.9023504  24.4015617  86.9224548
  -0.3372666  24.3716774  87.7904663  68.6759262  18.3797989  19.3706341
  69.4441910  18.6202240  19.8885155  68.7098236  17.4244785  19.3211727
  73.5266647  38.0765724  38.9484978  74.0880890  38.7434082  38.5530663
  72.7742767  38.5646286  39.2830811  57.6754837  70.9105377   8.2046318
  56.9415321  71.3701782   7.7968645  57.5012970  69.9844589   8.0364971
  42.8971825  38.0371933  77.9401779  42.9829025  37.4490700  77.1898499
  43.7650795  38.4289246  78.0378265  31.0893688   9.2811289  67.5703430
  31.4199295   9.9523926  66.9733810  30.4871178   9.7499342  68.1480560
  53.5867767  52.7972565   4.9650178  53.5601044  53.5430183   4.3655534
  54.3125763  52.2602501   4.6471019  58.9297333   6.8676686  54.6342850
  59.0825768   7.5967264  55.2354050  58.5639877   6.1756234  55.1852264
  65.5569382  33.4908180  60.2087784  64.8343811  34.0836334  60.4154510
  65.2684784  33.0264168  59.4230576  30.7929249  69.6718445  75.5249329
  31.1667709  68.8397293  75.2349930  31.5494366  70.1946793  75.7905655
  12.9649935  16.3314857  13.7262106  12.8344193  15.6677561  13.0489769
  12.7295132  15.8903933  14.5424328   4.3732390   9.0597744  78.9033661
   5.1236396   8.9566202  78.3181458   3.6859312   8.5232773  78.5083847
  60.2153816   2.1276834  60.7047386  60.4333687   1.9996740  59.7815208
  59.2742386   1.9602119  60.7540665  10.4793043  47.6994324   8.3970013
  10.9833364  47.7324791   9.2100763  10.1329699  46.8076248   8.3659773
  25.7510204  44.3582039  33.0580444  26.2345657  44.4140358  32.2338486
  25.0149937  44.9596596  32.9451332  83.1248016  53.0655251  57.2819939
  83.8538361  52.4501762  57.3599510  83.3386307  53.7690697  57.8948059
  50.0814781  53.2108345  69.6078568  50.3100281  53.5323563  68.7357178
  49.2351151  52.7795639  69.4899445  75.0500183  67.1732025  57.7019806
  75.7168579  67.8560944  57.7741699  75.1246414  66.8599014  56.8005905
  38.3120995  10.9509649  42.5313148  37.3817940  11.1758223  42.5171471
  38.7183647  11.5742788  41.9291000  39.2516632  24.0990849  12.9089680
  39.5677605  23.2307053  12.6595049  39.9362068  24.6979656  12.6106853
  25.4752350  45.9765205  71.2792053  24.7006302  46.4547615  71.5750198
  25.9245987  46.5867043  70.6944122  14.2833281  45.0753822  67.3172684
  14.3145208  44.7046127  68.1991959  15.0097694  44.6566353  66.8555756
  22.3635311  53.9705887  34.8806725  21.4448071  53.8521957  34.6395073
  22.7634506  53.1144218  34.7281189  44.3896561  27.5437584  12.9431419
  44.4111137  26.9004936  13.6516495  44.5844231  28.3776741  13.3707867
  78.8607788  65.4361343  61.9650688  77.9163895  65.3250809  61.8553772
  79.1745453  65.6896744  61.0970306  77.3184357  36.5891151  42.2738342
  77.2809525  35.6522903  42.4666634  76.8212585  36.6865654  41.4617043
  68.9290390  46.1425095  41.2565536  68.2148285  46.1035881  41.8926544
  69.0093918  47.0721703  41.0432396  52.3463783  46.4392624  54.2180138
  53.1985092  46.2869568  53.8094711  52.4546432  46.1340637  55.1187744
  78.3183823  13.0180502  37.3554153  77.3924103  12.9426794  37.1249428
  78.7265930  12.2466173  36.9623680   7.5168433  13.5523558   3.6260588
   7.7340217  12.8670006   2.9941151   6.8585482  14.0872650   3.1824915
  73.9123840  16.7831440  24.9326305  73.3145752  16.1691761  25.3591347
  74.4082794  17.1736088  25.6522522  17.2000999  47.3361931   7.2827635
  17.7258892  47.8454514   7.8995547  17.6216526  47.4774513   6.4350772
  85.9525986  71.2808304  22.1368046  86.4159012  70.5031204  21.8257408
  85.4475555  71.5775528  21.3797569  18.4583092  13.0169563   0.2514056
  19.1841469  13.3891048  -0.2494931  18.4911900  13.4704838   1.0937024
  40.4133644  44.8173027  34.8255806  40.0723457  43.9753113  35.1272240
  41.0684128  44.5881042  34.1663284  46.6493492  25.2386055  43.1737404
  46.0437393  25.1482067  43.9094658  46.7050514  24.3591785  42.7999229
  86.2592163  58.6123543  42.6623459  87.1672287  58.9151001  42.6527328
  85.7854614  59.2593842  42.1397133  71.3777313  40.7136841   8.5639153
  71.7331161  40.9107666   7.6972585  70.4893723  40.4008751   8.3930330
  78.0332947  38.1748428  57.3131256  77.3761444  38.3273315  56.6340637
  77.8578796  37.2855759  57.6208076  42.3420982  50.1339760  74.0100784
  42.7575684  49.3832092  73.5858536  42.4430275  49.9658051  74.9469681
   4.2888756  24.7607136   5.4553499   3.3691425  25.0115261   5.5414681
   4.7754631  25.5536995   5.6803799  42.6060944  63.5223999  54.3117256
  42.3023720  63.3043709  53.4305649  43.0072098  64.3866272  54.2198067
  43.0880966  24.2787762  62.9033623  42.3703537  24.9077511  62.9772987
  42.6617851  23.4559898  62.6635475  18.6485043  57.8225327   6.1255322
  17.7919044  58.0997086   5.8005085  18.9167995  58.5225105   6.7207460
  66.6371460  46.0420036  38.7755241  65.9906235  46.7034264  38.5290298
  66.1368256  45.3884277  39.2641411  42.9284897  13.7833490  12.9874620
  43.0792732  13.1507730  13.6898470  43.1063728  14.6339035  13.3888931
  51.2717514  12.3240480   8.8543835  50.7852821  12.7207317   9.5770321
  51.8624954  11.7006397   9.2770138  50.5302048  10.9059200  25.9658260
  50.5029335  10.1609879  26.5662975  50.5005074  11.6742811  26.5358887
   9.6565342  25.0335770  80.2189941   9.1669159  24.3252220  80.6370163
   9.2420425  25.1383324  79.3625793  70.6798019  29.5067062   9.9497452
  70.1441879  28.7511272  10.1915178  70.1102524  30.2614880  10.0985689
  24.6138687  35.4713211  67.0231400  24.3019619  34.6116867  67.3059464
  25.4716682  35.2990494  66.6348953  27.3983154  43.7865105  56.2728958
  28.0531883  43.6642838  56.9602356  27.2566757  42.9088020  55.9182205
  62.3884087  58.6222382  29.0675812  62.8093033  58.0236282  28.4505367
  63.1153374  59.0453568  29.5244961  60.7755470  26.4688320  26.8646221
  61.4689636  25.9892693  27.3178596  60.9914856  26.3816547  25.9361820
  49.6899834  33.4242439  11.1987429  50.2471504  34.1493492  10.9158726
  50.0310173  33.1818695  12.0596628  78.0752487  46.1485596  47.9436913
  77.9093628  46.9993820  48.3496704  78.9163589  45.8702049  48.3060188
  84.4643402  68.5848007  13.1125708  84.8831482  69.3521042  13.5025425
  83.5361557  68.8146439  13.0692425  83.6826019  59.4471130  62.3908539
  84.6026535  59.3924751  62.1324997  83.4112320  60.3260002  62.1259918
  50.3332100   3.3006833  59.2575531  51.2017326   3.2576547  59.6576118
  50.2964706   4.1695900  58.8576965   3.1453304  52.1552048   2.9141002
   3.2326899  51.5530396   2.1751823   2.3306272  52.6276703   2.7430222
  53.6280937   4.7434206  77.1296082  52.8219109   5.1650815  76.8321152
  53.6384048   3.9000688  76.6769714  77.7882996  60.4903641  44.1777000
  78.4517593  60.3363495  43.5051422  77.2132263  59.7269096  44.1261215
  56.5637741   8.7291727  62.4272804  56.6274033   9.5056953  62.9833336
  56.3308945   8.0221252  63.0290146  68.0569077  58.5609779  67.2174988
  67.3420105  58.0035324  66.9102478  68.8405075  58.0194511  67.1229019
  27.1670685  40.6857185   0.9987481  27.7599449  41.2123680   0.4626814
  27.5038967  39.7930374   0.9219448  14.0667629   4.3287559  16.8856277
  14.2475710   4.6044197  17.7842655  13.4563189   3.5972455  16.9777279
   7.9069209  30.2476711  83.7638855   8.7985468  29.9007053  83.7930298
   7.3559990  29.4798794  83.6115189  57.0295029  26.7859631  66.0066528
  56.6693649  26.0203400  65.5590439  56.2669411  27.3315582  66.1991577
  23.7726021  59.1341515   2.9908593  24.5572701  58.6179237   2.8063722
  24.1027012  60.0126190   3.1794348  56.3843918  14.4978390  86.2164307
  56.3147049  15.1865168  86.8775711  56.9714851  13.8500948  86.6062775
  36.7702560  65.7577209  33.4203377  36.5997200  66.3566513  34.1472702
  36.0125694  65.1729050  33.4090462  65.3486023  14.1701889  82.8419952
  65.9094772  14.9372139  82.7265549  65.9435196  13.4806194  83.1366272
  81.6980896  36.2162399  24.4022923  82.4354706  36.5458717  23.8886375
  82.0880661  35.9415207  25.2321606  40.4931145  24.7726212  78.9459305
  39.5455894  24.7637444  79.0814133  40.7302132  23.8500710  78.8515091
  44.1213379  31.5625477   3.2198055  43.6570320  32.3037987   3.6086533
  43.4903297  31.1767712   2.6121569   3.6847591  23.5238972   8.4097452
   4.2171831  22.9477310   7.8613029   3.8858128  24.4057636   8.0965023
   9.1215668  53.0340500  57.0123940   9.6966181  53.7238426  57.3436546
   9.7159491  52.3277702  56.7591934  20.6065845  34.2724991  23.1672802
  21.0750351  34.9048462  23.7121868  20.6393871  34.6449547  22.2861252
  51.1237488   7.2631955  31.6192818  51.0181427   8.0910912  32.0879707
  50.4973106   7.3150425  30.8973942  12.4221849  68.7020340  88.4517059
  11.7549419  68.4139404  89.0746231  12.2699175  68.1666794  87.6729660
  50.6113319  13.8395653  89.2234650  50.4960823  13.9968691  88.2863388
  50.4045372  12.9119949  89.3378372  73.6604996  10.5781050  52.3787689
  74.5864716  10.8079023  52.4562645  73.6621933   9.7086535  51.9784126
  71.2693710  14.5705671  76.5220490  71.3050385  15.2661324  77.1786728
  71.1119156  15.0284882  75.6963730  79.3080750  69.4081573  69.9979324
  79.0110397  70.3162918  70.0554123  78.7408371  69.0120468  69.3364410
   2.7742643  56.7439575  17.1405754   3.2637811  57.5664520  17.1511135
   2.4259253  56.6611671  18.0282898   8.2790976  25.7713737  88.4496613
   8.5757637  25.6178036  87.5526428   8.7922058  26.5230293  88.7462540
  17.5262356  60.2934227  16.9831715  18.0580425  61.0369072  16.6991863
  16.7569904  60.6910896  17.3910408  42.7466278  43.4849472  33.4471092
  43.1388855  42.6622353  33.7395363  43.1149445  43.6294098  32.5754967
  57.7190819   6.8681617  13.9980049  57.7042732   6.2801046  13.2428875
  56.7996445   7.0875244  14.1488142  70.0535507  66.0925446  60.2809448
  70.0364609  65.2389145  59.8482132  70.0068665  65.8885574  61.2149887
   6.3699932  68.5730667  69.5021057   7.1539459  68.8472672  69.9779892
   5.8596892  69.3762054  69.3982391  47.5515709  10.1465797  21.1667118
  48.5017433  10.2618341  21.1775112  47.3518600   9.7254972  22.0027962
  44.0225868  58.0123138  83.9980164  44.7221413  57.7256508  84.5851059
  43.3430061  57.3447075  84.0913010  16.3025074  11.7710075  84.1380234
  15.6724329  11.1855211  83.7179718  16.3698311  11.4460001  85.0358353
  67.4202423  39.7581711  49.9390793  67.6413498  40.4920845  50.5124168
  68.2660828  39.4254074  49.6389771  77.9580307  38.7279472  11.7539768
  77.0465317  38.5519829  11.9872952  78.3440704  39.0891838  12.5519228
  64.3236923  10.6428823  87.9464798  63.9222183   9.8759584  88.3549957
  63.8498688  10.7505646  87.1217804  59.6656837  53.3482628  32.7704201
  59.6724014  54.3046608  32.7318230  60.4725800  53.1215401  33.2327461
  46.6219826  28.6029778  85.0322800  47.3264961  29.0836563  85.4668350
  46.0363007  28.3419399  85.7429581  63.5333328  16.9698067  14.9945707
  63.8215790  16.2383423  15.5405617  64.3326340  17.2811871  14.5698509
   3.8710806  10.3113308  63.0272903   4.0969882   9.9271126  62.1801910
   4.5245924   9.9595451  63.6317749   9.4322605  42.4755020  25.3537922
   9.4611731  43.4280396  25.2639771   8.7239141  42.2013893  24.7712612
  75.3210144   7.9689846  75.7629089  76.0192032   7.4591818  75.3519745
  74.6422729   8.0308838  75.0908203  58.0695724  46.2900658  24.7436790
  58.1291046  45.4906960  25.2668400  57.7296257  46.9482651  25.3498459
  21.2303486  26.2566357   1.0953313  21.2783909  25.4795532   1.6521676
  20.4590359  26.1113605   0.5474219  38.7730980  64.9872131  76.3873444
  38.8919945  65.9369736  76.3940964  39.1761551  64.6895752  77.2029419
  65.2011719  14.5076885  32.2285728  65.3252945  13.7156820  32.7515945
  65.6680145  15.1894341  32.7118034  53.7472420  32.1492538  57.4324989
  54.2813683  31.9115238  58.1904068  53.5707779  33.0830231  57.5472603
   4.0916705  15.1457357  69.2858887   3.8692310  14.3398094  68.8198013
   4.4032183  15.7393417  68.6026611  75.1115417   3.4431400  60.2331123
  74.3740616   3.3902354  60.8410301  74.8188095   4.0505786  59.5537338
  55.0914803  45.7007866  53.2994194  55.4995918  45.6389503  54.1630478
  55.8274574  45.7646675  52.6907425  54.4629173  22.9570293  47.7324371
  53.9728775  22.8903980  48.5519791  53.8666458  22.6116142  47.0680733
  71.0802002  48.6235695  26.4461994  72.0045547  48.5270958  26.2170868
  70.8051147  47.7446556  26.7071018  58.2034798  42.5499115  63.1373520
  58.1131821  43.4900017  63.2932663  58.7659187  42.2421837  63.8481255
  14.3819370  45.6989632  75.6662292  14.5820656  46.2795105  74.9319611
  13.6229963  46.1006393  76.0891953  45.7343712  70.0124054  15.7418146
  46.4238853  70.2491684  16.3620930  46.0493660  70.3369141  14.8981876
  78.7159424  45.5790634  23.8147850  79.1101837  44.8807755  23.2920990
  78.0579453  45.1353264  24.3499241  58.9395409  19.0387840  49.1900139
  58.3664360  18.5258179  48.6202354  59.6192780  19.3750324  48.6059570
  48.3500862  45.0073738  24.6769905  47.6640549  45.0385437  24.0101891
  48.3745079  45.8939056  25.0371227  60.2049446  15.0773411  22.4458408
  59.6960602  15.4459410  21.7237606  60.9726334  15.6452179  22.5122013
  52.0385933  31.2097435  65.0228500  51.2683563  31.1199322  65.5840073
  52.6605301  31.7128677  65.5484848  82.1246948   8.9668026  30.5972691
  82.2605515   8.3197641  29.9050884  82.2949600   9.8087263  30.1748886
   2.8534341  49.4619942  14.5265112   3.2084293  48.8572998  13.8749323
   3.5987453  49.6725655  15.0890083  80.7514496  20.1878738  84.8104172
  80.1858673  20.9459209  84.9577713  81.5329285  20.3668556  85.3333740
  30.0407848   4.2467160  15.9319763  29.4574203   3.6985242  16.4567661
  29.6631184   5.1242161  15.9919262  55.1387825  61.8016624  80.8699417
  56.0589066  61.9713631  81.0719452  55.1493607  60.9823494  80.3751297
  48.6048164  71.1059189  62.4904633  48.0907173  70.6309052  61.8375473
  49.2958794  70.4936066  62.7429276  21.3178959  49.6418571  84.3554306
  21.6036892  50.2183800  85.0640717  20.7708225  48.9853554  84.7866440
  53.6302605  11.5314121  61.0582047  53.6137161  10.7648573  61.6312256
  53.8967781  11.1874218  60.2056389  79.9952087  36.2275314   1.3753814
  80.7181931  35.6095619   1.2674892  80.4203873  37.0599594   1.5815749
  73.1766586  23.9296474   4.0874448  73.0306320  24.8590679   4.2637548
  73.2219315  23.8711281   3.1331084  11.6079330   0.5847882  35.3677864
  10.6580229   0.6770746  35.2943954  11.9570484   1.1387956  34.6696281
  74.2116776  33.9555130  52.7365837  73.3780670  33.7207108  53.1442566
  74.0083847  34.7214203  52.1996574  62.1118965  63.7504997  74.6576080
  62.0536194  64.6832504  74.8645248  62.0397377  63.7117653  73.7039185
  48.2029686   0.0850317  83.0928040  47.9486084   0.9940699  83.2514877
  48.1781273  -0.3250425  83.9573593  51.7501297  63.3117752  70.9717484
  51.4380226  62.4734039  70.6312256  51.5708618  63.9371567  70.2696075
  79.3214493  65.7551498  80.3780289  79.3560486  66.2527847  81.1949692
  78.6425095  66.1894150  79.8616180  10.5959435   2.5178018  67.2750092
  10.6504240   3.1671793  66.5738907  11.4370594   2.5825195  67.7273026
  77.1653214  45.5544510  44.0841713  77.7032318  45.1340027  44.7550735
  77.2896347  46.4922028  44.2304649  34.5437012  60.8465919  24.0008202
  34.0509644  60.0260010  23.9921875  35.0505333  60.8301811  23.1889801
   7.6072392  56.8678589  48.8510208   8.2410345  56.5249367  48.2209892
   6.7725167  56.8539848  48.3827515  34.2141457  64.7330856  38.7160950
  34.8264656  65.4263077  38.4696388  33.6635132  65.1289062  39.3916397
  12.0369549   9.4032259  28.4068661  11.9033594   9.3492517  29.3531590
  12.9406300   9.1161299  28.2757969  43.9955025  70.2423096   7.4595342
  43.3072395  69.9133911   8.0377550  43.5237732  70.6695938   6.7445974
  40.5100250  49.0583725  46.4589043  40.0264931  48.2397270  46.5695839
  41.1684151  49.0434570  47.1535530  64.3942795  25.9426975  47.8867302
  63.7056274  25.6632061  47.2835159  65.1701050  25.4574261  47.6059303
  26.3126125  48.8153648  36.9572411  25.4705868  48.3605614  36.9767265
  26.2304058  49.4408035  36.2373085  59.7268600  55.5860519  65.2509613
  60.5258217  55.9861984  64.9077759  59.5738335  54.8312073  64.6826096
  25.5694122   3.4409168  36.2402611  25.2204494   3.5522282  35.3559151
  26.1772327   4.1719260  36.3516693  27.1818714  28.7491722  75.2564087
  26.3553047  28.2907009  75.1053391  27.2362080  29.3860493  74.5439072
  84.6501541   1.0201049  37.6301765  84.2585144   0.1572989  37.4944725
  84.4062881   1.5191290  36.8506050  16.6907291  45.2076797  49.9061012
  16.8138371  45.3935051  50.8369865  17.3600349  45.7321815  49.4666023
  13.4512596  44.2031174  78.5840149  12.9886875  45.0229607  78.4104767
  12.7558212  43.5638123  78.7385712  11.1095610  31.1605988   1.8269290
  10.8020058  31.9342709   2.2992353  10.3190279  30.7889080   1.4356011
  63.4454460  13.4956264  76.0961075  63.6852455  12.9856634  75.3223724
  62.8601112  12.9211369  76.5896378  35.6974525  51.4639549  58.2256699
  36.3421173  51.8935318  57.6634407  35.2774124  52.1814461  58.7000160
  39.4947777  42.5874252  74.3694458  39.4928169  43.1808701  75.1204834
  38.7904854  42.9102135  73.8072968  76.4868469  59.9642677  72.5768051
  76.2633362  60.7344322  72.0541992  77.4418411  59.9150162  72.5344696
  78.6514969   9.5498152  23.1580982  78.8699799  10.0732317  23.9291573
  78.0209808  10.0849781  22.6761417  20.2923031  59.3916893  26.4997520
  21.1429958  59.2826118  26.9247894  20.3776474  60.2020607  25.9975147
  68.0554428  70.1389084  13.6311264  67.8540878  69.3050232  13.2064838
  68.7064438  69.9175415  14.2970285  75.0403671  16.7080956  20.5893021
  75.5617371  16.6448517  19.7890472  75.0214539  17.6439362  20.7894993
  16.6083107  45.4233856  21.8419819  15.6987743  45.3387833  21.5559425
  17.1192627  45.3710709  21.0342560  69.5048981  63.6898308  58.5435677
  68.9424973  63.1367111  59.0857849  68.9682922  63.9009781  57.7795639
  85.7232590  28.7288761  76.8807297  86.2600479  28.8438225  76.0965881
  85.1947403  29.5255299  76.9280853  86.5336227   4.5500150  86.1905975
  87.1821060   5.2165785  86.4172974  85.6912918   4.9966922  86.2754440
  49.5090675  27.5654392  15.3027420  48.7082176  27.2258434  15.7021694
  49.2029800  28.1046619  14.5735102   7.4508076   8.4288101   9.9114380
   7.8499684   9.2210732   9.5519638   6.6121392   8.3553095   9.4559546
   4.2611618  49.8794861  85.9627304   4.2073255  49.8310051  85.0082703
   5.0914397  50.3241272  86.1335068   6.3093190  39.1932793   6.8552799
   6.8292894  38.3897934   6.8716917   5.4827209  38.9353523   6.4473076
  69.6217346   3.6276116  19.4037819  68.7298050   3.9658060  19.4832897
  69.7625351   3.5427239  18.4608059  46.1573639  29.1964951  70.4602890
  45.7229729  28.9119129  71.2643738  45.6605873  28.7764664  69.7581329
  69.2734146  44.7407150  72.9494705  68.3525238  44.5016899  73.0546341
  69.6729050  43.9772911  72.5325546  47.0929871  14.6059160  10.5042620
  46.4672813  15.0585737   9.9387331  46.8338318  14.8509665  11.3925295
  53.5889168  38.9519577  42.0114937  53.9626274  38.4994469  42.7676735
  53.1320724  38.2665405  41.5239220   6.3299313  35.5032043  37.7461739
   5.9553585  34.8261986  37.1826210   5.6914845  36.2159386  37.7211189
  41.3019333  38.4923859  81.4991531  41.1760139  39.4259415  81.3293076
  40.4781342  38.2076759  81.8947906   1.5684257   8.3760605  80.2084808
   1.1121554   7.7140312  79.6890869   1.9813806   8.9464254  79.5601120
  77.2873001  56.1808052  58.8800850  76.9694138  57.0717850  59.0261421
  77.6117706  55.8990479  59.7354012  75.5193863  11.3063698  72.9321823
  75.0031586  11.6239128  72.1913071  75.6562958  10.3770981  72.7479477
  54.1009560   6.8352776  46.5355415  54.9852676   6.4846439  46.6417580
  54.1984901   7.5416870  45.8970222  66.6529312  39.0678062  63.2911415
  67.5081329  38.6936302  63.5029068  66.6568832  39.1498146  62.3374672
  81.8114777  18.4086723  63.5584679  81.0816040  17.8603420  63.2706261
  81.7916412  19.1625957  62.9690285  22.4137154  19.2761135  85.9795227
  22.2399406  19.8090992  85.2036667  23.1239433  19.7332039  86.4299469
  67.2854919   9.1584501  25.5314178  66.9554596   9.8549309  24.9637661
  68.2070389   9.0682468  25.2888374  42.8744850  35.5117836   0.0320670
  42.0917397  36.0375175  -0.1327068  42.9195976  35.4417381   0.9856341
  16.6967049  36.5183563  29.5058975  16.2498493  36.2308502  28.7097244
  17.1974468  37.2878189  29.2349453  46.9700928  42.6540489  68.2352676
  47.5259399  41.9765091  68.6202469  46.1545525  42.6068268  68.7341690
  20.1789818  46.5737877  53.0568275  19.3149624  46.7385902  52.6792831
  20.0552711  45.8029976  53.6107292  75.4320984   8.8172302  25.7024040
  75.5726929   9.7150555  25.4017830  75.0353012   8.9138832  26.5681076
  42.7869644  46.0876541  76.8175964  43.6253204  46.5475121  76.8614731
  42.4078484  46.1970520  77.6896820  10.9234867   0.2739630  16.0031986
  11.4382706   1.0351447  16.2712116  11.5758944  -0.3914528  15.7845249
  17.1003933  42.2108040  10.6532707  17.1252575  41.8170433  11.5253744
  16.4073257  41.7351608  10.1953917  14.3581343  25.3129082  77.9398041
  14.0242596  24.5994129  77.3960419  13.6273088  25.9277992  78.0033264
  53.1241455  52.9661522  26.9891777  52.8691177  53.8871689  27.0432472
  53.9601631  52.9214859  27.4531898  59.8220253  52.0337486  15.2133150
  60.3821831  51.9073868  14.4474897  59.0341377  51.5256386  15.0202236
  16.2671452  57.3559303  52.1627579  16.9563923  57.6108170  51.5494003
  15.6652641  58.1001930  52.1694679  76.3316040  63.0209618  11.9524574
  76.0885086  63.8200188  12.4200459  75.8329468  62.3285332  12.3861761
  32.5452194  61.2049026  43.6457367  33.1652107  61.8102379  43.2390251
  32.8564491  60.3362846  43.3910446   4.4715338  55.2790909  83.3087692
   3.7551329  54.6488190  83.2328949   4.2098770  55.8536339  84.0282593
  32.4876747  51.9691277  61.0845146  31.7468719  51.8442497  61.6776848
  33.2006760  51.4704475  61.4834938  84.2470322  40.1022491  50.4277802
  84.5329208  39.9964981  51.3351479  83.3263855  39.8403397  50.4346695
  60.4836807  16.6403313  41.4375343  60.8943558  16.8407917  40.5964661
  59.6416283  17.0944881  41.4072037   9.3410597   9.9569979  73.4607468
  10.0360670  10.6005230  73.5988541   9.7916393   9.1125135  73.4682083
  40.9608498  70.4315948  80.2566071  41.1618042  71.3667679  80.2926941
  40.7922707  70.2584000  79.3304291  31.7286434  64.1595306  81.6957092
  31.2794647  63.9709702  80.8717499  32.1943016  63.3499413  81.9053726
  66.7823410  69.9938507  47.3996696  67.4044495  70.5893784  46.9818687
  66.4209824  70.4978790  48.1287842  61.1331863  21.0647240  74.3330765
  61.8751411  20.8737221  74.9068832  61.2938995  20.5377693  73.5503159
  42.7009621  17.2709408  19.2396450  41.9813042  16.6735134  19.0361767
  43.4899254  16.7380810  19.1404743  66.7153091  55.4576378  46.4600449
  66.0642548  55.7077751  45.8044586  66.8507462  54.5208054  46.3178024
  41.3276482  59.6617317  34.7989388  42.2522812  59.4566994  34.6602058
  40.8666039  59.1510124  34.1334801  31.8068771  10.8871231  65.3031921
  31.4608669  11.0962973  64.4355774  32.7024841  10.5918493  65.1390686
  40.7335167  54.0085945  12.7454252  41.6255150  53.7759552  12.4876499
  40.1809959  53.6382828  12.0570774  79.6945801  11.7459869  47.3121529
  79.4072342  11.6246843  46.4071960  79.9999466  12.6525021  47.3470154
  57.6564903   5.2359781  80.4469986  58.3205681   5.3099871  79.7616119
  56.9507980   5.8156800  80.1603470  25.7786064  25.3235703  78.5636902
  25.9405613  24.3966427  78.3881607  26.6364994  25.6759529  78.8004990
  63.5341454  30.3783798  89.0302734  62.8461304  30.6684208  88.4313202
  63.0635262  29.9586010  89.7503662   1.8198780   5.6762829  38.0207634
   1.1179190   6.2393570  38.3470039   2.4430478   6.2801180  37.6166916
  69.4589920  41.3777390  89.0853195  69.8013306  41.0765648  88.2436905
  70.2282257  41.4275169  89.6528015   8.2854357  34.6989403  49.8595276
   7.5052071  34.7798233  49.3109550   8.9170685  34.2342682  49.3105736
  67.8675842  43.4496117  48.2829590  68.8040924  43.3598671  48.1064987
  67.6979294  42.8331375  48.9952850   8.4388494  37.2471542  64.8367691
   8.1830378  38.1196289  65.1360703   8.7494841  37.3825645  63.9415627
  64.3262253  59.2935448  80.8261337  64.6640167  58.9951820  81.6705933
  64.8862762  60.0336914  80.5921249  83.6894073  11.0146875  84.7168884
  84.2844849  11.2829924  85.4169769  82.8499908  10.8768158  85.1557541
  79.5146255  23.9244385  14.2955341  79.2319336  23.3579350  13.5776291
  79.8499298  23.3212433  14.9588318  53.6709366  28.5433006  72.3017120
  54.3757553  27.9025860  72.3962936  53.3134384  28.3790340  71.4291000
   0.3566567  55.7304573  36.2215195   0.2575438  56.5815353  35.7948189
   1.0738455  55.8561249  36.8428726  78.4285812  30.4896049  16.5735435
  78.4327545  30.2363701  15.6504574  79.2315903  30.1094990  16.9298153
  21.0841942   5.0300274  60.5866699  21.9339008   4.7526231  60.9291229
  20.4462318   4.6404481  61.1845551  27.5156651  19.0564365  44.7973404
  27.2737370  18.2426510  44.3552361  27.7566433  18.7852917  45.6831398
  46.3939667  46.7889557  83.9799881  46.3353729  47.6258736  83.5191574
  46.7673645  46.1867867  83.3364105  15.8423090  58.2698631   5.5456409
  14.9711189  57.9557724   5.3035522  16.0445480  58.9411392   4.8939371
  10.4018917   7.6900373  76.4528046  11.1148272   7.8240466  75.8283081
   9.7430573   7.1985259  75.9623108  75.5099411  18.6403522  87.6275406
  75.6012115  19.3532047  88.2597961  76.2647247  18.7371120  87.0468750
  70.7033768  16.6276836  37.7207413  70.2717514  16.0930557  38.3871536
  70.2407608  17.4651947  37.7489815  29.7598534   5.0504937   5.1938853
  29.6102104   4.3060741   4.6110663  30.4357834   4.7478189   5.8002996
  31.2685738  69.6478806  66.9024353  30.6210384  69.5091171  66.2112961
  31.3215446  68.8053741  67.3536682  15.8023615  30.9961205  19.4086304
  15.2891827  31.5997334  18.8714809  16.7129669  31.2264595  19.2243118
  38.7006607  45.1707726  26.1910172  38.7780685  45.1570473  25.2370510
  38.8561554  46.0843124  26.4308128  48.9616776  47.8189125  17.2367153
  48.4711494  48.2812958  17.9162865  49.5641708  47.2529488  17.7193298
  17.6404839   8.1092558  25.2619610  16.7641621   8.0969849  24.8770733
  17.7347507   7.2487297  25.6704235  59.6607933  11.6732864  58.9827080
  60.1310349  11.7461090  58.1521683  60.2764359  11.2330399  59.5687141
  79.7635345   7.2978358  21.6802311  79.3716507   8.0668716  22.0940437
  80.2346039   6.8587089  22.3883934  38.1058846  14.4865561  86.3874817
  37.5027428  14.8221731  87.0506668  38.9532356  14.4495010  86.8311691
  38.0512886  41.2155228   0.4129895  37.9341087  40.3588219   0.8235590
  38.9250221  41.4947433   0.6865851  43.2073174  39.2729530   1.3982587
  44.0000114  39.5377502   0.9316242  42.5167351  39.8231659   1.0286678
  50.4743347  46.5034027  21.7158203  51.1143303  46.9333878  22.2830544
  50.8099709  45.6135445  21.6075039  43.0925026  68.1161880   3.1915891
  43.9790459  68.0419693   2.8383682  42.5220184  67.8972473   2.4548068
  62.5699654  39.5117493  72.0477142  62.3114700  39.2942085  71.1521225
  63.1668358  38.8080864  72.3023453  64.2180328   6.9359937  23.3746090
  63.3020477   6.9367266  23.0967560  64.1793137   6.8498578  24.3271389
  68.9519958  36.0939560  48.0655212  69.1193390  36.2731171  47.1402512
  69.0548019  35.1459007  48.1483192  35.9227028  66.5178452  76.2701035
  36.7937164  66.2441025  76.5575562  35.7631798  67.3380661  76.7370224
  42.4653473  22.3767452  78.4263153  41.7447510  22.2171497  79.0358276
  42.4426651  21.6300564  77.8278427  62.3587875  52.8356018  42.3919106
  62.4142151  53.7909660  42.3709793  62.4897652  52.6082001  43.3124352
  70.4755630   2.7046416  89.0290756  70.4438934   3.6423914  88.8397217
  71.3734360   2.5497186  89.3224258  49.6528168  57.0994759  25.6052036
  48.8100586  57.3452873  25.9867363  49.5144157  57.1594467  24.6599617
  71.3715515  32.4492989  46.0004883  71.7220154  31.5820332  46.2036133
  72.1063614  33.0449333  46.1471405   7.8664298   9.0071354  61.4093094
   8.3903694   9.2196760  60.6369438   7.0161171   9.4132071  61.2410660
  72.0433044   6.3874979  77.9461288  71.1095352   6.1816201  77.9021683
  72.1625977   7.0952506  77.3128128  25.2984161  20.9197445  54.9365845
  25.7887154  21.0256710  54.1213417  24.4274597  20.6374722  54.6573181
  81.2733841  52.1858063   0.6241835  81.3080826  52.7434692   1.4013809
  80.8512192  51.3812485   0.9253464  13.1314316  29.1893826  75.4491348
  13.5423431  29.9532852  75.0443726  13.1290674  28.5252781  74.7597961
  85.0671158  11.9940453  12.1069298  84.1363297  11.8248224  12.2526121
  85.0849533  12.7772856  11.5569763  19.7588234  13.4316216  66.3888474
  20.3566055  14.1765432  66.4519424  19.3795853  13.5023775  65.5128326
  12.1680012  49.4196892  28.7978992  12.5433636  48.5469398  28.6811028
  12.7906113  49.8742180  29.3653412  22.7204533  42.9047966  87.5843430
  23.2128601  42.7587852  86.7765961  23.3424301  42.7039146  88.2836456
  36.1619339  41.0039101   7.4212952  35.6592369  40.8743477   8.2254982
  37.0634041  40.7949066   7.6660404  79.4235077  55.5658684  42.4513855
  79.3696518  55.5345688  41.4962158  79.4197083  56.4998207  42.6610184
  53.5164223  70.4631805  15.8905287  53.8720284  70.6150055  15.0148993
  52.9857254  69.6717682  15.7996063  69.4699097  34.5034447  88.8203583
  68.8329697  33.8439598  88.5453720  69.3776627  35.2077293  88.1787186
  55.0901184   9.4008932   2.0525405  55.3034477   8.6291161   1.5280575
  54.6768150  10.0037289   1.4344769  49.2741241  64.1715775  57.5395660
  48.6664848  63.4385262  57.4413757  48.8212051  64.7818069  58.1215553
   7.6318874   3.9750812  53.7735748   7.3316154   3.5893388  54.5965424
   7.8290582   3.2234564  53.2146339  61.0836830  66.7017365  60.4712334
  61.7498474  66.5256195  59.8068199  60.5063667  67.3487854  60.0659409
   7.4717612  70.6698227  81.1781693   6.9338498  70.2792892  80.4894257
   7.2945886  71.6084976  81.1171570  32.6005325  40.5382156  81.3335190
  31.8560276  40.5965004  80.7347336  33.3472557  40.3394432  80.7686081
  67.6324310  38.1985741  34.2322311  67.1198807  38.3021011  35.0339813
  68.4203262  38.7209396  34.3825226  85.7160492   2.2940600   5.0299888
  86.4739532   1.7526848   5.2507486  86.0435867   2.9080720   4.3727665
  69.8088913  18.6053123  54.2390518  69.7166672  17.8460312  54.8145676
  69.3468628  19.3088703  54.6948662  44.6166611  57.8498459  31.2861710
  44.2895966  57.5130692  32.1203423  44.2838058  57.2348595  30.6325417
  74.9985733  42.1794014  23.9294529  74.3788681  42.8135300  24.2901115
  75.8147964  42.3477516  24.4002666  10.3530350   1.3470047  73.7100677
  10.0005693   0.7282048  73.0704651   9.6445293   1.9749038  73.8514709
  58.7783318  16.9479828  79.2024536  58.5852013  16.4154873  79.9740601
  57.9191551  17.1719036  78.8448105  81.1641464   0.6130350  79.6340866
  80.9120712   1.2921407  79.0083847  81.6176682   1.0864106  80.3315582
  44.6942368   1.7474163  52.4327660  45.0900307   1.3623551  51.6509056
  45.4344940   1.9262384  53.0126572  18.9682808  66.6030197  23.0583191
  18.4245090  66.3353348  23.7991905  19.8551197  66.3404617  23.3049164
  65.9275513  24.2013035  12.3586750  66.0477295  23.2997742  12.0602875
  66.6866760  24.6710987  12.0133410  62.8274307  19.1786995  60.1824417
  63.6852493  19.0353279  60.5822220  62.5845108  20.0655785  60.4482727
  61.5286293  47.0560455  55.6313858  62.4229393  47.3744621  55.5087013
  60.9863815  47.6665802  55.1319427  24.1418438  11.6443787  19.0033894
  23.3134098  11.5504017  18.5331821  23.9279289  11.4283447  19.9110260
  20.5818310  64.7041245   3.9155147  20.7960434  65.5245056   3.4713013
  19.9660378  64.9577484   4.6030521  20.4085693  30.5014896  85.1186066
  20.3405209  30.0124683  85.9386444  19.7933426  31.2276058  85.2209930
  41.5667343  68.2630386  78.7538986  41.4603539  68.0744400  79.6862793
  41.6429939  67.4020920  78.3425674  32.2731133  25.9612160  71.9739075
  32.8131218  25.3340302  71.4930115  32.2764664  26.7478294  71.4285126
  44.5747490  47.9617386  23.3073406  45.0922089  47.6936531  24.0666809
  43.6696320  47.7742729  23.5560398  27.5926304  10.7334366  11.0131960
  27.0705967  11.2325478  10.3850241  27.4541416  11.1802826  11.8482895
  52.7753258  11.8014660  38.5355606  52.6209755  12.0396271  37.6214027
  53.6835060  11.4996595  38.5543785  86.8184509  19.3416901  15.0912981
  86.6119766  18.8226395  15.8685932  86.6420212  18.7537231  14.3568611
  33.0425072  63.9111137  65.8350830  32.6136322  63.9056053  64.9793549
  32.9896812  63.0037498  66.1353073  37.7449570  24.6684513  79.1362381
  37.5829124  24.6605892  80.0795898  37.0022202  25.1482124  78.7696304
  62.2325745  56.3954582  88.0069580  61.9877853  55.6612854  87.4436569
  62.9536705  56.8222885  87.5442810  58.1591415  31.1630402  64.9409180
  59.0699959  30.8721027  64.9848938  57.7470932  30.5665493  64.3159027
  57.3524971  22.0230522  31.9839897  56.8412209  21.2588634  32.2501526
  57.0345688  22.2296486  31.1050873  47.9324303   9.5939426  35.3434563
  47.1875992   9.1253338  35.7201080  47.5745087  10.4425850  35.0828209
  28.7659149  70.4087753  32.8616486  28.9748039  71.1951599  33.3658333
  29.6102924  70.1086273  32.5252457  68.4704437  39.5489502  16.9342747
  68.0051498  40.3709564  16.7792339  69.3898544  39.7597961  16.7716064
  49.9267807  31.0876560  66.8798447  50.2914963  30.9660378  67.7564392
  49.2065392  31.7058239  67.0037384  34.9629669  69.8455658  58.5178604
  35.4719353  70.6231995  58.7469101  35.4694595  69.1148148  58.8724022
  37.5447998  52.4492683  30.4189644  37.1076927  51.6805344  30.0526066
  38.4717598  52.3142166  30.2221527  79.8238373  45.3410988  41.9508286
  79.1206284  45.9104424  42.2632065  79.6385651  45.2205887  41.0194931
  58.7723503  58.9302597  63.0637970  59.1217117  58.5070076  63.8480377
  59.3864632  59.6415749  62.8817863  67.0721054  64.7546844  49.8738594
  66.3569412  65.1685944  49.3906975  67.8526611  64.9399338  49.3516998
  82.9848938  55.2882729  30.8756237  83.3319855  54.4380112  31.1454678
  82.4239120  55.0908661  30.1255817  78.7355347  45.9235039  57.3138123
  79.3031387  45.7003250  58.0515404  77.9895859  45.3295174  57.3972855
  79.2674942  19.1360836  12.6805840  78.9653549  18.2829380  12.3689957
  80.2221680  19.0666542  12.6807461  27.3726826  20.0847168   5.5852294
  26.4611301  19.9645500   5.8514318  27.8691425  19.5039997   6.1618805
   4.2905502  14.1581030  73.8831787   4.8585582  13.4665060  73.5436325
   3.9565086  14.5988302  73.1018906  46.6188469  24.7652054   2.9837077
  46.0779266  24.1744194   2.4596741  47.2283859  25.1524601   2.3554361
   1.7839978  66.9281387  29.6429520   2.2541847  66.4457703  28.9628944
   1.7926916  67.8366470  29.3416729  28.7622929  47.5828667  36.7112656
  27.9587421  47.9995308  37.0225945  28.7017250  47.6287842  35.7570877
  33.1113968  34.1228981  13.4508858  33.9796562  34.3418961  13.7891188
  32.8309059  33.3745193  13.9776573  80.3655930  61.1303787  52.4792747
  79.5575562  60.7547798  52.1296539  80.1379089  61.4033127  53.3680344
  83.5467072  25.1987705  70.4755096  83.5170746  24.2646656  70.2686310
  82.6521378  25.5054016  70.3273468  66.5516510  26.6242867  58.4831009
  67.2076950  27.2552624  58.7792625  66.0291519  27.1053886  57.8414154
  10.8263083  34.5662804  72.8900604  10.3138247  34.4124069  72.0963898
  11.7332821  34.4190483  72.6218185  20.0271873  61.7062836  87.6344681
  19.1482868  61.8056145  88.0003891  20.4928284  61.1661644  88.2729721
  22.2162819  50.7717934  13.8245592  22.8665752  51.3718529  13.4594851
  22.4495716  50.7000198  14.7501173  77.8646927  37.7433014  38.8629036
  77.0205612  37.4481888  39.2043571  77.6851730  37.9811630  37.9532738
  58.7634315  64.1809311  29.3180656  59.4724121  64.4618454  28.7395668
  58.7072296  63.2345581  29.1859379  20.7607193  59.8754692  42.5895271
  20.8671665  59.6051865  43.5015831  21.6529942  60.0321770  42.2804642
  11.8444538  24.7258587  17.0300198  12.6667471  25.2151527  17.0044003
  11.2302008  25.2634239  16.5300694  73.2125320  56.9883194  46.2555466
  73.9890671  56.9057846  46.8090973  72.9881439  57.9180183  46.2947769
  16.8425522  41.3345757  13.5409985  17.1204567  41.7515945  14.3565331
  16.7722912  40.4051971  13.7590551  51.0256119  53.1753235  63.9244270
  51.8796158  53.1126671  64.3521881  50.4011536  53.2497330  64.6460571
  57.6933861  45.6176529  83.6627884  56.7404633  45.6983757  83.6221237
  58.0192986  46.4339333  83.2837143  73.5635605  22.8305798  63.4518585
  72.9800110  22.3027534  62.9067917  73.0535736  23.6132755  63.6605186
  45.9112434  60.2055893  83.0897751  46.2844620  59.3242455  83.0768509
  46.5062370  60.7256012  82.5495911   9.6819849  65.6170959  24.6471748
   9.6374235  65.7092819  25.5988808   9.9707813  64.7153091  24.5071545
  28.3216209  53.7231522  36.2445793  28.6243896  52.8223572  36.1299934
  27.7668934  53.8881950  35.4821701  28.4001541  50.9754372  27.8101120
  29.0259914  50.9344749  27.0870075  27.6845741  51.5170250  27.4771595
  66.7840424  42.3915138  33.5097809  66.8617706  41.6107788  34.0580940
  66.8921661  43.1228981  34.1177444  13.7575550  24.3333950  13.7407303
  14.0880470  23.6372242  14.3084898  12.9805927  23.9568462  13.3274841
  42.2073898  43.1901665  84.9973450  42.9665947  43.3758163  84.4447327
  41.6864090  43.9925537  84.9660263   9.8654184  17.4327698   5.6106300
  10.7030439  17.8845787   5.5082374   9.3737230  17.9764194   6.2261891
  11.3697195  55.8883400   3.1658540  11.8881340  55.9549484   3.9677527
  10.6573839  55.2896118   3.3902028  22.0906849  16.9396858  81.3018875
  22.5358791  16.1812878  80.9239120  22.4873943  17.0438099  82.1667709
  86.2784271  24.9807816  58.7862930  87.0587921  25.3132915  58.3427925
  86.2821274  25.4181938  59.6376953  58.5995216  31.8428326  54.6708069
  58.8030930  31.3966789  53.8487740  57.9725609  31.2661839  55.1074104
  42.4938087  47.8238068  71.5331879  43.3326187  48.2322960  71.7471237
  42.2055283  47.4246368  72.3540344  26.0587006  49.1316414  65.0093994
  26.6272602  49.1022530  64.2399139  26.6133213  49.4877205  65.7035446
  51.9575081  16.4838352  41.3991776  52.0008926  17.4181442  41.1956711
  51.9052467  16.4489250  42.3543129   6.7560720  29.0830250  75.3402939
   7.2989664  29.8520641  75.1668625   6.3852286  29.2424355  76.2082138
  42.9193344  49.0186157  35.0810051  43.2441216  49.2665329  35.9466133
  43.0723953  48.0751686  35.0289345  29.2788734  61.2632217  40.7789116
  30.1387596  61.1452942  40.3752785  29.4245777  61.9115219  41.4678993
  37.2253418  12.7488909  67.8657303  37.5769958  13.1561003  68.6574020
  37.9247627  12.8399677  67.2186203   2.2714403  40.3152695  60.4683342
   2.8074188  40.0803032  61.2257957   1.3800803  40.0759125  60.7221375
  51.4286690  29.8867779  11.3488255  51.8240318  30.2476749  12.1423464
  51.5047646  28.9383507  11.4533443  52.3276825  54.1301117  47.6061935
  52.3043938  54.8204193  46.9434967  51.9395332  54.5313530  48.3837395
  31.9052658  66.3252487  18.8232746  32.7899895  66.0242233  19.0303478
  31.7068005  65.9221573  17.9780769  79.3341522  15.3915987  88.5768967
  79.8833847  15.8218079  89.2322617  78.4377365  15.5817413  88.8535080
  11.2016869   3.2902858   3.2067676  12.1308756   3.0627863   3.2396951
  10.9362993   3.3469470   4.1246948  27.1161880  30.3202286  21.1431656
  27.9174900  30.0918331  20.6720161  26.6578789  30.9233112  20.5579491
   8.2962103   1.3076094  42.1919670   7.7943511   0.6195442  42.6289291
   7.6694498   1.7208178  41.5981140  86.8276825  31.0679359  26.0716686
  87.2611847  30.5208969  25.4166451  85.8995438  30.8482227  25.9909096
  44.1724205  52.1077003  78.0708542  44.6943245  52.3872452  77.3187180
  43.2742233  52.0778999  77.7413330  79.2631607  31.5440712  76.7777939
  78.7752686  30.8962765  76.2693253  79.3073578  31.1729851  77.6590347
  74.1102524  37.3334656  28.6356468  74.6279678  38.0475464  28.2637749
  73.5052719  37.7651634  29.2388649   3.1080296  58.8808327  43.4056854
   3.3671846  57.9633026  43.3207703   3.7433505  59.2535744  44.0169640
  86.2710571   3.8784950  79.2953644  85.9399261   3.9041164  80.1931000
  86.5621033   2.9748452  79.1731339  85.0236664  20.8067436  60.3375053
  84.6774750  21.3921585  59.6639519  84.3189392  20.1780968  60.4937019
  81.1393509  64.5392685  74.6804733  81.8836517  64.9454117  74.2362823
  81.5148773  64.1506805  75.4705429   8.2702646  31.9678917  75.0697556
   7.3627057  32.0852470  74.7890472   8.2259111  31.9583340  76.0258789
  13.9391479  31.1126633  59.8466988  13.2741737  30.6675205  60.3719521
  14.7637730  30.7013378  60.1056137   1.2424222  16.4286098  45.0650864
   0.4811114  16.4661884  44.4860992   1.0010664  16.9739475  45.8138084
  58.9354858  52.0915565  19.6631165  58.4206581  51.3262253  19.4072857
  59.6602058  52.1125145  19.0381584  51.3107033  45.7966118  81.8382263
  51.9335175  46.4460068  81.5117035  51.3969955  45.8396530  82.7905502
  45.8387489  56.9939651  85.6757965  45.7546082  56.0404739  85.6779633
  46.7090187  57.1584358  86.0388565  66.0038681  35.2705650  88.4405518
  66.0370178  34.3736496  88.7732391  65.0802765  35.4159584  88.2354355
  65.9198837  65.2994995  86.4057083  66.0339203  65.7497482  85.5687408
  65.1203003  65.6760635  86.7732620  47.0811348  47.7987785  47.3402443
  46.8776360  46.8642426  47.3784447  47.1608315  47.9885330  46.4054337
   0.1616235  15.0397873  18.4082489   0.0364618  15.4612379  19.2585106
   0.8180480  14.3624029  18.5710011  19.1574631  67.4022980  50.3453636
  19.9514618  67.7610168  49.9489822  19.0922985  66.5155945  49.9907570
  83.3775101  47.4802208  63.9154396  84.0812836  47.7938499  63.3474846
  83.7567978  47.4895439  64.7942352  55.0161171  10.5630293  66.3208008
  55.0153961   9.6335907  66.0919495  54.1451569  10.7206335  66.6852417
  36.6967964  22.2642021  82.3891144  36.2633247  22.7765808  81.7066116
  36.0564995  21.5942535  82.6287384  18.4885178  25.2594967  76.3313522
  18.6502361  25.3153553  75.3895721  17.8230190  25.9264908  76.5000687
  36.8795815   0.5677763  61.9959908  36.5881538  -0.3396842  61.9075775
  37.1264572   0.6513977  62.9170189  41.7307320  61.8222733  62.7253723
  42.0519562  61.7401237  63.6233139  42.4435463  62.2540817  62.2545586
  12.4804554  34.9795074  32.8433800  11.8956451  35.1750450  33.5754929
  13.3583574  35.0085144  33.2237473  10.3940601  16.1543121   9.6625929
  11.0925560  15.9128256  10.2708855   9.9360237  15.3326874   9.4854822
  51.8175697  18.5964069  24.2023449  51.5812416  18.3205910  25.0879555
  51.7500801  19.5510063  24.2227631  78.7617035  25.5345345  64.7050400
  78.3507309  26.3013153  64.3058090  78.1414261  25.2532978  65.3776474
  67.9559937  11.9436407  36.8992577  67.1390991  12.2597475  36.5132561
  68.1957550  11.1861448  36.3654518  38.0556221  69.0859375  24.4369354
  37.6306381  69.6467896  25.0858288  38.7383041  69.6371155  24.0543423
  24.4039249  42.0156212  12.6993198  23.9448719  41.4707260  13.3385305
  23.8300514  42.0211563  11.9332447  80.2976532  57.9200249  70.2682266
  81.0626068  58.2078972  69.7700195  79.5498734  58.2586479  69.7759018
  66.4664078  42.7113304   4.1657357  66.7687225  42.6988907   5.0738540
  65.9360580  43.5055161   4.1007133  61.1211700  11.7427349  56.6421661
  61.2958603  11.2747889  55.8256226  61.9554977  11.7259521  57.1110458
  62.4631958  65.8979645  81.2630005  62.7649231  66.3625259  80.4823837
  63.2589226  65.5246964  81.6421204  31.6012211  53.7691422  68.7906952
  31.9100800  53.0752831  68.2081223  32.3189468  54.4021454  68.8108139
  66.3690186  40.1783409  22.2721519  66.5548706  39.3312035  21.8671227
  67.0128784  40.7736855  21.8884373  81.6611710  53.9108315  21.5327129
  81.5379944  53.9418297  22.4814491  80.8685913  54.3110161  21.1750889
   7.3626137   6.1225343  11.6218328   6.5454149   5.9656453  12.0949116
   7.3528566   7.0605578  11.4314442   3.4969687  63.5417442  11.8393402
   4.3742933  63.2082825  12.0273199   3.0106368  62.7766266  11.5322447
  63.4423523  11.2564087  81.3006897  63.3768425  12.1494217  81.6390228
  64.0861206  11.3143854  80.5946960  63.2602768  55.2992821  61.6100235
  64.0397339  54.7787018  61.8041344  62.7811928  54.7811928  60.9632683
  24.9704628  36.5920563  63.7057190  24.5045643  36.7423515  62.8831711
  24.2853374  36.6008987  64.3741150  68.1043777  55.3213577  73.9868393
  68.4012756  54.4124641  73.9421844  68.3490524  55.6103325  74.8659668
  59.8673172  22.0765457  21.9799633  60.0287514  22.2538204  21.0532780
  60.0281792  22.9135952  22.4155121  38.6335907  63.3393288  69.6744690
  37.7940521  63.1982613  70.1120834  38.8674202  62.4805183  69.3223343
  65.3739471  60.1386719  41.9642258  65.6170578  60.3556786  42.8642426
  64.4416580  60.3489037  41.9106407  58.2573662  61.0624275  39.5017357
  57.5262108  60.4668503  39.6658287  57.9812164  61.8930855  39.8890076
  54.9171715  22.3689804  22.7949543  55.5106544  21.7304916  22.3995533
  55.3622742  23.2093449  22.6858463  54.9740334  70.5194550  20.9883652
  54.2796974  70.3725586  20.3460655  55.4214859  69.6758728  21.0545406
  26.4043236  38.0994377  67.6953354  26.2248745  37.4376450  67.0274506
  26.3261833  38.9338226  67.2328110  14.9458199  40.6671028  68.7762299
  15.3503523  39.9256821  68.3257980  14.7217226  40.3276482  69.6427078
  23.4960155  43.8344727   6.7109957  22.6420670  44.2502289   6.5920386
  23.9524994  43.9837341   5.8830009  69.9038773  15.2225657  58.8130226
  69.7779388  14.6293221  59.5535851  70.8478165  15.3796272  58.7897835
  32.7895432  37.9452744  65.8546219  33.0560913  38.2426949  64.9847260
  32.7676430  36.9908485  65.7851410  47.0627632   7.1805916  45.8745308
  47.3775635   7.1623440  46.7783012  47.5197716   7.9215741  45.4766350
  28.1166840  66.3219604  13.1067829  27.5799809  65.8153610  12.4972458
  28.6999969  66.8323441  12.5451002  37.3565369  19.6694546  20.2456036
  37.9234123  19.6676807  21.0168858  37.9569740  19.5699654  19.5068169
   4.3138962   9.5158224   2.9174902   5.1721730   9.1648035   2.6800480
   4.0551572   9.0136185   3.6901982  80.4088669  50.7333336  46.5861626
  81.1114349  50.2687378  47.0408897  80.7140808  50.8030128  45.6816101
   0.3000015  60.9897881  35.3159065   0.6998711  61.2184677  34.4768372
  -0.0022724  61.8249855  35.6727104  82.3028793  23.1077747  27.8001213
  81.6979904  23.7280025  28.2071285  82.0704651  22.2611713  28.1815376
  53.2137527  70.0592270  45.3980446  54.0031013  70.4991455  45.7136879
  52.8945618  70.6187897  44.6900635  63.3799477  23.0348206  65.1608429
  63.8235588  22.2727604  65.5332718  62.5618362  22.6863117  64.8066254
   2.9688275  17.6521130  80.6095810   2.4277260  17.0935993  80.0514603
   3.7121136  17.0999699  80.8522644  82.2760925  27.5022278  71.5176239
  82.5158691  27.5796108  72.4410706  81.7691956  26.6917248  71.4688950
  57.9330254  56.1077003  67.2961502  58.6331558  56.1919212  66.6488800
  58.3148918  55.5755386  67.9941559  71.6941757  20.5596581  58.7729607
  71.0075760  21.2076740  58.6152039  72.1003418  20.4276695  57.9163170
  73.1996384  35.7824974  79.0384827  73.4086761  35.9884300  79.9496002
  72.4615402  36.3540840  78.8270035  65.7170715  69.7672806  27.9094734
  66.5520401  70.1261368  27.6090069  65.9559784  68.9740753  28.3890438
  55.4717255   6.1413612  63.3822746  55.2219048   6.5103259  62.5351105
  54.6847153   5.6909380  63.6888084  53.6188583  45.5304756   1.7509971
  53.2699318  46.2340050   2.2982900  52.8746986  45.2498932   1.2183369
  31.2108765  60.5055122  20.6922035  31.8722553  59.8624268  20.4367657
  31.6345692  61.0269508  21.3739815   3.2220490  10.2500038  30.1756630
   3.1893666  11.1212168  29.7805023   4.0230646  10.2545786  30.6996708
  32.3932457  36.1245537  87.8889694  32.2289200  36.5822525  87.0645065
  33.0217056  36.6800461  88.3501663  70.8231659  17.8529587  32.1337128
  71.5935287  17.9169292  31.5692005  71.1802063  17.7252197  33.0125961
  58.1714211  21.5707340  40.5202637  58.1909065  20.6511269  40.2553596
  57.3128853  21.8838768  40.2355080  21.0882397   5.4222422   0.7183249
  20.1975708   5.0956154   0.8458242  21.6092091   4.6373401   0.5487631
  32.4991455  21.6779785  73.9138184  32.3800278  21.2380409  74.7555466
  32.5173645  22.6100006  74.1311646  40.2809906  69.7580948  11.4721851
  39.5013542  70.0835876  11.9221325  40.3732796  68.8550339  11.7758303
  55.2657166   5.9580393  84.0791473  54.8737907   5.9116650  83.2070923
  55.0079651   6.8176265  84.4121704  64.3786545  52.9069901  87.2520523
  64.6716843  52.2520332  86.6184921  64.0295715  53.6191940  86.7162018
  48.3743896  39.8115845   3.2927604  47.5830193  40.2607079   3.5898376
  48.1693878  38.8808670   3.3820138  65.1979752  31.8136482  15.4784431
  64.4414673  31.2870045  15.7364655  64.9326553  32.2277679  14.6572590
  74.0830307  20.7197170  78.6314087  73.1359406  20.6638012  78.7583771
  74.4337769  19.9697418  79.1117630   0.7168435  57.0882301  31.3672791
  -0.1636081  57.1746292  31.7327538   0.6381317  57.4184494  30.4722977
  80.0864487  48.5358734  15.5560112  79.3083496  48.0023880  15.3941765
  80.3088837  48.3636398  16.4709358  67.3704910  57.4627914  38.5108833
  68.1759338  57.7378006  38.9489059  66.6971054  58.0474968  38.8586044
  45.2805977  57.0368195  11.4794159  44.8220711  56.5028076  10.8307104
  45.5180855  56.4205513  12.1722679  20.6060200  68.8425140  76.0552902
  20.5895348  69.5958557  76.6455765  19.7451305  68.8472061  75.6368713
  15.9333363  49.5116615  28.6160870  16.1368256  50.1757698  29.2747097
  15.6384964  48.7546997  29.1223564   5.5369811  34.5362358  10.0539742
   5.9970708  34.0380936  10.7295513   4.6107864  34.4438515  10.2772684
  47.0693703  52.4595795  20.6637592  46.3442116  52.9368057  20.2604847
  46.6820068  51.6323433  20.9498711  75.1945267  49.7807770  49.8067818
  75.0056229  50.6708565  50.1039429  74.6535797  49.6694031  49.0249863
  72.7672195  27.6479187  28.6034679  73.3928680  27.0753098  29.0472202
  72.3720856  28.1621571  29.3074970  15.8857737  30.7944641  84.8004074
  15.1815710  31.2139778  85.2947159  15.7111969  31.0289078  83.8889313
  12.7507992   2.6133161  29.5308247  12.2522020   1.8048488  29.6492004
  12.1836557   3.1682718  28.9954700  78.0646515  11.4790030  61.2524300
  78.7018738  11.8352013  60.6333122  78.0029984  10.5511503  61.0254517
  24.0349598  35.8921928  69.5704498  23.2239418  35.3922195  69.6626816
  24.3072395  35.7420616  68.6651535  34.2592659  62.4286537  46.8826675
  34.8352699  62.9739418  47.4184952  33.9285965  63.0210419  46.2074165
  26.4615917  71.5260925  68.9175644  26.0510921  70.7105865  69.2051010
  27.3663425  71.4594498  69.2228775   0.3620920  57.7520218  49.3215866
  -0.5290167  58.0343132  49.5276642   0.5435888  57.0536652  49.9505424
  52.8020325  58.5135269  38.3858223  53.3066177  58.7233238  39.1717033
  52.5468788  59.3649712  38.0306244  80.2162247  28.6212177  39.6217499
  80.6846542  28.0079670  39.0554199  80.4128113  28.3246098  40.5103493
  61.4311295  58.0327454  71.0403442  61.5761948  57.3363762  70.3998337
  62.2516174  58.0816917  71.5308914  49.2184868   4.7423706   9.4420223
  48.4656372   5.0202842   9.9637671  48.8599968   4.5867081   8.5682459
  79.3028412  63.5276451  26.2410660  79.1133499  62.8324089  25.6110096
  79.1467285  64.3385773  25.7570667  59.2329102   8.7879782  12.3552666
  58.8224831   8.5297976  13.1805687  59.2873726   7.9764032  11.8506756
  36.0599937   4.6089430   8.6280079  36.1529350   5.4286613   8.1425648
  35.1429825   4.5955749   8.9021368  12.7795858  59.8586578  38.6329193
  12.9882908  59.0616646  38.1456032  11.8235197  59.9035378  38.6205139
   9.1469603  14.4878292  15.4206829   9.2576523  14.8802814  16.2866859
   8.5077848  15.0499897  14.9828901   5.7008662  17.5238838   5.8946052
   5.4955902  16.7333107   6.3936906   6.5167503  17.8446350   6.2789025
   4.7100816  70.3079987  20.2782288   3.9765503  70.1777496  20.8792286
   4.8252263  69.4581451  19.8531189  52.8110275  71.4015121  49.3477058
  52.1123276  70.7472763  49.3428154  52.5030937  72.0762711  49.9527702
  55.0924339  47.5046768  48.4987793  54.4476547  48.0749130  48.0800629
  55.1541557  46.7461319  47.9182320  38.0535812  45.4855804  11.4923811
  38.0906754  44.5554886  11.7155037  38.5941277  45.5650864  10.7064323
  55.2626534  49.5354729  27.0418110  54.9268379  48.8715172  26.4396305
  56.2144127  49.4506989  26.9852352   1.1877273  35.2076302  49.1202431
   0.8218905  34.4286461  48.7012215   2.0869486  35.2543106  48.7955055
   0.4458392  54.8481407  14.3371353   0.6852463  54.0212250  14.7556152
   0.0999967  55.3857994  15.0495596  54.1665802  33.8002930  14.8780365
  53.6476364  34.5925941  14.7395105  53.5332298  33.1487122  15.1789465
  12.8690166  63.1270523  22.1794872  12.9416952  62.4062729  22.8051300
  13.6756382  63.0809212  21.6661987  56.4058990  57.2159538  52.7612381
  55.4870110  57.3587265  52.9881554  56.4801292  57.5236702  51.8578911
  36.8271751   7.7944808  67.9637527  37.6813812   7.7936230  67.5318222
  36.4697990   8.6645021  67.7860489  84.4955063  60.3724480   9.8002052
  84.5303268  59.6619797   9.1596956  84.9384232  61.1041908   9.3705463
   4.4046860  67.3165512  33.8508224   5.1108003  66.7525940  34.1663933
   3.9711299  66.8000793  33.1714668  79.8156891  47.8647232  24.8093147
  80.7569962  47.8216629  24.6410332  79.4905930  46.9952736  24.5756512
  52.6995125  69.7870865  79.9972458  52.1459198  69.2656860  80.5785446
  53.3733177  69.1769638  79.6972961  80.1127319  69.3325729   9.7192068
  79.6441498  68.6213226   9.2824316  80.6522522  68.8950424  10.3777800
  81.0493164  53.9384613  48.1178856  81.9359894  54.2486877  47.9340363
  80.6588974  54.6311417  48.6508026  63.4777069  23.0702667   3.9367945
  64.3272934  22.8450661   4.3158994  62.8383179  22.7254848   4.5601254
  74.5085526  69.3554611  50.5211639  75.3514481  69.6739502  50.1981812
  74.3931961  69.7951813  51.3635292  24.0618534  27.1688824   3.4872916
  24.6518707  26.8567009   2.8012478  24.4066029  28.0292149   3.7264733
  70.5531311  70.4094849  39.6693611  70.8402710  70.9197159  38.9121017
  71.2808685  69.8134384  39.8464470  20.1581707  23.1840992   6.0426917
  20.6730461  22.4278698   5.7611704  20.5552940  23.4487514   6.8724408
  65.1313782   8.2184324  68.8593140  65.3199158   7.9400482  67.9631042
  65.9267883   8.0071201  69.3480911  71.1428909  33.9536476  23.8451653
  71.6510391  33.1517334  23.9674511  70.6169510  33.7869873  23.0629597
  37.9144363   0.5782755  33.5335999  38.8203278   0.8598747  33.4059563
  37.6424141   1.0070277  34.3450203  23.2716351  15.2268362   0.7237790
  23.5698566  15.6281309  -0.0924681  23.8485985  15.5916405   1.3947967
  38.3344345   6.1653786  70.1827698  37.6141434   6.6865768  70.5373993
  38.8444099   6.7851624  69.6612091  17.3943100  24.6157894   1.1143510
  17.4062767  23.6785736   0.9201515  17.5984898  25.0361137   0.2789654
  72.8902969  32.0734558  39.1108932  73.0050812  32.6378593  38.3463631
  73.0155106  32.6562691  39.8598175  65.7292023  56.8475304  64.9328842
  64.8468552  56.8352051  65.3037567  65.9755554  55.9247055  64.8701477
  73.2097855  47.6760025  63.4565010  72.5892792  47.4104805  64.1352463
  72.6980286  48.2309608  62.8679810  66.4614487  66.5325089  33.3243561
  66.7531509  67.3930359  33.6253967  67.2521820  65.9932632  33.3380356
  49.3006134  22.3169785   0.4741295  48.9488449  22.0686054   1.3289987
  50.2097549  22.0181026   0.4932132  63.5596962  50.7144775   5.8704300
  63.3263741  50.0083237   5.2678180  64.4018021  50.4468193   6.2384696
   1.1928889  47.7942352  46.1847458   1.9965210  47.6471062  46.6835060
   1.2419266  48.7118454  45.9167557  15.0463762  36.8877411  15.1528177
  14.6886921  36.0484390  14.8632193  15.9627180  36.8655396  14.8770351
  41.0444260   1.5341605   5.0321436  40.1307564   1.2628636   5.1206608
  41.0088997   2.4903450   5.0060520  16.1118774  31.9078789  11.7734365
  15.4965239  31.4125538  12.3140154  16.2932472  31.3335075  11.0295048
  33.4707870   1.9431498  84.3379898  33.1797943   2.0348170  85.2452698
  33.8577271   2.7920094  84.1236343  58.6782112  27.1752739  11.1265001
  59.4281120  27.7045269  10.8548927  58.6749840  27.2368698  12.0817108
  54.9291992  69.8276825  85.9163055  55.7671165  69.9415817  85.4678040
  55.0251236  69.0061340  86.3980560  84.9745026  61.3527336  19.7796783
  85.1986389  60.4590645  19.5201588  84.0960846  61.2805443  20.1530342
  13.6533680  40.6557770   3.0600207  14.3625546  40.1431961   2.6720161
  12.8589821  40.1672707   2.8442781  33.8007965  52.5916634  15.9082661
  33.6617432  52.0678444  15.1192713  34.6253891  52.2663765  16.2694721
  77.0541992   4.6838975  53.6301804  76.8679504   5.0645366  54.4884682
  77.5474854   3.8867328  53.8236427  33.6756287  34.4439278  70.9346237
  34.4011230  35.0678825  70.9585190  33.9766960  33.7061234  71.4649429
  36.1884346  46.5049019  21.1696472  35.2805786  46.7515869  21.3462162
  36.2233887  46.3832932  20.2208481  46.1542244  37.6681213  75.4730606
  45.6659393  38.2374420  74.8783493  46.2387695  38.1789322  76.2781448
  35.9386177  54.8812981  25.4691849  35.3489456  55.4660378  25.9452076
  36.3479614  54.3475952  26.1502361  58.9118423   2.4313948  89.3068390
  58.4059753   3.2157674  89.5191803  58.7784538   2.3074799  88.3671112
  43.3970222  44.1280823  31.0349007  42.7251015  44.2934685  30.3735390
  44.1299095  44.6870689  30.7767467  30.1275082  62.9154167  71.9386520
  30.1840820  63.8343620  72.2005157  29.6711121  62.9337349  71.0974655
  71.3481750  44.8088531  34.2861633  71.3284378  45.0672150  35.2076225
  72.0493011  45.3369141  33.9043198  23.9015102  30.2092495  88.7526855
  23.2519054  30.7203960  88.2700119  23.6820278  29.2980881  88.5581436
   4.7844095  14.1478281  55.1054688   5.5202694  13.5793123  55.3324738
   4.0091958  13.6049643  55.2489090  23.0795364  62.5180397   5.1587648
  22.1436253  62.3975563   5.3193493  23.4670982  62.5744286   6.0321765
  42.2799416   5.1415272   1.4132354  41.3557205   5.0862613   1.1703534
  42.3729019   6.0095077   1.8059187  13.6093931  50.2970352  67.8197479
  13.5280962  50.8333473  68.6084137  12.9940691  50.6882286  67.1996078
  57.6857147  41.9601021  28.5100269  57.8279648  41.1892929  27.9606171
  57.8351364  41.6487846  29.4027691  86.0106277  11.7577047  62.9535980
  85.8732910  10.9400864  62.4751930  85.8305969  12.4441786  62.3112793
  69.5627594  13.5891371  34.6324081  68.8793335  14.0001087  35.1618080
  69.5060654  14.0294247  33.7843704  11.7548609  10.9646235  59.0683517
  11.9488420  11.1506233  58.1496544  12.5914183  10.6810608  59.4371300
  74.3650131  40.6820335  37.6415367  74.0773621  41.4997902  37.2356262
  74.8704987  40.9588432  38.4057961  53.4667473  44.7994347  60.1276932
  52.8176880  44.1078148  60.2565994  53.3308907  45.3956680  60.8640900
  83.8105774  64.8907471  45.4249344  84.4917297  65.4564972  45.7885246
  83.1418991  64.8511581  46.1086960  48.4604073   3.6825039  78.1513367
  48.1726036   3.0165966  78.7758102  48.8190346   4.3829060  78.6963654
  65.7828293  71.1878662  82.8258209  65.4136276  72.0060425  83.1582489
  65.2797012  70.5021667  83.2650528   9.6392355  10.4255009  68.1220703
   9.1619816   9.6282234  68.3518829  10.5480585  10.1410999  68.0251770
  83.9246750  55.2631607  77.9204559  84.8483276  55.3410301  78.1592865
  83.8392563  54.3721085  77.5813980  51.1528511  19.5142498  79.4128189
  51.0235214  20.4485855  79.5756760  51.5612297  19.4761524  78.5479507
  29.9702377  36.7317085  18.4617195  30.8053169  36.4487381  18.8342800
  29.8459606  36.1689339  17.6974735  69.2965927  43.8301277  19.6542797
  69.4626160  43.7067070  18.7197018  69.9238739  44.5016060  19.9223499
  77.6626892  60.1587067  20.2443390  77.7058945  59.2085266  20.3516808
  77.7377472  60.5039024  21.1339664   8.6892138  65.3358459  52.6862335
   7.7960873  65.3780136  52.3445053   8.6243038  64.7722702  53.4572105
  43.3902473  69.3280106  70.8572693  43.6334877  69.8697128  71.6080246
  42.7051353  69.8277435  70.4132919  11.0189104   9.5683746  82.7744522
  10.5622711   9.1461401  83.5020752  10.3297749  10.0247717  82.2917252
  45.9204636  17.4058189   3.1467419  46.6360359  17.3125553   3.7756193
  46.2480392  16.9921684   2.3481061  30.8893547   7.7609081  59.9698105
  30.8016415   8.4380980  60.6405945  30.6687489   8.2048645  59.1509895
  82.9775467  33.1509781   8.4189205  83.1583939  34.0806274   8.5577631
  82.4240417  32.9015236   9.1589479  74.8421402  22.9071426  79.9474030
  74.4519119  22.1725597  79.4737625  75.2476349  22.5076427  80.7169571
  49.6817589  13.4957390  19.3435516  50.6240158  13.3283587  19.3627148
  49.5600243  14.2466669  19.9245167  58.4722748  25.8276863  36.3455887
  57.6295967  25.9773827  35.9169655  59.1207848  25.9765301  35.6574669
  24.3441391   7.4802880  78.2498093  24.2569389   7.0722647  77.3883362
  23.5463791   7.9995379  78.3507538  49.1831398  52.4224625  15.0843067
  49.6110344  53.2751122  15.1626091  49.5156403  52.0622215  14.2621727
   0.5004177   5.0748253  64.8704910   0.7167463   5.5816059  65.6531830
   0.4759848   5.7217731  64.1654358  17.1894455  28.1521797  56.2122040
  16.9220638  27.5648079  56.9191208  17.2280521  29.0168571  56.6209488
  15.6706638  46.6460457  13.1001568  16.1369705  46.1022568  12.4652662
  14.7483025  46.4228630  12.9749699  47.6866798  40.1472778  60.6347313
  47.6504936  41.0719337  60.3899155  48.4800873  39.8184853  60.2120857
  76.8431778  70.7923203  24.3190460  77.1271896  71.2988968  23.5581608
  77.3737183  71.1277542  25.0417099  24.4825478  52.2291107  60.5968475
  24.8915844  52.1600456  61.4594879  24.6417503  53.1338882  60.3280296
  49.2245026  27.0304012   4.5118918  49.4373055  26.6682339   5.3719978
  50.0085258  27.5162315   4.2559366  73.1644745  18.6080608  22.6367550
  73.4600754  18.0271873  23.3377800  73.5344391  19.4618683  22.8611813
   0.4196203  25.0867558  73.2399521  -0.3260258  24.6178226  73.6145782
   1.0656669  25.1122684  73.9457855  26.9739017  43.6657333  17.4495544
  26.6746902  43.0881119  18.1517372  26.4708042  43.3912468  16.6828861
   1.5425409  60.0205803  53.4587288   0.6956118  59.5761604  53.4208565
   2.1631405  59.3840027  53.1039696  54.0606499  48.3444252  39.8754539
  53.1953964  48.6996040  40.0789490  54.0681458  47.4807777  40.2881165
  86.1396561  45.6945572  36.6087074  85.5927200  45.5395279  37.3788109
  85.6726456  46.3686638  36.1150360  82.5752869  35.1147881  16.0669060
  82.2063751  35.5255775  16.8488197  82.3907700  35.7344666  15.3610868
   4.4134612  59.0228462  84.6656418   4.5388942  59.9394302  84.9113464
   4.7660003  58.9624863  83.7777710  82.3415070  59.6775360  72.1993713
  81.8367004  59.0521622  72.7192917  82.0468903  59.5342102  71.2999878
  14.9887257  54.3554039  65.3867111  15.2034779  53.7889557  64.6455994
  14.9369888  53.7611122  66.1352921  44.6153526  12.7172384  76.3388824
  44.1053352  12.2569494  75.6723633  43.9836922  13.2949572  76.7672272
  36.7590332  53.6997833  72.4281845  36.6515884  54.5504684  72.8536453
  37.6603928  53.4453163  72.6257477  26.6192303  66.7280197  59.2548485
  25.7246208  66.5372620  59.5368385  27.0732479  66.9863434  60.0569534
  72.1506424  32.4704514  56.6915131  72.8155518  31.8003387  56.5331497
  72.3968201  32.8583946  57.5312309  10.8734837  10.7366562  19.2603016
  11.1009178  10.0013218  18.6912766  11.7024422  10.9911823  19.6656132
  28.0966110  15.1260614  47.7765999  27.2014465  14.8096752  47.6548920
  28.0567760  16.0533791  47.5426598  31.1281319  21.3825569  66.1190262
  31.3809299  21.2631969  67.0344925  31.7235794  20.8145485  65.6301117
  72.3327408  50.5530434  35.6721001  72.3611908  51.5047798  35.5740128
  72.4703064  50.4044609  36.6076393  20.1585121  37.5949135  10.1103153
  19.4352303  37.9392242   9.5863428  20.5086784  36.8721313   9.5895462
  82.0526123  56.9847565  44.5333443  82.9501419  57.1864357  44.2687874
  82.0149155  56.0283470  44.5429420   5.5252032  40.4343262  16.9528236
   5.0093951  41.1689949  16.6204987   4.8895402  39.8816071  17.4074268
  47.9705582  49.0090790  42.9967155  48.7582741  48.4711647  42.9168205
  47.5729218  48.9822540  42.1264305  81.0404510  43.2313080  66.5803986
  81.9464417  43.5057220  66.4386368  80.5745316  43.5307961  65.7997208
  17.1495972  50.6195068  60.7502289  17.6070576  50.4083023  61.5640793
  16.5229855  51.2996330  60.9972496  24.1813889  14.3639383   3.6200473
  24.4950752  13.8507090   4.3646469  24.8695278  15.0118895   3.4688630
  78.4634705  58.5485229  48.8124695  78.8035583  59.0797157  48.0924644
  78.6995239  57.6505203  48.5798721  77.1894073  42.3390732  60.0279007
  77.2393723  41.3941650  59.8833961  78.0926361  42.6431198  59.9385910
   1.2950588  41.6217422  27.4814148   0.6007977  41.2859573  28.0484085
   1.8997188  40.8864021  27.3819695  42.8908844  40.6242981  13.5955629
  42.5644150  39.7323494  13.4768963  43.8291779  40.5171394  13.7516079
  85.3401108  14.1579189  31.9687252  85.3579102  13.3039293  32.4007187
  84.5450516  14.1403189  31.4359875  67.5452194  38.3569832  70.3307877
  67.6177292  37.7495499  69.5945816  68.3070831  38.9299889  70.2444611
   2.6593781  67.3957520   9.1481943   2.0767481  67.5528488   9.8912249
   3.2053418  66.6592865   9.4234610  86.8246613  17.4650803  51.0448723
  86.3506317  16.6334991  51.0445213  86.9988785  17.6410751  51.9694824
  49.9966202  58.5953941  59.7353859  50.3301926  58.0082703  59.0569725
  49.0583344  58.4097481  59.7726402  33.6142540  64.6791306  58.0511208
  33.1595230  65.4227295  58.4467392  33.9620781  64.1876373  58.7952194
   0.4409291  69.7548294  37.9748039   0.9216765  69.5829849  37.1651230
   0.3594742  70.7080002  38.0072937  32.7549858  67.5970993  26.3566303
  32.4497337  67.7525024  27.2504444  32.8992691  66.6518097  26.3137608
  30.0236397  12.2894278  76.9966888  30.9194565  11.9609375  76.9202805
  29.5891075  11.6667681  77.5795364  35.2429504   0.6172283  82.0737991
  34.7372360   0.0411948  82.6470947  36.1557198   0.3886258  82.2493668
  70.2513199  62.7135849  10.8154392  71.0390015  63.0699272  11.2262936
  69.9622040  62.0224075  11.4111891  73.0828857  59.9374275  51.0278206
  73.4463272  59.4889946  51.7913933  73.5949860  59.6069412  50.2897377
  52.5397339  40.6112137  51.3555527  52.1536293  39.8286514  51.7489357
  53.4425468  40.3604126  51.1599503  61.9347076   5.0412869  39.7636642
  61.7005844   5.7134576  39.1236610  61.6739502   4.2174158  39.3519936
  61.0700493   8.3867111  28.9260902  61.2529297   9.1356249  28.3587151
  60.1562958   8.5014553  29.1870880  83.3431320  13.9779463  54.5124092
  84.0487289  13.9750900  55.1592102  83.3075638  14.8822880  54.2007484
  25.2229023  66.7032394  56.6362839  25.1742306  67.6592026  56.6361580
  25.5539989  66.4803925  57.5063095  64.3298035  45.3336334  83.5742188
  64.4004517  45.9554176  82.8499069  64.1679459  45.8795776  84.3436203
   9.3637867  49.0021629  72.1171036   8.9411869  48.4695625  72.7908783
   9.0244875  48.6570854  71.2912521  63.3814697  63.9788170  48.8120956
  63.7749176  64.8365707  48.6518097  63.8240204  63.3936577  48.1973038
  34.2817116  54.3171654   2.0369685  33.3862762  54.2660255   1.7025921
  34.7718735  53.6894379   1.5059936  15.7311163  12.2904482   7.7920313
  15.2886848  11.9119854   7.0322609  16.3055687  11.5925341   8.1069155
   3.9699764  32.7110291  40.1309128   3.0152102  32.7426949  40.0704918
   4.1558452  32.8477669  41.0598831  62.8825417  54.4449348  16.9170437
  63.1647987  53.9704628  17.6989880  63.4130363  54.0780945  16.2097683
  15.5268259  25.4537449  20.6377544  16.1578369  24.9267979  21.1280441
  15.8493366  26.3512459  20.7196808  11.5511599  70.9211960  80.4802780
  11.0814438  71.5453491  79.9270859  10.8614941  70.4414291  80.9389954
  59.5326920  24.8423824   9.6923389  59.4446526  24.0246868  10.1820889
  59.2010002  25.5148373  10.2873335  79.4897461   3.6660886  15.7571125
  79.2786789   4.3470335  15.1183662  78.7237701   3.0920551  15.7571850
  57.8910561  51.2406425  87.5501099  57.8624420  51.0267105  86.6175613
  58.1260109  50.4171028  87.9776688  28.8291492  21.6298485   9.6621914
  28.2650738  22.3800106   9.8500957  28.2361183  20.8784847   9.6615000
  29.1354675  58.1548843  20.3843365  29.0948811  57.3251648  20.8598862
  29.8929405  58.6070595  20.7558250  38.8052025  50.5431747  82.9984589
  39.3682785  50.3647919  83.7516861  38.3004189  51.3151779  83.2542648
  59.1224594  35.7023468  28.4193153  59.8991394  35.3963890  28.8877029
  59.3437920  36.5919609  28.1439419  77.0194473   4.3449163  36.2216644
  77.5658112   4.8958020  35.6610870  76.3562012   4.9408336  36.5698204
  55.4058418   1.0171468  87.4651031  55.0209694   1.5531094  86.7716675
  56.2198029   0.6845294  87.0868683   0.3739192  56.1409874  58.3062477
   0.8154631  56.7501335  57.7144585   0.9769933  56.0433731  59.0431366
  33.2538605  31.1605721  80.2915497  33.0507851  30.2633381  80.5560608
  33.6550827  31.5537605  81.0665665  74.7985077  15.2224445  22.8346310
  74.6129150  15.7389565  23.6188526  74.8638992  15.8690557  22.1318874
  65.8942719  19.8467846  39.4236259  65.4673462  20.3119717  40.1430473
  65.2739105  19.9079742  38.6972427  47.9105301  51.6764069  68.1859207
  48.4466400  51.2328453  67.5285950  47.1484718  51.1078987  68.2967987
  73.8888779  22.0500431  41.9756737  74.7871552  21.7603970  41.8162079
  73.4975510  21.3444176  42.4906387  85.3591080  54.7945633  47.4477615
  86.2922058  55.0074577  47.4629402  85.2654724  54.0829201  48.0810280
   2.8735921   7.4658356  76.6337738   1.9556442   7.4098496  76.8992386
   2.8473618   7.4542909  75.6770020  53.3086014  14.4489241  81.0797043
  52.8987541  15.0905800  80.4995880  54.2468147  14.5408964  80.9137878
  64.2616577  47.9300919  66.4558640  64.0604019  48.8655281  66.4296722
  63.5946121  47.5259590  65.9009247  23.6528778  32.4477043  30.2184124
  22.8563423  32.5595589  30.7373047  23.8802395  33.3331757  29.9347248
  55.9689789  11.7333593  31.4133339  55.2137527  11.1694002  31.5801125
  55.6225624  12.4443207  30.8741112  37.2848625  22.0512390  76.3161011
  37.0892487  21.3140011  76.8944168  38.2409554  22.0925274  76.2957001
  54.9417038  46.9314690  82.8577271  54.4325485  46.7062569  82.0790939
  54.6586761  46.3006554  83.5196991  59.4111633  39.8848381  49.9114609
  58.5790558  40.3577118  49.8968124  59.3077965  39.2397919  50.6110802
  63.8486481  28.1707287  77.4255447  64.5575256  27.5286674  77.4640961
  64.1630554  28.9064674  77.9509659  50.7548027  59.4440155  73.6922989
  50.3684464  60.1638298  73.1934738  51.6592445  59.7172966  73.8457260
   9.2715769  23.6684170  14.5258837   8.7548571  23.2930145  15.2388391
   9.0163527  23.1637478  13.7536135  20.4442749  70.2323761   6.2672100
  21.3695068  70.3818970   6.0727391  20.1593475  71.0336227   6.7065783
   5.4757242  14.2489138  14.0421143   5.4834023  14.9005051  14.7432575
   4.7229223  14.4878359  13.5013399  59.1716843  22.9528427  74.0867386
  58.3046913  22.5865498  73.9124298  59.7473106  22.1900501  74.1418076
  22.7321682  53.8569069  26.7453594  22.2358856  53.2421684  26.2049580
  22.1486816  54.6083717  26.8506184  55.7339134  54.8718033  54.9756241
  55.6856270  55.0211830  54.0313873  56.4068336  54.1987305  55.0775299
  11.2844543  50.5599861  14.4414425  11.9877176  49.9825974  14.7385511
  10.7141552  50.6549759  15.2043114  79.0566635  33.7025223  51.5835381
  78.1207962  33.6474304  51.7767868  79.2900696  32.8260651  51.2776337
  61.8638191  18.7201290  36.5470390  62.7489319  18.6963673  36.9106979
  61.7391090  19.6307201  36.2796440  25.7534542  43.9514122  58.9282188
  26.0330448  44.6161003  59.5577011  25.1512184  44.4126625  58.3444481
  53.1427345  24.6085796  56.0276642  53.7591171  24.6590023  55.2970734
  52.8469124  25.5100975  56.1541061  29.8869820  30.4944420  67.4958725
  29.4908028  30.1044750  68.2751007  29.2511406  30.3346958  66.7984314
  72.3628235  51.7884102  59.2791328  72.2389832  52.5713654  58.7425957
  72.3034897  51.0614395  58.6592712  23.3213654   8.7778025  82.0830078
  23.2386646   9.3570271  81.3254471  23.2673950   9.3627348  82.8387680
  31.8827038  36.3192635   8.9281311  31.6122494  35.7176552   8.2344790
  32.3726349  35.7722130   9.5420790  10.9330511  38.1678352  52.1038818
  10.6059742  37.5443230  52.7523308  10.7826805  39.0262184  52.4998550
  25.9594994  45.9503746   0.7347924  25.7035732  46.3611755   1.5606104
  26.3999844  45.1416779   0.9959703  43.0991287  51.6642342  87.2774277
  42.1715622  51.4598732  87.3961334  43.2337456  51.6250458  86.3305511
   3.2954938  59.3664436  14.2955770   2.6372035  58.6996460  14.0999556
   3.9783845  59.2286682  13.6391392  82.1793442  26.1448669  23.5487881
  81.6114960  25.6682224  24.1542549  82.9710617  25.6099434  23.4915485
  54.4156342  31.1523399  70.3717575  53.9784889  30.5614491  70.9849319
  54.1528320  32.0282326  70.6545639  73.8086166  42.3448601  45.1525116
  73.5762177  43.1996498  45.5152245  72.9903488  41.8483925  45.1661530
  76.1180420  -0.0438176  75.9345703  76.9517593   0.0860926  76.3865433
  75.7289734   0.8297966  75.8939056  79.8541565   1.7941939  60.7784882
  78.9636459   1.4541463  60.6913490  80.4167786   1.0489644  60.5679588
   5.8641005  38.2683907  76.0123749   4.9158058  38.2615738  76.1424637
   6.0071750  37.6906433  75.2627258  63.2725296  45.4976311  10.3373203
  62.8736076  46.1190529   9.7282801  63.5656471  44.7740555   9.7834721
  60.4918900  62.5933876  14.7459879  60.9526443  62.4415283  13.9208364
  60.8851166  63.3926888  15.0963011  53.0890961  42.9207230  57.3946686
  53.7947617  42.6643333  57.9884148  53.5066833  42.9733582  56.5349731
  76.8412704  42.6758194  67.1167679  77.1206741  42.9629974  66.2474594
  75.8857651  42.7260666  67.0899963  12.8634214  35.8411407  60.1031990
  13.0582771  34.9346542  59.8654060  13.5345955  36.3558769  59.6550827
  52.5500946  60.2246590  83.3278351  51.9769974  59.8126183  83.9743729
  53.3806801  59.7561989  83.4109268  13.5853930  64.5772934  49.6201515
  13.2351933  64.2259521  48.8015213  13.9245577  65.4408112  49.3845062
   5.0376377  17.2818260  29.3246403   4.6228409  17.3521271  30.1844273
   4.3226428  17.0498524  28.7320175  80.5183182  21.2672787  76.0679779
  80.5135345  21.9042835  76.7824173  81.1105042  21.6426716  75.4163437
  75.5881424  54.9211845  78.4883270  76.2395630  55.0862846  77.8066940
  75.7386627  55.6102753  79.1354218   6.1773500  17.4475307  32.2995987
   5.6920943  16.6592178  32.0560379   5.8093615  17.7035751  33.1453285
  71.0843964  30.4433403  28.1842766  71.4014816  30.5414886  27.2864723
  70.7867737  31.3192062  28.4302692  57.2567596  13.9249792  26.3533916
  57.2426949  14.6118765  27.0198784  56.4372253  14.0409250  25.8726139
  62.8369141  64.8154907   6.6749344  62.6956902  64.2202835   7.4111514
  63.6060562  65.3274765   6.9249921  84.0763855  67.4312973  28.6963139
  84.0602036  66.8901138  29.4856758  84.0808334  68.3310699  29.0228443
   8.1926746  16.9818211  14.4463415   8.8915129  16.9565830  13.7927208
   7.4038630  17.1900101  13.9456768  69.3356476  69.3339767  15.8771915
  70.0468979  68.6938934  15.9025488  69.3956833  69.7920761  16.7155037
  58.1297646  65.5200424  38.7491570  58.9434433  65.9071503  39.0721245
  58.2649727  65.4306793  37.8057785  24.1357613   9.0474882  40.0405006
  23.7980118   9.6673746  40.6869507  23.3623238   8.5713129  39.7383652
  27.4045238  12.3245926  29.1524372  27.8667946  11.7634592  28.5298080
  26.5686932  12.5164204  28.7272072  32.0984840  35.1187592  64.5264969
  31.6889267  34.5036011  65.1348267  32.9911804  34.7905617  64.4187469
  56.8218269  12.0604820  12.5885677  56.9077454  11.1722116  12.2424097
  57.2823944  12.0362635  13.4273291  25.9749928  36.5306549   4.3593526
  25.6740417  36.0516281   3.5872173  25.2315369  36.5053635   4.9617352
  51.6945229  65.8108139  10.9163885  51.8520241  64.9206619  11.2311087
  52.2946091  66.3548737  11.4264183  51.3024406  19.3296471  57.6341743
  51.6994095  19.0389023  58.4552193  50.3664932  19.3848515  57.8270149
  37.2991600  61.1430588   2.6938221  37.6318512  60.2468033   2.6461749
  36.3763466  61.0438652   2.9279292  30.5056458  65.8541107  61.5877457
  30.7144527  65.9023666  62.5206451  30.1641693  64.9684601  61.4642372
  85.0860214  37.9588127  47.8820038  85.3988724  37.9056931  48.7850723
  85.6495743  38.6146393  47.4714775  82.8519669  25.8371677  80.8071671
  82.1931152  26.5314541  80.7969513  82.6989288  25.3498135  79.9976654
  52.9208832  44.3311882  77.6495056  52.8878365  43.3794670  77.7463074
  52.0092697  44.6118774  77.7295837  15.2629786  53.9693985  45.6829872
  16.0065060  53.9209862  46.2838669  15.6296539  54.3329659  44.8770103
   5.8463144  35.9636192  72.9492188   6.1902504  35.6426659  72.1155930
   6.5476184  35.7950249  73.5784836  38.0465622  62.4076767  65.6681519
  37.7906761  62.9276543  66.4299774  38.9647179  62.1877098  65.8257446
  63.0068665  30.1509781  84.5370178  62.9772530  30.3149643  83.5944366
  63.4975624  29.3335915  84.6226273   3.9754493  56.2812233  42.6964912
   4.2897062  56.0808296  43.5781479   4.7596245  56.2452240  42.1487617
   1.5844429  62.7530098   2.6841705   1.3203516  62.1697769   3.3957362
   2.0110500  63.4887695   3.1233726  59.3421288   3.9933541  24.7055626
  58.5975685   3.5105522  24.3467236  60.1107292   3.5246131  24.3803463
  59.3161926  37.2332344  36.0201378  59.2588768  36.5659866  35.3362312
  58.9107323  36.8266716  36.7859993  71.2156906  10.6854620  34.1419830
  71.0745926  11.1470194  33.3153687  71.4973145  11.3672609  34.7519569
  30.6918240   7.4819460  83.1894455  31.0316448   6.8505559  83.8235626
  30.9991741   7.1595635  82.3421936  17.4222298  22.3925457   6.0699582
  18.2378769  22.8868027   5.9883366  16.9301796  22.6099529   5.2782178
  38.3627815  14.5894203  69.8480148  39.1450272  14.7944813  70.3601379
  38.1788177  15.3920393  69.3599625  46.8633804   4.0142784  49.1367188
  45.9419746   3.8261633  49.3152046  47.3210945   3.2041614  49.3613014
  16.8109837  62.3054695  38.1077881  17.6290569  62.1402817  38.5765114
  17.0733337  62.3921509  37.1913338  47.5593719  48.7736282   4.8146911
  47.4900246  47.8853836   5.1646118  46.6736107  49.1292534   4.8866920
  83.7979584  13.7782383  44.3375282  84.3133316  14.5812302  44.2612076
  83.2166748  13.7935390  43.5771904  51.7068863   2.5083318  55.5168724
  51.8004532   3.3635886  55.9364128  52.5684433   2.3312523  55.1392555
  82.9811859   9.6404619  62.6943703  83.1610260   8.7398186  62.4246864
  83.1566086   9.6482840  63.6353264  43.1979256  42.3210831  51.4487076
  43.7976074  41.5829391  51.3402748  42.3505783  41.9864044  51.1550674
  81.3762589  14.1486788  47.5665817  82.3288193  14.0578127  47.5422325
  81.2120438  14.7572031  48.2869720  61.4921494  26.4596252  59.4690819
  61.3469849  26.1276798  60.3550682  61.6089439  25.6738682  58.9350624
  81.5896759  54.4223022  11.0207291  80.8629761  54.9525566  10.6936550
  81.7063904  54.7086639  11.9266024  85.4994583  16.7549534  37.3650665
  85.7851639  15.8791494  37.1051178  86.2840881  17.2970371  37.2830162
   2.1588137  29.2966366  34.8203163   1.9768912  28.4857826  35.2953453
   1.3146764  29.5499668  34.4468384  83.6348190  33.1796608  74.2923584
  82.8122787  32.9067307  74.6987686  84.1739655  32.3887520  74.2883072
  74.7691727  35.2071495  11.3490057  74.5951462  34.2779007  11.4988022
  75.3347931  35.2234879  10.5769682  77.5344086  34.6186943  38.8536606
  78.1606140  34.8499107  39.5396919  77.0622482  33.8637619  39.2049026
  48.5729256  43.7945671  66.2629242  49.4170074  43.5156479  66.6178284
  47.9475746  43.6185417  66.9659119   7.6743970  69.3309326  87.5585938
   8.4523211  69.8809357  87.4660263   6.9425974  69.9478989  87.5510712
  33.2681084   4.4182434  25.7819843  33.0596809   5.1846538  26.3162155
  33.2057495   3.6798227  26.3878536   0.4650929  59.9150925  88.6506500
   0.1312459  59.5225449  87.8439941  -0.0551717  59.5126228  89.3460388
  52.0224380  23.5725212  77.5206146  52.7594795  22.9631100  77.4803619
  51.9994087  23.9781208  76.6539001  75.3347092  53.2995110  14.1948147
  75.8239136  52.7629967  13.5710669  74.6249619  53.6806488  13.6778765
  85.2068787   9.0283995  34.6529388  84.7062149   8.6612444  33.9244003
  85.9101028   8.3965416  34.8027840   8.3640184  47.8826141  74.3093033
   8.1366405  47.0838203  74.7851791   7.5709839  48.1047287  73.8214569
  22.4367180  45.2163544  68.5555649  22.1740971  44.4874153  69.1176224
  21.9332619  45.9627991  68.8805008  18.8443184  45.6821594  64.7535095
  19.7147827  45.7760620  64.3665924  18.8898525  44.8651886  65.2502136
  55.1505318  31.7683792  34.1965599  54.9319801  32.6990089  34.2455330
  54.6435356  31.4420891  33.4531097  70.4602509   6.2812419  12.7694960
  70.7554169   6.8728757  13.4616528  70.2213669   6.8599749  12.0454559
  47.0329170   2.2476575  76.3979340  46.7089996   1.5026708  76.9041977
  47.5231209   2.7723722  77.0308762   9.5455379  47.2175827  42.7108879
  10.2697582  46.6722221  42.4037743   8.7731686  46.6580544  42.6296158
  44.2640724  47.3653526   9.0307627  44.8130760  46.8021622   8.4851952
  43.6346016  47.7498016   8.4206829  81.3568726  57.0927582  21.0550480
  81.2143021  57.7753906  21.7107315  82.0337067  56.5329056  21.4354343
  50.7023125  67.0676575  80.3754120  50.0054054  67.1996994  79.7326736
  51.4219360  66.6852570  79.8732758  22.1195583  61.0913696  39.0502129
  22.3683262  60.9156685  39.9576683  22.8764420  60.8108368  38.5357628
  72.4850540  68.4828186  75.9281693  71.9825439  68.0770645  75.2217102
  72.0088959  68.2498550  76.7251816   1.6795512  56.9428368   3.8070502
   0.7847346  57.2223091   3.6135809   2.2317512  57.6201248   3.4164281
  59.0514107  45.6322861  61.7946701  58.2592316  45.6870499  62.3291626
  58.7328072  45.4360466  60.9136391   2.1843593  45.8575096  53.1292267
   2.3754053  45.1719360  52.4891281   1.7956651  45.3920975  53.8698616
  70.6832581   8.2215061   8.7468500  71.1405869   7.4406877   8.4347506
  70.2889023   8.5985136   7.9603534   7.7094374  66.8092270  10.2892189
   7.3676586  65.9190216  10.2058067   8.4583464  66.7239532  10.8792143
  39.4359665   3.1379597  53.0746155  38.5762024   3.5587146  53.0759392
  39.3278236   2.3738837  52.5082893  46.0873375  13.7912264   4.4195924
  47.0161858  14.0097942   4.3441262  45.6319542  14.6103868   4.2250824
  71.2326050  27.1804619  88.6279602  71.9835892  26.7548923  88.2142639
  70.6634521  26.4577217  88.8924255  58.1080170  47.9360275  82.7225876
  57.7351379  48.2532196  83.5451355  57.7823296  48.5462265  82.0609131
  11.5659494  14.4876556  11.9219341  10.6838236  14.2780209  12.2287550
  12.0430737  13.6599464  11.9809456  53.0006409  46.2446671  64.7936172
  53.0238953  45.3049469  64.6130142  53.0224419  46.3056297  65.7486267
  76.1665726  66.6204758  84.7986755  75.2487106  66.5476151  85.0603027
  76.5846252  67.0907593  85.5199890  23.2013416  12.2678080  73.5888977
  22.7929058  11.4878168  73.9644318  24.1364326  12.1538649  73.7587585
  63.2645988  59.5470963  76.0511551  62.6598587  59.3948936  75.3249588
  63.5692596  60.4456787  75.9248123  29.5510731  46.4095230  69.1499252
  29.0131474  45.9470863  69.7925949  30.4486446  46.2951965  69.4622192
   1.8067123  60.0597763  48.9806671   2.2507277  60.1098633  48.1341591
   1.3588272  59.2139435  48.9665222  66.4851913  65.9298630  21.7124710
  66.1595612  66.7274780  22.1295967  65.7742004  65.6549149  21.1335583
  70.8695602   2.5424585  31.6056061  70.7468567   1.8265240  30.9822159
  71.4945831   2.1994433  32.2442856   5.8203425  35.0070038  77.6859283
   6.3566179  35.2833557  76.9427795   5.1933036  35.7200050  77.8070831
  54.9477234   7.9366980  80.2798157  54.4780273   7.3743434  80.8957443
  54.7295799   8.8273392  80.5544128  30.9106445  53.5490761  39.5468941
  30.2282257  52.8779602  39.5349617  31.5464020  53.2558250  38.8941689
  77.3639908  69.2488403  77.5400009  77.5543365  69.9975662  78.1051712
  76.9432220  69.6309738  76.7698288  65.5076828  20.6175137  27.6881104
  65.7881088  21.5093479  27.8936005  66.3231430  20.1366463  27.5466042
  45.9207535   9.0097227  52.4775085  45.1803436   9.1050787  53.0766144
  46.6927605   9.1401320  53.0281715  35.9905853  67.2193832  59.5318336
  35.1796036  67.2026062  60.0400276  36.6607132  66.9070511  60.1397896
  47.1029739  66.5123215  56.4607430  47.5346603  66.4510117  55.6086159
  47.4977112  67.2799149  56.8745346   3.8913338  49.1967163  11.0416670
   4.1971292  48.7274017  10.2654810   3.7685611  48.5141258  11.7013874
  81.5858841  18.8909855  15.6766567  80.8283920  19.3708172  16.0116234
  81.5312271  18.0330524  16.0975990  12.5870142   0.9576956  55.3435097
  11.6792908   1.1320540  55.0947762  13.0645075   0.9453328  54.5140038
  44.9831505  47.9059029  87.5028076  44.3205833  47.5705109  86.8988647
  45.2128639  48.7665520  87.1524429  44.8720055  59.1259003  87.1305313
  45.3235397  58.5161591  86.5469437  45.0564690  58.7966003  88.0101700
  54.2255974  35.7740517  10.8536205  54.4180069  35.4552460   9.9718180
  54.2405624  34.9887924  11.4007769  51.7347412  60.8532295  51.3276863
  51.6819420  60.6410713  50.3957863  51.6347466  61.8045425  51.3627892
  78.5308304  18.2072506   7.4551454  79.0269012  19.0071316   7.6293154
  78.1028214  18.3691387   6.6144114  65.4197617  40.5426064  30.0200481
  65.7149124  40.9366722  29.1991749  66.2062378  40.1409264  30.3892899
  42.1486473  65.2805939  59.7189484  42.3883362  64.8980865  60.5630264
  42.4467125  64.6405334  59.0726433   6.8282604   5.6540518  15.6955385
   6.6155238   5.8282690  14.7786837   6.2902923   4.8967733  15.9265184
  64.7807617  22.4529018  53.0449295  64.5934296  22.9546261  52.2515755
  64.1026993  22.7224236  53.6644592   3.8796382   7.9934168  33.8283730
   4.8171263   8.1340628  33.9609108   3.5924380   7.5340648  34.6175117
  16.6733513   2.0322838  78.9829712  16.7282295   2.9861991  78.9258347
  16.1130352   1.8696386  79.7418060  38.9630775  34.1721611  73.1845627
  38.5522614  34.5312500  72.3981018  39.6650124  34.7892761  73.3911743
  49.6705666  60.8075256  20.2123260  49.1941528  60.0184898  19.9540920
  48.9897346  61.4691620  20.3345585   7.1607127  45.7867661  27.7577400
   6.3626857  45.5462036  28.2283936   7.7712541  46.0566254  28.4437771
   1.8921010  59.6626740  83.6696167   2.4804075  59.7708244  84.4168930
   1.7490600  60.5523262  83.3466797  85.0112839  41.7329102  83.6650696
  84.1959305  42.1143990  83.9904785  85.5944061  42.4821548  83.5432739
   5.4399195  57.0214767   4.6616950   6.2742028  56.6432915   4.9395022
   4.8055296  56.3143463   4.7789431  63.2189865  16.1362629  75.2074356
  63.3066940  15.1865845  75.2889862  63.3003578  16.3045750  74.2686691
  32.0484543   9.0884151  80.6521988  32.6519432   9.7641792  80.3433685
  31.5780125   9.5004578  81.3768616  78.3751755  43.7651062  11.5708752
  77.6685028  44.4064140  11.6455107  78.9490356  43.9535446  12.3134480
  73.1849136  69.6741028  32.0573883  73.4270706  70.4475708  31.5481243
  72.7692032  70.0260849  32.8444862  78.5762024  51.9749489  35.0969696
  79.3314972  51.5752449  34.6656990  78.1742401  52.5193672  34.4200172
  42.6344719  59.1794853  72.4364548  41.9333687  59.1175270  73.0851746
  43.3870926  58.7633171  72.8566895  85.8198013  54.1051788  81.7752533
  85.2783966  53.4756699  81.2989807  85.1936951  54.7261124  82.1476364
  37.8964691  53.3171349  59.7346039  38.8473663  53.4243164  59.7112923
  37.5901337  54.0204048  60.3071442  53.4483109   7.9279881  30.3402214
  54.0685768   8.4443007  30.8549271  52.6403847   7.9430528  30.8533115
  13.6640987  11.4008942   9.4159784  14.3540220  11.8786469   8.9555550
  12.9126663  11.4357176   8.8240604   9.7634783  50.6290970  16.5928402
   8.9880533  50.8990059  17.0848751  10.4639997  50.6039886  17.2446613
  25.4181538  39.5378036  54.8595467  25.9866486  40.2539749  55.1426353
  24.9907818  39.2395630  55.6624413  41.2497177  62.7102203  65.9584427
  41.5180817  62.9118385  66.8548584  41.5082512  61.7975082  65.8305817
  69.2181549  36.7271156  45.4586906  68.3262634  37.0128403  45.2608833
  69.7031326  36.8767548  44.6471252  23.2026081  53.3545952   3.9906950
  22.4435883  53.6446953   4.4966226  23.9090157  53.9412727   4.2609315
   6.5038810  37.7555504  58.3058472   7.4078064  38.0695229  58.3297348
   5.9733777  38.5438843  58.4212761  72.8612900  69.9782333  66.3830948
  72.6331329  70.8371658  66.7386322  72.0186691  69.5496521  66.2329483
  72.6177216   4.7735395  11.7121983  71.7867203   5.2485871  11.7129402
  73.2838593   5.4563360  11.6329641  34.0594635  13.1205330  18.6488037
  33.8322182  13.4108601  17.7654572  34.9412498  12.7582865  18.5624352
  78.4228287  36.3064117  65.4713211  78.2907104  35.4286346  65.1131516
  78.1694794  36.2303619  66.3912430  85.8547592  23.9829254  19.3631096
  85.9720001  24.8662567  19.0135212  84.9230957  23.7993393  19.2425823
  25.7616959  60.3015671  21.7968807  26.2497406  59.9434013  21.0554218
  26.0799828  61.2003326  21.8814335  22.1212292  13.0476160   7.3592858
  21.7582588  12.5045662   8.0589867  21.3728371  13.2438354   6.7956915
  25.3105812  44.0979729  14.1833582  25.9881191  44.4264069  13.5923376
  24.8136368  43.4736786  13.6546497  66.6749268   7.3619366  45.0317688
  67.0900879   6.5565810  44.7231064  67.2731094   7.6994500  45.6984711
  74.9014359  20.3697090  13.4368362  75.8557205  20.4153290  13.3777523
  74.7294693  20.1158676  14.3436022  81.2858734   3.8549240  67.6405106
  81.1203537   4.0801024  68.5559998  81.9814148   3.1983404  67.6773300
  10.2724466  34.9310722   0.4805217  10.1352434  34.5899887   1.3643032
  10.9703445  35.5786781   0.5793932  85.3330765   9.5901079  11.1675777
  85.3252869   9.6070290  10.2105589  85.4781113  10.5013885  11.4220667
  53.0993042  61.2893944  74.1210098  53.6161423  60.9362946  74.8451843
  53.6168098  61.0940132  73.3398209   8.5647516  49.7100677  84.0402603
   9.1659937  50.3958817  83.7497482   7.8544559  50.1824303  84.4745178
  53.1723251  67.8934174  77.4458313  53.2537270  67.4154434  78.2711487
  52.2289238  67.9511642  77.2945328  29.3695564  68.2782974  22.4628410
  29.6852283  68.0094910  23.3255825  28.6962891  68.9331665  22.6474934
  16.6461754  64.3553467  51.8555222  16.1984692  64.8835602  52.5164146
  16.6028080  64.8826294  51.0578232  74.6409149   7.1688032   6.5224137
  74.2288437   7.9317622   6.9277806  74.4127960   6.4390984   7.0983696
  54.3318176  33.3596115  12.0291567  55.0405273  32.8547668  11.6302929
  54.5981636  33.4661331  12.9423618  68.4022751   9.6454926  58.2118607
  68.8400726   8.8158274  58.0215263  67.7396545   9.7294683  57.5262146
  51.6418610  43.9854279  71.7511749  51.9608116  43.3772011  72.4179306
  50.9341736  44.4642334  72.1826401  23.7878437   2.5029325  43.1457024
  24.6783695   2.2245641  42.9319115  23.9022350   3.1813900  43.8111649
  43.3160019  45.0258217  80.7101669  43.3785973  45.9599533  80.5108948
  42.7374420  44.6747551  80.0332260  68.6692581  16.8855762  13.9541979
  69.0986252  16.3280964  14.6031170  68.7905121  17.7755013  14.2852039
  69.2470398  44.8267288  38.9625282  69.3167725  45.2928162  39.7956772
  68.3695679  45.0370979  38.6431122  11.8524771  23.7595177   1.0144027
  12.3113050  23.2173195   1.6560637  12.5495644  24.1392193   0.4794939
  62.5079842  49.6173325  31.6511860  61.8478699  48.9341888  31.5337219
  63.2487488  49.1672974  32.0573463  66.3646927  26.8254185  20.7775135
  66.8595734  26.3976135  20.0787220  67.0109100  26.9854012  21.4652977
  40.0755424  62.2214546   8.4159241  39.8024445  62.8002129   9.1277466
  41.0110435  62.3951454   8.3115396  31.4281273  62.3146133   9.7871065
  31.5283337  62.3362999  10.7388000  32.3008919  62.0977516   9.4592543
  12.7741804  62.6902809  38.2544670  12.6846600  62.7544556  39.2053108
  13.0222006  61.7790718  38.0982094   6.6298108  13.9132957  18.5399532
   6.7831864  13.0170574  18.8390579   7.4139857  14.3925867  18.8075008
   1.4638162  65.3208160  27.4967098   1.1463948  64.4476929  27.2662048
   0.7823223  65.9143982  27.1813469  68.9724197  71.5009079  77.0364075
  68.1478119  71.5475388  77.5202332  69.0985107  70.5672150  76.8674316
  21.6943359  27.8562202  16.5519142  21.1067352  27.1105385  16.4297810
  22.5591774  27.4630203  16.6688442  27.0409374  34.8636627  15.3479242
  26.1257648  35.1321526  15.2666636  27.4247532  35.0593376  14.4931564
  13.6307783   5.2239752  23.4688778  12.9355497   5.5859871  22.9194813
  13.7646303   5.8823938  24.1506405  11.4900255   6.0792127  83.5522232
  12.2479601   6.6456590  83.6968155  11.5536823   5.8242435  82.6318054
  64.6201401  35.3739967  81.7831116  65.5401154  35.5725822  81.6086273
  64.3593674  36.0115776  82.4477310  45.5050240   2.1060636  70.4648666
  45.6847458   3.0413802  70.3694000  46.3365860   1.7307203  70.7544479
  26.7996750   7.2868352  71.7782135  27.7168999   7.3329773  71.5084000
  26.8345661   7.1885772  72.7297211  22.7905712  66.2649841  19.0153618
  22.0790215  66.9039383  18.9745502  23.5246143  66.6956329  18.5772362
   0.3015254  55.7613068  72.9574356  -0.2273260  55.0642967  72.5691986
   0.8565014  55.3134880  73.5959473   8.3601723  54.2554588  54.4945412
   8.6768970  53.9533806  55.3458138   8.9296370  54.9928513  54.2750168
  15.4365377   0.9200056  39.6655884  14.7106676   1.5206426  39.8346405
  15.9425278   1.3447555  38.9729195  47.8905754  56.8479538  87.4940567
  48.0156822  57.3746147  88.2834930  48.7767143  56.6908989  87.1679916
  33.0529747  65.1940536  31.0324211  33.7541275  65.5809174  30.5080585
  33.5024185  64.8007584  31.7804527   2.9607663   2.5005016  25.3042736
   2.2208562   2.0840790  24.8622818   2.7635260   3.4365768  25.2712383
  21.2862911  53.2568550  15.9045525  22.2067776  53.0449562  16.0595913
  20.8945770  53.2760506  16.7777195  26.5577927  11.9943771  13.1524515
  25.8455505  12.3197136  13.7029953  27.3520737  12.3415451  13.5584383
  85.6106339  49.1826401  10.8518620  85.0973740  49.5583916  10.1365938
  86.3903885  49.7354240  10.9032412  23.9155331  45.8632393  15.7768478
  24.4634895  45.1645088  15.4194288  24.4111214  46.1976089  16.5243912
  52.0514984  65.3164749  45.4721565  52.3528900  66.0314865  44.9116592
  51.6846008  64.6742249  44.8645973  74.8022308  42.1869774   1.1992582
  75.2029419  41.9065056   2.0220590  74.7605743  43.1409302   1.2660890
   6.3608074  20.9258862  58.8626366   5.6424689  20.7477398  59.4696693
   5.9604282  20.8706398  57.9949532  39.3893738  53.2428932  77.6192169
  38.4733353  53.3581581  77.8718491  39.8843117  53.4498253  78.4119644
  75.4563141   0.3733456   3.8862967  76.3386765   0.7357665   3.8068454
  75.5385208  -0.3145846   4.5467710  55.2069321  45.7436752  33.7697716
  54.5902405  46.3820686  34.1280708  55.2132530  45.9188080  32.8287506
  35.2174454  68.5617599  41.1968765  35.1902657  69.4464264  40.8323631
  36.1035156  68.2523422  41.0088005   6.4318576  67.7688217  14.6825285
   6.8885112  68.1681671  13.9421091   6.8932824  68.0975571  15.4540539
   1.0936714  53.8126030   2.0662870   1.1507004  54.7498817   2.2519901
   0.3424557  53.7301025   1.4788347  40.3479843   1.4454120  80.9471359
  40.0340004   1.2119491  81.8207169  39.5768204   1.3644946  80.3858948
  27.6584358  71.2984009  88.5330734  28.1240425  71.8095703  89.1949997
  28.2053547  71.3652878  87.7503586  19.5591297  66.3576050  77.2033386
  20.0428505  67.0700302  76.7853775  18.7036285  66.3648071  76.7740402
  61.9476738  44.2308769  40.2533531  61.1951523  44.3312492  40.8363380
  61.5707779  43.9359512  39.4243774   1.7407825  66.1227493  42.6871452
   1.3320901  65.3079987  42.9793549   1.3977352  66.2594986  41.8040543
  72.4325714  18.8600407  71.1104355  73.1364212  19.1973095  71.6645737
  72.7718506  18.0324898  70.7694397   4.2640543   8.1814804   0.4318826
   4.0454454   8.8923435   1.0344733   3.9398477   7.3919497   0.8652000
  52.5621872  42.4297218  12.6224203  52.4748611  41.8395729  13.3709745
  51.8664856  43.0757675  12.7443237  70.6333771  52.6170311  32.0797043
  70.3716736  53.5203934  32.2576942  69.8874817  52.2389336  31.6139584
   1.7005916  45.9505997  18.8157730   2.3955932  46.6086845  18.8271809
   0.9126733  46.4384956  18.5762424  63.0011559  48.0352249  17.9717922
  63.7087631  47.7527046  17.3923893  63.3412743  48.8209991  18.3997040
  53.3955307  63.7785645  50.2758026  54.3134499  63.5169182  50.2037354
  52.9990120  63.4901390  49.4537201  17.1026402  42.3907623  16.0181198
  17.0575714  43.3309708  15.8443041  17.9419785  42.2692032  16.4619293
  45.5198822  44.9310722  75.5998001  45.7696953  44.0554237  75.3047409
  46.2467804  45.4916687  75.3285370   1.2002468   3.7863595  40.7281609
   1.3712357   3.1999395  41.4651184   1.9585309   3.6772246  40.1542931
  14.4825153  17.1294098  24.5494442  13.7518883  17.7436485  24.4778309
  15.2441349  17.6275024  24.2526741  68.6019669  40.2893944  44.9048843
  68.0698013  40.0740852  44.1389389  67.9843445  40.2794724  45.6361008
  51.3863335  41.1404152  28.3161201  52.2029381  40.6991463  28.0823002
  51.5438652  42.0614662  28.1085644  15.3886776  69.6524200  34.7178688
  14.5090351  69.7466049  34.3523674  15.5856848  70.5110626  35.0922394
  61.3552170  16.5859318  34.5109062  61.6490211  16.7661877  33.6179237
  61.8535881  17.1959248  35.0547485  81.5398483  13.8539171   8.9218588
  81.6973267  14.5822983   8.3211155  80.6508560  13.9986153   9.2458811
  67.5019379  35.3274193  74.4250641  66.9298553  34.6250153  74.1158981
  68.1838989  35.3926315  73.7565536  16.3284073  15.2553368   2.9201341
  15.3765116  15.2158937   2.8275449  16.5173054  14.7124023   3.6854908
  79.0440063   0.3475122  20.1897793  79.1732025   0.0883693  21.1021309
  78.3712158  -0.2503383  19.8639565  57.9541588  29.9966354  14.8074875
  58.5927086  29.3916225  14.4300690  58.2516785  30.1279869  15.7077436
  48.7364578  50.1318779  38.2015800  49.6882057  50.2328377  38.2160873
  48.5917969  49.2856483  37.7782555  56.5935898  59.9075623  61.8666344
  56.4473839  59.3918877  61.0735817  57.3509064  59.4964714  62.2834129
  51.8047523  54.3153152   2.3502612  51.6469002  55.0060577   1.7066839
  51.3814125  54.6306381   3.1487522  83.0789642  64.7568207  84.1168289
  83.5652084  65.5069275  83.7745743  83.1012726  64.1134949  83.4084015
  49.5888519  44.0300484  86.9566193  49.7851143  44.9450493  86.7554245
  49.5591888  43.9960938  87.9127579  46.7099724  29.6717243  11.5592232
  46.4855995  29.9774876  10.6803617  46.3120155  30.3152103  12.1455574
  71.7348480  31.2676754  34.0721970  70.7983932  31.1811886  33.8938446
  72.1423416  31.2916946  33.2064018  46.2522125  45.2128868   3.6186574
  46.6507874  45.2563744   4.4878407  46.5821991  45.9883423   3.1647744
  13.8237095  10.5630121  82.7775650  13.4083328  11.0820780  82.0888901
  13.0939951  10.1502819  83.2395172  83.6800613  49.4053459   4.3104911
  83.2078552  49.5197868   3.4857767  84.0135422  48.5088921   4.2731438
   2.4099281  10.6202765  88.4993439   3.2793133  10.9285851  88.2437134
   2.5780547   9.9600859  89.1717377   6.2849922  36.4730492  23.5388622
   6.1611123  36.3416672  24.4788742   5.5996399  35.9439659  23.1307011
  14.7724199  47.3018379  48.6912651  14.5819025  46.7476196  49.4480858
  15.6751814  47.0859528  48.4575005   8.5679283  29.4652004  14.6512356
   9.2830744  29.9424038  14.2304316   8.6851015  28.5586681  14.3671522
   1.7936786  66.2234039  64.2402191   1.8050061  66.5749588  65.1304474
   0.9517230  66.5048447  63.8822594  39.9945145  66.7178574  84.2521744
  40.3480339  67.6073227  84.2623367  40.7360153  66.1626434  84.4932938
  27.0207176  25.7978611   3.4285357  26.9167957  24.9793053   3.9137139
  26.2926197  25.8020840   2.8071768  61.5514793   6.5931931  65.8458939
  62.0980682   5.8109384  65.9203949  61.9771309   7.2375526  66.4114456
  19.7363930  14.1002264   3.0326109  20.0088196  14.6814661   3.7426651
  20.1660919  14.4551029   2.2543743  20.8098125  18.9636421  75.3461838
  20.8267574  18.7779217  74.4073257  21.5854588  18.5218525  75.6917648
  35.8385658   6.2060113  77.3772278  35.5088272   6.8456655  78.0083694
  36.7834663   6.1851678  77.5287628  12.6564188  22.4969006  79.3396988
  13.0170822  22.3175182  80.2080154  11.9601727  23.1347446  79.4966354
  71.6191559  58.7312698  23.9739761  70.8551636  59.2838364  24.1389503
  71.8628235  58.9236069  23.0685120  64.7089233   1.1078318  25.5104294
  65.2628021   1.1306413  24.7300892  65.2787781   1.4103010  26.2175446
  54.7265434  51.1248207  43.3720284  55.2027206  50.2947273  43.3511658
  53.8043747  50.8710594  43.4099884  47.5827026   1.4980763  79.4627151
  46.9068031   1.0190095  78.9832458  47.4656715   1.2296706  80.3740311
  24.8563843  66.0346222  47.5473480  25.1116352  66.9428024  47.3851967
  25.4430199  65.7418213  48.2447395  60.7195778  57.1098900  85.1325073
  60.0728722  56.4263229  84.9571762  60.6607437  57.2588844  86.0762100
   8.4596148  18.4205418  22.1110535   8.5840473  18.0746021  21.2272701
   7.6026258  18.0892544  22.3794785  70.4315414  36.8912659  74.2731018
  70.6180573  35.9656258  74.4300613  71.2936630  37.2976608  74.1846542
  52.5194511  43.6029778  84.7938919  53.3403053  44.0944862  84.8231506
  51.8662262  44.2063904  85.1480408  68.2695847  11.5891962  64.8556442
  67.5470505  11.6882820  65.4756165  68.1802139  12.3351154  64.2624817
  24.3670807  37.9351692  16.2571716  25.0010738  38.4301224  15.7382240
  24.8556423  37.6592751  17.0326843  61.9326820  36.8939018  48.9802055
  62.0985794  37.8134575  48.7725258  62.4756355  36.4066734  48.3604927
  37.1505661   0.7655451   5.4677649  36.8817139  -0.1427225   5.6056113
  37.2724495   1.1158074   6.3502002  14.8410740  68.5328293  87.6595383
  14.0335054  68.7391510  88.1301651  14.7704868  67.5991974  87.4605865
  67.0231552  62.8315163  61.5011749  66.1924210  62.3575745  61.5397606
  66.7757034  63.7540741  61.5634956  66.3678818  70.1275635   6.8991575
  67.1856461  69.8685684   6.4744077  66.3517914  71.0818329   6.8260541
  53.8492393  38.1649857  62.7202454  54.3733330  38.0341949  63.5104675
  54.1828842  37.5154762  62.1013374  53.4495811  17.4603615   0.8936585
  52.7338638  17.1843643   1.4662040  53.6095161  16.7043743   0.3287377
  52.5072899  52.9094391   9.5888786  53.4505463  52.7992554   9.7087088
  52.4245453  53.3793068   8.7590542  55.7870865  38.5249977  21.5032787
  55.2039680  38.6314850  22.2548523  55.2744675  38.0200043  20.8720627
  64.1013184  28.9132080  51.1984558  64.6522675  29.4360752  51.7809410
  64.2602844  29.2773609  50.3276215  55.8517151  32.9239807  38.8619156
  55.9003830  33.6708450  38.2652092  55.1353455  33.1405067  39.4587097
   1.2342439  25.3104916  36.6790886   1.4155089  24.6058559  36.0571060
   0.5951677  25.8657341  36.2324104  14.2574224  62.5214310  77.9601593
  13.6315336  63.0775070  77.4961777  14.7725143  62.1099014  77.2662125
  26.8013458  58.8990021  36.6895218  26.4573174  58.1969109  36.1373024
  27.3537693  59.4160080  36.1032066  82.5555267  18.8496742   4.9165416
  82.3138351  17.9422550   5.1020374  82.5071182  19.2888031   5.7656903
  58.9753151  48.6086426  77.2906036  58.3129463  48.1848183  77.8363876
  58.8635368  49.5438728  77.4611359  71.5943222  34.5166283  20.6114807
  70.9768677  34.0165443  20.0777225  71.1619644  35.3589859  20.7519436
  14.7625818  25.2325802   2.3213608  14.7328415  25.2317314   1.3646232
  15.6962891  25.2410698   2.5319569   3.3603344  18.4451962  55.5162735
   2.7044742  18.4925194  56.2118568   3.9135458  17.7026577  55.7588120
  52.3051147  43.4880104  27.3088703  52.4429321  44.0595741  26.5535221
  52.9499931  43.7817841  27.9523449  11.3316536  35.2262917  39.0857391
  10.8063908  36.0246086  39.0307388  11.5327253  35.1355782  40.0171738
   9.1501703  53.4978561  42.9838905   8.8017511  53.1040497  43.7837372
   8.4528332  53.3850555  42.3379593  80.5337143  67.1742935  44.2737236
  79.9666061  67.4612808  43.5579948  80.8777237  66.3297424  43.9828339
  84.0001602  26.2301788  53.4250298  83.5189590  25.9749069  52.6379395
  84.8285370  26.5796280  53.0965309  28.4225693  65.2392654  70.6976471
  27.6898842  65.7172928  70.3091965  28.2033157  65.1791992  71.6274643
  39.4964485   2.0313091  11.9948301  39.1784401   2.3969672  11.1693630
  39.0554161   1.1848835  12.0675297  80.6615295  12.6555471  53.0815430
  81.3020248  13.3050385  53.3716393  79.8582764  12.8862476  53.5482254
  41.2182922  18.1604271  87.9981537  42.1606941  18.0939445  87.8442535
  41.1385078  18.2903194  88.9431381   1.4157252  70.1989899  84.9505234
   2.1044402  69.5780869  84.7130585   0.8409548  69.7065659  85.5365219
  82.7475891  15.7101316  30.8892937  83.3471985  16.4494152  30.9901028
  81.9126968  16.0306358  31.2305660  61.8621254  70.4415207  28.1197872
  62.0958519  69.8385162  27.4141045  61.5412598  71.2233505  27.6703186
  56.5725822  31.9984665  73.4675064  56.6009293  32.7241516  74.0910492
  56.0735321  32.3397026  72.7253876  70.1113434  65.1383362  16.0977345
  69.8781662  65.7147293  15.3699732  69.7654953  65.5799789  16.8733463
  36.4427299  37.4907761  88.2636642  36.2833328  36.6004829  88.5770493
  35.6030350  37.9370956  88.3729553  24.6504745  22.3190956  16.0567646
  25.0807972  22.5126038  16.8895969  23.9408703  21.7195301  16.2874470
  70.0821838  10.8886194  72.8855972  70.2931824   9.9863367  73.1255951
  70.7730103  11.4122410  73.2915649  76.5469818  62.1761589  79.9913635
  76.3036499  61.9494247  80.8889236  76.4262619  63.1244698  79.9427567
  66.5159225  49.3894386  60.3415871  66.1144714  49.8109779  61.1014404
  66.9457245  50.1034927  59.8708115  77.7269287  57.7987213  86.1379700
  77.7067413  58.6017532  86.6585083  77.7349777  57.0937462  86.7854080
   1.1950997  51.5707359  82.4767609   1.6126455  51.8952866  81.6789169
   1.0744145  52.3507652  83.0182571  54.8945961  52.0691147  10.7608881
  54.4337730  51.3210907  11.1407995  55.0522232  52.6546555  11.5015163
  81.8083115  70.1607285   4.0418887  81.6276321  70.0923386   4.9793906
  82.4240265  70.8900070   3.9692073   5.9320540  65.7164536  62.5460358
   6.1358800  64.8811493  62.1253777   5.3412366  65.4857254  63.2629242
  56.3202438   4.6949420  77.1868210  56.3909836   5.5432153  76.7490311
  55.3783569   4.5402851  77.2586441  36.5341759  55.5430565  39.4595184
  37.4631729  55.7359428  39.3330650  36.4958076  54.5897255  39.5364723
  28.7102413  18.2684345  10.2487659  28.0034904  18.3286629  10.8915014
  29.4821453  18.0319118  10.7630177  80.7431870  27.5728226  59.0318680
  80.4552460  27.3061028  59.9048958  80.6669464  26.7794800  58.5017433
  71.0942078  56.2829285  40.6518097  72.0318222  56.0999031  40.5917244
  70.8009491  56.3319283  39.7419548  50.1582642  55.7327385   4.0542426
  49.4849548  56.3846397   3.8595479  50.9040413  56.2447586   4.3671031
  73.2938538  61.0240021  74.5222168  74.0966568  61.4595451  74.2358093
  72.8019714  60.8734474  73.7149887   5.1182508  47.8967705   0.6390439
   6.0711045  47.9810600   0.6044480   4.9675732  47.0629959   1.0844102
  77.1007233  64.1811676   0.4517096  77.7888794  63.5290604   0.5837687
  76.4913025  63.7660217  -0.1586109  59.0755043  67.8572540  69.8840027
  58.4007759  68.5320435  69.8089447  58.5898399  67.0324326  69.8889542
   9.1202116  12.3362951  55.3757515   8.7888546  13.2244606  55.5084038
   8.6641474  12.0247841  54.5939598   7.4485703  50.9026566  30.7451210
   7.9353809  51.2316017  29.9894485   6.7481298  51.5418816  30.8755341
  55.8694115  53.1619682   8.4671659  56.7830391  53.4170456   8.5954323
  55.5935936  52.8228836   9.3187389  48.3880577  20.6328430   2.4764297
  48.2572060  20.4667702   3.4099872  48.6796150  19.7927265   2.1222680
  44.1658287  21.1019650  72.1060715  43.4517555  20.4645519  72.0999374
  43.9927559  21.6627941  71.3499298   4.7747421  44.9080276  28.8148899
   4.2929220  44.2358627  28.3329391   4.9227467  44.5235214  29.6788807
  22.0382824  63.8656235  14.6466532  21.8382950  62.9302216  14.6822166
  22.6517773  64.0069656  15.3676796   7.3252473  33.9029999   0.2996156
   7.4697518  33.4206772  -0.5144575   8.1396551  34.3860970   0.4395756
  24.0939865  39.0684853   8.1094532  24.8925762  39.5368233   8.3526497
  24.3879185  38.3979874   7.4927931  15.8637800  51.7664986  84.0661926
  16.2866688  51.5218620  83.2430573  15.4869337  52.6295052  83.8946152
  35.9505196  44.7589607  68.0715332  36.2204666  45.2674828  68.8362350
  35.3710175  45.3459854  67.5859299   7.1227832  26.6578941  15.0580873
   7.7378983  26.2161446  14.4726620   7.2665071  26.2471504  15.9106512
  18.4901485   7.7283444  59.3917274  19.2269135   8.2983360  59.6119995
  18.1445713   7.4456134  60.2384109  42.0086479  54.4202614  20.2977428
  41.7678947  54.9472542  19.5358047  42.2073936  53.5558128  19.9379406
  32.2501907  51.4302940  58.3367462  32.1609039  51.6142921  59.2718391
  32.3995018  52.2872124  57.9372139  38.0013046  30.5654945  13.6220560
  38.2764969  31.1175232  12.8900957  38.5386314  29.7773075  13.5428543
  36.8490257  34.2977829  68.6215439  37.5428543  34.5549088  68.0143204
  36.7255440  33.3621178  68.4617996  15.6901388  56.6277924  19.8367958
  15.9624529  57.1405029  20.5978508  15.0732660  55.9859962  20.1886444
  26.7708549  15.2792006  64.3109970  26.0210285  14.7056761  64.4693069
  26.4927216  16.1336308  64.6408768  10.1225872   3.1236639  77.4998703
  10.8675089   3.6649790  77.2385254   9.3559570   3.6669350  77.3172073
  14.1594067  27.5560036   8.9251003  14.3252754  27.0058079   9.6906080
  14.9836512  28.0209064   8.7811575  17.9223137   2.7113404  17.8949909
  17.5112686   1.9340686  17.5166759  17.1897411   3.2385316  18.2137985
  49.5730782  14.3195038  34.5227356  49.3419571  13.6572332  35.1740494
  50.0876770  14.9639568  35.0086365  40.6313858  57.1728706  84.4775162
  39.9337502  57.2882195  85.1226730  41.3782234  56.8571053  84.9861984
  41.0456657  40.6338730  53.6126938  40.4410553  41.0597038  53.0049553
  40.4931412  40.3508072  54.3412704  68.8476181  32.3350334   7.7701073
  67.8960495  32.2321548   7.7830009  69.0361710  32.7117577   6.9105954
  49.3667259  62.4946136  60.2362862  49.9991875  63.2049065  60.1280670
  49.9011688  61.7268982  60.4393158  50.4314384   9.0718784  69.3045502
  51.3216743   9.3309345  69.5424576  49.9267006   9.8841782  69.3450775
  84.6359940  19.9057045  23.6526184  84.9019470  20.1440315  22.7645321
  84.9679794  19.0158081  23.7713757  29.7950726  29.4179802  78.8759766
  29.6114635  29.8657131  78.0501099  30.7166424  29.1671143  78.8126831
  74.9760590  53.5777512  23.6428280  75.1637115  54.0711136  22.8443203
  75.3060303  54.1320839  24.3499813  71.0862732  30.3314724  59.7843475
  71.2074738  29.7174263  59.0601273  71.5444031  31.1242676  59.5053902
  53.8541183  37.3530922   3.4483051  53.7720070  37.1011658   2.5285099
  54.3462753  36.6369591   3.8497651  76.8360291  70.5491562  18.9436054
  76.3089523  70.1653595  19.6443996  76.2277222  71.1159897  18.4693737
   8.3480368  55.0119972  27.3617859   8.7694941  55.3438568  26.5690212
   7.4374599  55.2972755  27.2863083  46.7583847   3.6352153  42.2441788
  47.5466881   3.4181814  42.7418823  46.7960205   4.5858145  42.1384583
  77.2561646   3.7707825  46.6045303  78.0692291   3.4415612  46.2214241
  77.5393906   4.2944241  47.3540688  51.4262314  35.3683128  10.6200533
  52.0199432  35.8142281  11.2241182  51.5885696  35.7846985   9.7735910
  54.7406349  22.6100540  52.8754845  53.7922592  22.4854412  52.8395576
  55.0657387  22.2078362  52.0700264  39.6452827  60.8885994  29.9102974
  39.0802803  60.1266975  30.0387917  39.1585045  61.6158752  30.2980499
  36.9934998  67.9243164  67.2183151  37.3325310  67.2514191  67.8086548
  36.6752548  67.4376373  66.4579926  75.2479706  46.1255035  71.5638351
  75.3993683  46.3314743  72.4862747  75.3375778  45.1738586  71.5130844
   8.0468798  27.4685459  59.3147964   8.3411255  27.8599300  60.1372719
   7.0973692  27.3948021  59.4108353   8.8487949  17.9759197  27.1024017
   9.4606619  18.2526550  27.7845078   9.0192595  18.5707207  26.3720684
  10.6484537  49.3380432  80.5648422  10.5744572  48.3838768  80.5829010
  11.4804277  49.5220490  81.0009537  66.3811874   0.9139891   5.6757402
  66.3608322   1.7269700   6.1805968  65.7351151   1.0466108   4.9820261
  16.5151005  31.6468773  22.2128334  16.5907364  32.4580917  21.7103977
  16.2884502  30.9824104  21.5621834  44.1356010  43.3241615  54.6704025
  43.3181915  43.1461945  55.1355934  44.8210411  43.1507149  55.3156281
   0.6487438  60.0625954  71.7544861   1.1509591  60.7884178  72.1248856
  -0.1914171  60.4518471  71.5119095   2.2632761  15.8180971  53.7899590
   1.7020408  15.0496435  53.6863937   3.1007390  15.5563660  53.4073601
   7.1307454  19.3049850  83.7441635   6.2785997  19.7114506  83.5864716
   7.0937552  19.0172882  84.6563492  58.6595345  20.8919601  29.3082275
  59.1376343  20.2336960  28.8039017  59.3317566  21.3260117  29.8335361
  48.4225197  68.2087021  24.0788937  47.8255424  68.4518661  24.7865105
  48.7198296  67.3282394  24.3082943  15.5128613  62.1696358  17.2197914
  15.0158453  61.6968803  16.5521774  14.9726114  62.9326706  17.4250641
  34.7985878  38.7419777  69.1731644  34.7042007  38.5525742  68.2396469
  33.9207573  38.6154022  69.5331955  54.1788139  52.7955513  62.4396477
  54.0301476  52.7326813  61.4961548  54.2027092  51.8868179  62.7394257
  45.1161346  28.8245945  77.3205643  44.9073410  29.5255604  77.9380493
  46.0168533  28.5793686  77.5322342  10.0003662  13.0559378  67.5002899
   9.5888271  13.6435242  68.1340179   9.7102957  12.1817150  67.7607269
  72.6721268  25.5691166  55.8710327  73.3051834  25.8878212  56.5143814
  72.1658554  26.3444977  55.6287384  75.9831772   8.7074671  71.7909088
  76.4674988   7.9421291  72.1006165  75.2077332   8.3434639  71.3638000
  10.2580252  68.1481094  33.1428337   9.7581291  68.8279495  33.5946617
   9.8253460  67.3300934  33.3875389   6.6264100  21.8320923  31.9416008
   6.8071566  21.3455315  32.7458534   7.4586482  21.8308086  31.4687271
  36.3981857   0.7834073  53.5651932  36.6828613   0.2276971  52.8396759
  36.4772911   1.6759663  53.2285767  69.3631439  39.2897110  39.1278496
  69.7325134  38.6771660  38.4917755  70.1240768  39.7316208  39.5045891
  78.1734085   8.1015310   5.3318872  77.6173630   7.4080648   4.9767070
  79.0634079   7.8386259   5.0973506  85.7963333  61.5814781  52.0312157
  86.5557098  61.6048622  52.6134796  86.1544189  61.7665558  51.1630287
  49.7661362  57.0900764  34.6354675  49.9421501  56.2591667  34.1940613
  50.4476433  57.1549644  35.3044739   3.8284316  21.0462971  59.9111137
   3.1334434  20.3932781  59.8287048   4.2500186  20.8433113  60.7461548
  50.9719887  55.9109650  87.0660782  51.0997543  55.2127647  86.4238815
  51.8119392  55.9749222  87.5206451   6.9101005  48.2671967   9.0779228
   6.7442002  47.4237442   9.4989948   7.5006475  48.0611229   8.3533401
  23.4401722  53.1903114  52.5052223  23.0059986  54.0161247  52.7191391
  22.7408466  52.5373917  52.5346680  37.2250671   3.4766853  44.1535912
  36.3703499   3.5622394  43.7312546  37.2319565   2.5851243  44.5018768
  66.6996002  22.3866615  60.8541946  66.5710678  22.6621742  61.7618294
  65.8507080  22.5332069  60.4369011  13.9499702   1.7496095   3.5515995
  14.0652924   1.6263400   2.6094012  13.3197498   1.0755565   3.8059754
  14.7528019  54.0983391  83.0258255  14.9457951  55.0338173  83.0879974
  14.8062248  53.9044380  82.0899887  34.2852745   9.1311264  16.0562592
  35.0556335   8.5664454  15.9936981  34.1320839   9.4275398  15.1590958
  63.2318878  17.3113880  51.4171371  63.5787048  17.1045399  50.5492859
  62.4331932  17.8095169  51.2434044  20.3645496  62.5206490  35.5321045
  20.1468983  62.6452179  36.4558678  20.7208004  61.6333313  35.4875145
   0.9168864  14.5863657  12.4854345   0.2886166  14.4967527  13.2020082
   0.8988987  13.7374506  12.0435610  72.9642563   9.8375530  77.9330902
  72.2086258  10.1898718  77.4628448  73.3353500  10.5924339  78.3899002
  79.6272125  33.5585365  33.9609222  80.5217438  33.2557755  34.1170845
  79.7161179  34.2291489  33.2837181  50.5528679  53.7075272  33.6499214
  51.0661201  53.9926109  32.8939209  51.1219368  53.0872574  34.1056137
  37.9767113   8.1724758  81.5920486  38.2784081   8.1871500  82.5003357
  38.6465874   7.6729207  81.1252060  70.8101425  10.2343960  53.1850052
  71.6933746  10.2280931  52.8160934  70.9447021  10.3400373  54.1267929
  64.9883347  19.1947765  72.5809402  65.6276398  19.5801468  71.9817657
  65.2355270  19.5298519  73.4428253  73.0891342   5.3920660   4.1425719
  72.2633896   5.4033589   4.6265745  73.7630692   5.4796762   4.8166356
  14.4982042  67.3924026  66.0857773  14.2324085  66.6013412  65.6169434
  13.9298038  67.4169846  66.8555450  69.4601059  38.7807655  64.1548843
  69.9998169  38.3202057  63.5123672  69.6042938  39.7083855  63.9678917
  80.8996506  57.4379387  85.5023270  80.1015015  56.9115677  85.5483932
  81.2304382  57.2943115  84.6156540  47.7465096  42.4936600   6.3416305
  47.8905869  42.2920456   7.2661977  46.7946777  42.4871750   6.2405782
  24.6085243   6.5580544  75.1050949  25.4826317   6.1865287  74.9861908
  24.0930080   6.1923037  74.3862762  50.9646301   3.2974141   6.1705661
  50.8267822   2.3921273   6.4492874  50.1958351   3.7672317   6.4937654
  59.3307266  35.6169052  83.7379379  58.5669098  35.0844498  83.5158844
  59.4919395  35.4304886  84.6628647   5.6358962  12.9583330  63.2671051
   5.3217540  13.1841593  62.3915749   5.2234640  12.1163006  63.4597511
  33.4313469  56.3507042  35.8257751  33.7185860  56.9592171  35.1450119
  33.7727165  55.5009918  35.5470467  35.8236008  30.9346676   8.6091871
  36.3538933  30.1793861   8.8633060  36.0530319  31.0910912   7.6931500
   9.6973372  47.9588928  27.8134899  10.1245260  47.8880920  26.9598331
  10.4093943  48.1561050  28.4220238  79.9880142  31.7947216  39.9146500
  79.9453888  30.9196453  39.5290871  80.7803802  32.1820221  39.5426445
  82.0185471  47.4325943   8.9620352  82.8677216  47.0340958   9.1526680
  81.9369354  48.1399956   9.6016865  82.7344513  55.1477776  13.5776720
  83.4622726  54.6743584  13.1747046  82.5027390  54.6233749  14.3441877
  83.9593887  64.5088196  50.5428658  83.4318924  63.9963875  51.1555557
  84.8646927  64.3137589  50.7849541  67.7885666  38.2342911  57.7303276
  67.5110245  37.3683319  58.0291862  67.3275528  38.3605843  56.9010201
  51.8628502   6.3381910  60.4287491  51.8018456   5.4410362  60.7568092
  51.1577911   6.4062552  59.7849350   9.6500750   3.8190315  16.3100090
   9.4871120   4.7621512  16.3241768   9.2175550   3.5131855  15.5127525
  52.8651505   2.1189415  76.4194183  52.0002670   2.1619167  76.8272858
  53.2921295   1.3733208  76.8412857  66.1849747  17.9438496  11.9207993
  66.9217911  17.9585629  11.3099718  66.1763535  17.0504150  12.2642126
   2.6282525  19.6677704  15.8943872   2.3911977  20.0203476  16.7521305
   1.7979653  19.6092129  15.4217072  14.9025154  17.3032036   9.9937639
  15.8244476  17.0631332  10.0867062  14.4339113  16.6684227  10.5357027
  75.7153320  59.1004639  13.0488462  75.8457718  59.5768547  12.2289257
  76.1528015  59.6370697  13.7098351  30.8975506   6.9284339  21.0550671
  30.1308022   6.7311850  21.5930462  30.5720558   6.9019523  20.1552982
  84.9338989  47.4973869  27.9051456  85.1211395  46.5688210  28.0427570
  85.5889587  47.7819252  27.2678299  73.5292130  19.9596291  56.7114983
  73.0155029  19.7008762  55.9463959  74.2638931  19.3462086  56.7253227
  59.1849861  32.9159126  16.3662376  58.9217567  32.0494118  16.6762695
  58.3649178  33.4046288  16.2964020  54.3388367  70.6143646  34.3034210
  53.6297493  71.2264862  34.1066055  55.1387825  71.1164932  34.1478996
  26.0947762  55.0946007  13.5785894  25.8847485  55.6957932  12.8639650
  26.1557560  55.6545334  14.3525333   2.8475566  67.9151382  83.1308594
   2.2378552  68.2591858  82.4780731   3.4942496  67.4272919  82.6209335
  45.1635590  31.2400913  78.8245163  45.7115707  31.1332912  79.6020203
  44.3615456  31.6480484  79.1509781  19.1966438  69.6171188  33.9947014
  19.0750427  68.7136383  33.7028618  19.5755596  70.0643158  33.2379494
   3.0403087   6.8861494  13.7191010   3.3182914   7.7994728  13.7883644
   2.1277225   6.9344840  13.4343519  50.1971169  48.7768211  69.5054398
  50.5676041  48.9038010  70.3788528  50.8676491  48.2865295  69.0298080
  13.7038584   7.5234690  25.3170662  13.8110762   7.7533817  26.2400379
  12.7800779   7.6941986  25.1334553  82.2321320   4.3086386  32.3577194
  82.8212814   4.8887529  32.8400116  81.4273987   4.8165455  32.2544670
  37.5464783  61.6578827  16.1653385  38.3067703  61.9477348  15.6611862
  37.0934334  61.0460663  15.5851097  69.0029678  61.9596291  35.9058418
  68.5228500  61.7864723  35.0960693  69.7870483  61.4144669  35.8406448
  30.9990597  67.2678833  31.5722466  31.6897697  67.1027832  32.2140350
  31.0242691  66.5069199  30.9921303  45.9322014  60.5804482  66.7799759
  46.1554031  60.8533669  65.8900757  45.0936394  60.1280289  66.6885300
  22.0645809  64.7111588  81.2416840  22.4548206  65.5568390  81.0208359
  21.2740021  64.6644745  80.7040558   9.2364902  56.1836548  29.9310112
   8.6394119  55.7841530  29.2984524  10.1013117  55.8560677  29.6840248
  60.5022430  35.5459633  12.9702587  59.9338379  35.7759171  12.2352314
  61.3860703  35.7440262  12.6606560   4.0748820  47.2762680  44.0890617
   4.8144689  47.4001541  43.4941711   3.7882884  48.1641350  44.3030472
  35.3760071   6.6471291   6.7395616  36.3103867   6.7831855   6.8965769
  35.3282318   6.3316574   5.8371053  44.9003105  43.2798004  11.4615793
  44.7015915  42.3719063  11.2325134  45.4242020  43.6026344  10.7284021
  35.9695740  60.4637337  53.3840370  36.8176689  60.0808296  53.6084366
  35.5288124  60.5795364  54.2257919  85.7222290   1.7064865  19.2138100
  85.3603287   2.4339321  18.7077637  86.5953369   1.5698677  18.8460503
  44.1454468   3.9275196  50.0415878  43.2438278   4.1127353  49.7788925
  44.0598793   3.3686054  50.8139381  43.4951820   9.1043139   0.9988514
  44.2986374   9.2335234   0.4948738  43.6295280   9.6131525   1.7983919
  60.9504089  67.1201019  53.6290359  60.9219551  66.2262726  53.2877350
  60.6768456  67.6666107  52.8923340   1.0467865  65.6670227  24.1284275
   1.1189893  64.7128372  24.1516895   1.2513564  65.9006958  23.2230110
  11.5010729  61.3718262  86.1687546  10.9744616  61.1187401  85.4105606
  10.8592110  61.5736809  86.8495636  49.3733330  62.4589005  82.2213974
  49.5325394  63.2010574  82.8045731  49.3134079  61.7034035  82.8060913
  24.9972782   7.1854024  15.4541903  24.5535507   8.0314960  15.3953381
  25.1942768   6.9546056  14.5463600  65.6212769  49.7989655   2.0348315
  65.6842880  49.8762856   2.9868205  65.0103226  49.0758438   1.8931798
  24.6781006  66.3796844  22.9124279  25.1783428  66.1834335  22.1202965
  25.2534084  66.9482269  23.4243050   0.8987588  40.2728882  56.5375290
   0.2324977  39.7051506  56.9248276   1.2461317  40.7729111  57.2761383
   7.1842451  39.5995483  62.3248634   7.7615871  38.8458672  62.2028999
   6.8380222  39.7799492  61.4508972  14.0639143  24.9550838  88.6990356
  14.6147356  24.5068760  88.0572128  14.2473574  25.8848419  88.5643845
  29.3874054  56.0673943  88.8535995  30.1267109  56.6534615  88.6917648
  28.9975052  55.9296799  87.9903259  41.7709541  35.1974869  71.5247574
  41.6242409  34.2931786  71.2473831  42.2058525  35.6094475  70.7781754
  67.7972946   1.9656543  57.8486977  67.9483261   2.7893739  58.3122749
  68.6261444   1.4928627  57.9241982  81.2521439  24.9041843  65.7796783
  80.4968491  25.2766171  65.3246460  81.8523254  25.6415253  65.8908005
  55.6542511  65.1178589   1.9223291  55.4581375  64.3676071   1.3611702
  55.8810043  65.8201294   1.3127180  50.0258293  64.0470657   6.2213426
  50.4687767  64.4847183   6.9483147  49.6141357  64.7573700   5.7292032
  20.9039021  48.8408928  72.8566284  20.5453854  49.3953743  72.1636276
  20.4335155  48.0120125  72.7676010  11.4640818  44.4419746  85.3473206
  10.8505468  45.1174393  85.6363831  12.1901026  44.4960747  85.9687729
  31.8043823  44.7967148  74.9391098  32.5976944  44.5837631  75.4305801
  31.1729717  44.1269035  75.2016068  13.6810360  43.8756981  42.2573586
  14.3901138  43.5774193  42.8269844  13.2385139  44.5575638  42.7627945
  61.7586632  49.0467567  12.3608952  61.3427429  49.9076118  12.4074697
  62.1843262  49.0324745  11.5036678  77.5331421  50.0648918  78.9040833
  78.1061859  50.1849709  79.6613388  77.0440369  50.8853035  78.8413620
  50.0802269  39.2023849   9.4051771  49.7969933  38.8123741   8.5781927
  50.9070168  38.7638626   9.6060438  28.4395294  69.3255386  53.4393425
  29.3110733  69.3246918  53.0435600  28.5162601  69.9191818  54.1862946
  75.0736008  35.1030006  58.8568382  75.6260071  34.9492798  59.6232872
  74.8129883  34.2277641  58.5700073  63.4996910  32.2087097  81.6882401
  63.3472252  32.9698601  81.1282043  64.1384506  32.5106239  82.3340454
  42.2843704  45.7487297  69.6677399  42.5005493  46.2858353  70.4299850
  42.9728928  45.9459839  69.0327072  22.6371784  32.2873001  23.3860989
  22.0269985  32.9979668  23.5832481  23.1160908  32.1491966  24.2032890
  20.6448822  70.6743546  12.1450624  20.7466774  70.3617172  13.0440207
  21.3868294  71.2641068  12.0111217  24.1506462  36.9594307  80.4046783
  24.3156281  36.5059929  81.2313614  24.4413109  37.8577499  80.5620728
  13.4615164  48.6538467  23.7285652  12.7653866  48.6938858  24.3843327
  13.8689051  47.7982712  23.8636608  82.6615524   4.3373857  20.9004211
  81.7911682   4.2318096  21.2844944  83.0020142   3.4455638  20.8299026
  14.4147987  51.5783272   5.4079857  15.3559141  51.6718063   5.2603517
  14.3385963  50.8321152   6.0026221  43.7813416  60.0395546  29.0784225
  43.2564125  59.6699600  28.3684368  43.1380081  60.3888664  29.6951389
  53.6498756  49.0021439  55.6311035  52.7662468  49.3017464  55.8448181
  53.5156593  48.1925011  55.1384621   1.3156650  62.3362274  27.1775875
   2.2337253  62.1133995  27.0234985   1.1245813  61.9783134  28.0445461
  85.5730057  13.0516024  74.3836746  85.7494888  13.3298054  75.2823944
  85.2837830  13.8482447  73.9387665  74.9074860   6.8716674  35.7497635
  74.2826920   7.5186505  35.4222298  75.7634125   7.2122393  35.4897118
  35.0432663  65.1660690  19.4802246  35.2539368  66.0588455  19.7537003
  35.8201942  64.8715134  19.0049839  83.6260223  42.1561699  56.4508476
  84.3719635  41.8660927  55.9258080  83.6824951  43.1116409  56.4398422
  58.4505196   4.3067155   9.9395714  58.9714546   3.9847119  10.6752176
  58.7957115   3.8393240   9.1789017  78.1754837  34.3521652  78.9643021
  78.8161774  33.7051239  79.2594070  77.3452225  34.0536575  79.3354950
  56.8702011   4.3585505  12.8796854  56.6988029   3.7232976  12.1844816
  56.5039482   3.9563365  13.6672859  47.1867905  12.2780466  18.7105160
  47.0585709  11.9425907  19.5977936  47.7934532  13.0107727  18.8168201
  53.9721642  57.1882935  50.3668480  53.2107925  56.7152214  50.7026367
  54.3977737  56.5678902  49.7750816  22.0274982  66.9993668  73.3843536
  22.2330322  67.5343781  74.1510010  21.0744743  67.0460663  73.3082199
  73.3602066  44.2716331  24.9064922  72.7130051  44.9016647  24.5895863
  73.1858749  44.2007370  25.8450089  10.6327181   7.8148513  56.2199097
  11.2347727   8.3701429  55.7245178  10.8940849   6.9210501  55.9984627
  62.6753922  71.9564972   6.3973517  62.8266983  71.6515808   5.5027223
  62.4624481  71.1627579   6.8881335  67.0105438  30.9222107  44.4040833
  67.5044556  30.2118664  44.8135872  67.2849350  30.9071617  43.4871788
  84.3240433  55.3521729  58.2735672  85.1083679  55.8891563  58.3863068
  83.7019119  55.9274139  57.8282738  72.3462677  10.3415375  27.2148457
  71.6514206  10.7136507  27.7579422  72.1916580  10.7076473  26.3440475
  16.5365410  50.7906570  50.2779655  16.2220345  51.2332535  51.0662727
  15.7792149  50.7768745  49.6927299  71.8229523   6.2659526  43.0640450
  72.4642334   6.9765735  43.0677948  70.9983749   6.6861558  43.3084450
  69.7456970   9.6362076   6.6174779  69.2399292  10.4391909   6.4923987
  70.2049637   9.5106249   5.7870951   2.1431313  69.4759369  28.9361610
   2.8118932  69.9559479  28.4477139   1.6353124  70.1560745  29.3786240
  76.7657547  67.1804276  79.1925735  76.4628143  67.9794464  79.6238785
  77.0585175  67.4707870  78.3287354  52.1546516  58.3128319   2.4259527
  52.8209839  58.3476295   1.7396443  52.3696480  57.5273132   2.9289138
  36.6487045  49.3358574  79.8203888  36.6129189  50.2807884  79.9689026
  37.4900818  49.0671196  80.1893005  36.8338585  40.7971230  70.9271774
  37.4910049  40.1275864  71.1172028  36.2655602  40.3952675  70.2700729
  33.0103226  63.4075661  62.3228149  33.1079178  62.6737289  62.9296036
  33.3208961  63.0674515  61.4837074  27.4574127  70.0475922  81.3311386
  26.8783493  70.4896622  80.7102585  28.3400307  70.2440186  81.0170746
  67.6649475   3.1647961  52.2421913  67.9813766   3.4013391  51.3703270
  67.3939972   3.9958491  52.6322784  53.9450264  62.4365997  77.3844223
  54.0005760  61.9890480  78.2287216  54.8229256  62.3548813  77.0118027
  13.5171118  61.4535713  24.7981834  13.9744425  61.6980095  25.6027508
  14.2026615  61.1013451  24.2305679  56.7726669  68.5351944  38.9374771
  57.0629768  67.8174591  38.3746223  56.3083344  69.1292419  38.3477859
  34.9414101  62.2086143  14.0490732  34.4490852  63.0230713  14.1515894
  34.7586861  61.7159691  14.8491621   9.2822180  18.7352085  10.7688980
   9.6836662  18.3495598  11.5475807   9.2026148  18.0057545  10.1542492
  54.6562614  16.5825081  55.8306389  54.8929062  17.3563519  56.3419075
  53.9325523  16.8739529  55.2760773  72.6998978  27.3248310  76.7974854
  73.3574677  27.5255814  77.4634628  72.7892990  26.3834991  76.6487198
  50.1237640  49.5452576  24.7883873  49.8159523  48.7583694  25.2381535
  50.5424614  50.0650063  25.4745255  77.6501541  28.1893692   9.5046520
  77.3417969  27.5161800   8.8980494  77.0020676  28.8902626   9.4342022
   2.3616955  38.8284683   1.8055022   2.0374727  37.9542694   1.5889652
   2.2905438  39.3198166   0.9871240  60.2196236  11.8604937  40.7458801
  61.1265221  12.1602993  40.8081970  60.0840149  11.7001181  39.8120041
  68.1405106   4.7425637  73.9548798  67.9567795   3.8051696  73.8935165
  67.7561188   5.0077767  74.7904282  52.3671722  12.1647577  56.9108391
  52.4419937  12.8087931  56.2066727  51.9812431  12.6505642  57.6397285
  43.9487953   7.4380760   3.4222095  44.0811348   8.3806829   3.5232558
  44.5163231   7.1935391   2.6912184  79.3150940  37.7264900  24.6052971
  79.8366776  36.9246712  24.5697556  79.9220581  38.4188499  24.3436508
  52.3970222  12.7480421  19.3361111  52.5959663  11.8288031  19.1581993
  52.4314690  12.8202915  20.2899570  30.4640198  37.3633728  63.3983231
  29.6000195  37.3079910  63.8065758  30.9481373  36.6213608  63.7606506
  40.5454750  25.2150688  82.4867783  40.8626022  25.6644974  83.2701569
  41.2463493  24.6033592  82.2613373  15.9493198  25.9077511   5.4102168
  15.3695078  26.0603676   6.1563792  16.7330914  26.4207649   5.6070714
   1.8899636   1.2603509   8.8807278   1.5441962   0.5654895   8.3205099
   2.6137400   0.8491543   9.3532705  60.6981392   0.7754841  42.6869812
  60.9392395   0.8694366  41.7654190  60.1337318   0.0027125  42.7093086
  22.5717392  37.3213997  12.8656521  22.7319717  37.9623909  12.1730556
  22.7373562  36.4745865  12.4512682  22.7193203  39.2392006  32.8367615
  21.8538799  39.5911293  33.0450745  22.7775764  38.4301796  33.3450165
  35.3099556  49.2696762  40.4707870  35.1888008  48.6679115  39.7363243
  36.2461967  49.2251701  40.6649628  82.7737045  54.3448639  51.3599205
  82.5471649  53.6531296  50.7382965  81.9306335  54.6572609  51.6883430
  15.2364550  63.9265823   4.6298933  15.4518108  64.3577728   5.4568954
  14.3068628  64.1126556   4.4977293  71.5553284  61.0337563  72.4791107
  72.0317230  60.3226662  72.0505905  70.6404114  60.7528763  72.4630814
  62.1414986  22.7558517  20.2395210  62.2933464  22.9297810  21.1684570
  62.7151146  22.0167160  20.0373478  42.8563538  40.4207497  10.4116087
  43.7825394  40.2953072  10.2050400  42.8261528  40.4507141  11.3678627
   0.8169904  22.2375183   7.6270781   0.5794429  21.6542377   6.9062552
   1.6803712  22.5745506   7.3878822  67.2061234  24.2092686  75.9240341
  66.2860031  23.9645805  75.8253174  67.5414276  24.2467403  75.0282669
  22.1712875  15.1329193  78.2126846  21.2370110  15.3316059  78.1503906
  22.3219013  14.4745817  77.5343475  72.9219437  57.3819160  10.9867496
  72.3549652  58.1109848  10.7352896  73.7725601  57.5969772  10.6040878
  67.1455536  43.6374283  56.9435997  67.1539078  43.9530258  56.0399628
  66.5795288  42.8658028  56.9225845   4.9673648  66.7500610   7.4509726
   5.0189829  65.9517975   7.9766564   4.1458979  67.1612549   7.7199311
  77.9722748   0.8008008  77.6733627  78.6589661   0.8431417  78.3388596
  77.2102127   1.2036356  78.0895615   1.3861494  62.1457939  82.1264114
   0.4813324  62.0016747  81.8493423   1.4835693  63.0979195  82.1404648
  22.2985859  50.0114136  43.8003998  22.1151676  49.2777672  44.3872147
  22.3692493  50.7698746  44.3800354   1.1559881  67.5128098  13.9101191
   0.6839651  67.1369934  14.6532135   1.9987904  67.0590363  13.9074650
  13.0835800  57.3530884  61.5481682  13.9375477  57.2917442  61.9761963
  12.6992149  58.1582870  61.8947945  15.0574532  53.0643845  18.3214302
  14.7797956  52.1674080  18.5073643  14.5396729  53.3221550  17.5587444
  16.9596996  59.9076385  62.9040794  16.1166706  59.5795746  63.2169838
  17.4292660  59.1249123  62.6158447   6.8153944  71.0655670  25.3073215
   6.4249902  70.8262711  26.1478901   6.1256142  71.5479431  24.8515320
  17.5862160  67.2210007  85.9584351  17.6602325  67.7781296  85.1836014
  16.6917725  66.8817596  85.9249496  44.3795204  66.5314713  56.6012230
  45.3291893  66.5822220  56.7097816  44.0942802  65.9129410  57.2737465
  24.5017757  18.5319767  68.2796249  23.8061752  17.9818554  68.6398163
  24.8958702  18.9512520  69.0445633  68.8645401  34.2169228  39.3722534
  68.3724747  34.8900261  38.9021111  68.8870621  33.4726601  38.7707596
  33.6494102  19.9034653  87.7445679  33.4140244  20.6676693  88.2707062
  33.3028030  19.1585674  88.2357101  43.5019760  70.0921326   0.2342352
  42.8970642  69.3506470   0.2569924  44.2790527  69.7816391   0.6989707
  66.2727051  26.1909866  30.4195385  66.4466629  26.9996567  30.9012280
  66.9838333  26.1346931  29.7812901  49.5462837  49.5402184  46.8963699
  48.6781578  49.9384956  46.9593544  49.8564339  49.7787819  46.0227966
  74.5589066  60.3438110  24.2945633  74.2151260  60.5290146  23.4206371
  73.7800980  60.2157402  24.8361225  29.1727448  70.9809265  72.0922089
  29.1874695  70.7692795  73.0256042  28.6626835  71.7890778  72.0378799
  31.2436485  56.0462341  45.2260628  31.9300766  55.4068146  45.0358238
  30.7291794  55.6442337  45.9260254  79.6897354  44.0953064  64.1932755
  80.0988998  43.8499870  63.3634338  78.7716675  43.8444672  64.0910263
  59.2891045  27.5618267  -0.1244077  59.8845444  28.2855434   0.0703187
  59.1875877  27.1040401   0.7100722   3.2124827  13.1455717  84.9784622
   3.5754719  12.3414173  84.6072388   3.2045329  13.7642355  84.2481079
   4.5115619  21.3143597  39.6768990   4.2941337  20.6530952  39.0198708
   3.7271910  21.3774719  40.2218857  67.0407562  19.6425648  88.3333435
  67.1380768  20.5895519  88.4332123  67.8998032  19.3436317  88.0351715
  82.3989639   4.7809443  14.0937748  81.5100098   4.4265804  14.0734777
  82.4051666   5.3691001  14.8489351  34.5346184  58.4709053  48.9689598
  34.0795937  58.7089729  48.1611824  34.5890961  59.2888489  49.4631577
  75.3577118  57.3840256  80.1973419  74.6179810  57.8658676  79.8274002
  76.0841675  58.0069466  80.1757889  85.7457581   0.8210812  28.1412392
  86.2619858   0.6269965  28.9235897  85.9603577   0.1151375  27.5314674
  71.8526306  12.9062796   2.4742985  72.5561600  12.9163227   3.1232798
  72.1999359  12.3820314   1.7526517  66.9891357  50.7063141  20.5214767
  67.2626495  50.2998047  21.3437710  67.6435089  50.4208374  19.8838787
  46.4990997  60.8463593   0.3148374  46.0169067  60.0287933   0.1911254
  45.8706284  61.4339676   0.7343281  23.1550350  14.2272253  70.3097916
  23.5581493  14.8648243  70.8990326  23.5352840  14.4193878  69.4526367
  76.8999939   4.2889352  24.4483395  76.1503677   4.2034883  23.8592854
  77.0763397   5.2293234  24.4767170  84.8339081  42.6615257  33.0299263
  85.2839966  43.3285866  33.5482712  84.0042877  43.0698662  32.7825165
  12.3589201  40.1729088  17.4659367  12.5497036  39.3463821  17.9094315
  13.1978416  40.4438629  17.0930767  53.7869110  42.7808266  19.9641762
  53.2798233  43.3053398  19.3445129  54.4531631  42.3526955  19.4265480
  78.6239853  46.3210411  70.0726547  79.3521347  45.7689018  69.7877350
  78.7011948  47.1127892  69.5402908  84.9065323  56.9141502  31.9552574
  84.5255814  56.1631088  31.5002308  84.5934982  56.8323898  32.8561211
   8.0778103  67.7474289   7.6021662   7.8057847  68.6157608   7.3051333
   8.2039709  67.8457489   8.5459070  37.0234871  56.8074913  48.1413727
  36.5224800  57.2355003  48.8356590  36.6882629  55.9111214  48.1218529
  80.0408936  26.7209682  14.0150900  79.7884979  27.0991936  13.1727858
  79.9243851  25.7780323  13.8987694  43.8875656  32.7817192  42.1217499
  44.5482330  33.4733658  42.1589012  44.1352882  32.2544174  41.3622627
  17.6949692   9.9251080  57.8318138  18.0952377   9.2329502  58.3580589
  18.4279423  10.4840469  57.5738068  29.6173496   2.8103023  12.3529539
  30.2557793   2.2746766  12.8238516  29.1234913   2.1842000  11.8234892
  13.7550201  57.4942474  37.9049835  14.6880264  57.6513977  37.7599487
  13.7117147  56.5965958  38.2344933  41.1448326  16.5953560  84.1978302
  41.1037674  16.8814335  83.2853012  40.3262405  16.9072189  84.5836792
  54.1977654  13.2764006  53.0544586  54.9557419  12.6997967  53.1505585
  54.0016098  13.2600222  52.1177177  59.0762596  61.4622002  28.5645638
  59.8708076  61.7845726  28.1391182  59.0435791  60.5327454  28.3381252
   0.6257040  20.2087288  61.2743721  -0.2928553  20.4647007  61.1909523
   0.9607362  20.7486515  61.9902420  66.9120483  46.8774605   1.9926898
  66.0976562  46.4939270   1.6672647  67.1156769  47.5732040   1.3676234
  79.2305069  37.6093292  14.0524130  79.8611984  36.8892899  14.0520945
  78.5821838  37.3601456  13.3937683  31.3669624  54.0976677  55.1763077
  31.5746841  54.9412117  54.7744179  31.2997551  53.4911041  54.4388809
  78.4957809  38.9390984  41.2768135  78.0303802  38.3196678  41.8389053
  78.1743622  38.7506180  40.3951111  44.7092972  47.3694878  19.8121376
  44.3847618  48.0832977  20.3611279  45.2966156  46.8754120  20.3841324
  30.2793293   3.5492716  35.2999535  29.5165253   4.1254630  35.3485870
  30.0530243   2.8047359  35.8573456  68.5311890  49.8861427  25.5904121
  67.6780243  49.6535301  25.9567909  69.1329422  49.2361641  25.9532509
  48.9664688  31.6610394  74.5238876  48.3885994  30.9852924  74.1693954
  49.8343315  31.2572556  74.5255890  54.3641624   9.0748339  73.4874039
  54.7101974   8.4135942  72.8880234  54.9856186   9.8004494  73.4281769
  32.1437988  65.1120224  72.0565567  31.9984150  65.1474380  71.1111221
  33.0911751  65.0117722  72.1496124  48.2363014  67.7658081   6.6141143
  48.4736481  67.0862122   5.9831982  47.5131645  68.2359390   6.1990490
   3.9858649   2.9026856  60.0952530   3.5556731   3.7153497  60.3612289
   4.6777043   3.1829247  59.4960365   6.9044881   5.4476466   7.4225917
   6.0180273   5.7826662   7.5574279   7.4148498   6.2163005   7.1677699
  69.3757706   0.4513246  60.4440460  69.5756454   0.4237068  59.5083542
  68.4334869   0.2901317  60.4925423  33.3088799  46.5809288  48.8972359
  32.9123306  45.7947731  49.2726631  32.7366104  46.8117676  48.1654892
  25.4192848  60.3327713   6.7584352  26.1647835  60.3989754   6.1617088
  25.5579605  59.5082207   7.2243962  76.7327347  70.2915039  41.4780045
  77.1765366  71.1394043  41.4964600  77.1841354  69.7997818  40.7919426
  79.3774490  22.2591152  58.4136887  79.4499512  21.9500713  59.3167229
  80.2812881  22.4183121  58.1417274  83.0166321  68.1665421  42.6704178
  82.3424988  68.7418289  43.0321045  83.3075943  68.6099548  41.8735809
  52.9590073  21.6287518  39.9794388  53.4768257  22.0021515  39.2662239
  52.8481216  22.3505440  40.5982704  12.5161743  33.3398285  12.2591696
  12.9552822  33.7051773  11.4910975  12.5511093  32.3924408  12.1269855
  57.8425598   4.8701048  33.3023224  58.5879211   5.2356048  32.8257980
  57.6082344   4.0819077  32.8123550  80.3044586  70.2730865  16.6417236
  79.7828598  71.0190582  16.3455944  80.8181534  70.0204086  15.8745823
  63.3682022  39.4273605  46.2399254  62.7895050  39.1973457  46.9668579
  63.1336823  40.3297691  46.0233803  77.1923370  67.6606369  38.4202538
  76.8497849  66.8504181  38.7976761  77.8408279  67.9651337  39.0550575
  26.9934120  69.7277908  30.8630619  27.7188377  70.1697998  31.3042164
  26.8175220  70.2672119  30.0921421  14.5443678  66.5477600  24.5864964
  13.7284098  66.3932190  25.0624809  14.4393778  67.4207916  24.2083130
  71.3100204  23.5452347  40.9643936  70.3866043  23.2954826  40.9304352
  71.7823639  22.7504768  40.7164459  21.9761810   5.4793873   4.9198456
  21.9010010   6.1523905   4.2433500  21.1627407   5.5500140   5.4194016
  33.3016014  18.0953312  83.8081360  32.4925804  18.0748501  83.2969589
  33.9498634  17.6687794  83.2477417  26.1863194  41.3853531   3.8319674
  26.7922268  41.4561729   3.0943408  25.3197842  41.3462257   3.4272232
  19.9539623  41.7727051  12.5009384  20.4192848  41.8474579  11.6678009
  20.6215649  41.4837265  13.1230555  64.2053146  19.3420315  87.4570694
  65.1097412  19.2779388  87.7638855  64.1298981  20.2341728  87.1185074
  81.7503510   4.7418747  80.4444427  81.0770340   4.5176878  81.0867920
  82.1831436   3.9103141  80.2509613  85.6630554  15.2003431  79.3815460
  85.7569656  14.5867548  80.1101913  86.1010818  15.9969234  79.6812439
  46.9052887  51.2813110  31.0734291  46.7463341  51.9261169  30.3840885
  47.3682747  51.7685165  31.7549763  30.4331169  65.2570419  49.0066452
  30.1393414  65.7542191  48.2432709  30.2086620  65.8111191  49.7542114
  48.6114998  38.3199577  77.0782776  48.4137802  39.2247086  77.3202744
  48.8385277  38.3646011  76.1494675  50.3444557   4.7269230   1.5553505
  50.4259453   4.0211616   0.9138739  50.7082939   4.3610082   2.3615503
  79.4600067  37.5902138   9.6863708  79.6245804  38.2619629   9.0246305
  78.7903442  37.9720039  10.2538433  49.4140739  15.4715757  82.1330185
  49.6561699  16.2781696  81.6780167  48.9594078  14.9504871  81.4712219
  38.1722450  47.8761024  47.6922188  37.9329834  48.3441772  48.4921494
  38.6010361  47.0779305  48.0009155  13.1849575  31.0924473  66.9971542
  13.0446177  30.5820141  66.1996613  13.1076012  32.0038185  66.7149200
  42.5215187  50.9699287  60.9216766  42.5170860  50.7840576  59.9827080
  43.0880127  51.7362556  61.0114708  64.9345932  42.3268433  80.5849533
  65.7724457  41.9245949  80.3559570  64.8010330  42.9990196  79.9166870
  54.8821106  24.9623966  54.0716171  54.9045944  24.0702324  53.7255402
  55.8002090  25.1799679  54.2328339  58.5837288  56.6259346  17.9668427
  57.7586861  56.5739746  17.4843102  59.2400284  56.2909088  17.3558865
  78.8062897  13.4027538  86.1861115  79.5086441  12.9038963  85.7688904
  79.2601700  14.0543365  86.7205887  28.8594151  47.1632652  24.2458916
  27.9457436  47.4119759  24.3858166  28.8757820  46.2178497  24.3947277
  45.3516426  67.6318283  87.1093292  45.4139862  68.5785980  87.2357178
  45.7606316  67.4764023  86.2579803   5.3357949  21.7181225  75.7337646
   4.3838062  21.6927776  75.8302460   5.6687336  21.6691856  76.6298599
  11.9055977  21.4420586  23.2207127  12.7596960  21.7043247  22.8772545
  11.5159893  20.9191055  22.5200291   4.7726846  66.6264267  75.2702103
   5.1923652  66.2491989  76.0433884   3.9762547  67.0373459  75.6064835
  36.3342476  56.0605583  55.1771049  37.2864647  56.0585976  55.0795631
  36.0705032  55.1638374  54.9707947  42.5328903  47.9801788  48.2682915
  41.8623009  47.3362694  48.4961624  43.1342850  47.9734306  49.0129471
  29.9396610  56.0516243  78.5581741  30.4926414  56.6283112  78.0310287
  29.0560169  56.4037552  78.4513550  33.5630264  26.6509895  79.2108994
  33.3789711  25.8481140  78.7233124  32.9992752  27.3109093  78.8072662
  69.1712036  45.0758514   2.6225705  68.4171219  45.6652946   2.6348000
  69.2820511  44.8478699   1.6995492  46.4229317   8.7840242  77.1647415
  47.1479263   9.3643532  77.3967590  46.5782738   8.5619450  76.2467117
  26.3782330  30.3355274  84.7687454  26.1751595  31.0841713  85.3295670
  27.1075821  29.8980904  85.2079849   8.5000496  63.5397491  55.1704483
   7.7527971  63.2989388  54.6228561   8.7717495  62.7181854  55.5796471
  52.7349091  47.9184341  80.6599960  52.3985100  47.9688072  79.7652664
  52.4670868  48.7441177  81.0634155  79.8544846  44.2768974  13.8000755
  80.6573639  44.7723160  13.6382999  80.1192551  43.5817528  14.4024906
  60.4967155  35.3357506  60.6451340  60.5890846  35.4477196  61.5912666
  59.6696053  34.8657532  60.5391922  81.4014053  60.5279388  36.7293854
  82.1655579  60.9327164  36.3189583  81.7454453  59.7414932  37.1529045
   3.8327203  47.6171036  87.4101257   4.2925434  48.1992950  86.8052673
   4.3005614  47.7153702  88.2394028  52.2217674  59.0633087  16.4300919
  51.6984406  59.6832848  15.9221640  51.6453171  58.3094673  16.5552387
  35.9754601  57.4417381  52.7210579  35.5982132  58.2512856  53.0653687
  36.0887108  56.8839874  53.4906769   0.7094560  27.1594219   0.3148678
   1.4807661  27.6938591   0.1259478   0.9382511  26.2869625  -0.0055958
  24.2858372  58.7220268  43.8852577  25.1553516  58.4092102  43.6356201
  24.3617744  58.9213219  44.8183975  11.1473780  30.0952377  13.3052235
  12.0402775  30.4091206  13.4481869  11.0173931  30.1653557  12.3594866
   3.3453703  61.7893677  52.4296913   4.1220331  61.2946434  52.6909866
   2.6117294  61.2105904  52.6371078  85.1294327  62.5786591  66.9037552
  85.2776794  61.6904945  67.2284317  84.8074646  62.4565544  66.0106354
  49.2620087  37.4228897   7.3961892  49.3787498  36.6753922   6.8098021
  49.1388779  38.1698608   6.8104415  35.2736092  54.8312340  21.6539860
  35.4751701  53.8955231  21.6470528  35.8811188  55.2023697  22.2938461
   4.2549853  46.0306282  50.4179230   4.4572325  45.1675148  50.7789879
   4.9744635  46.5884895  50.7135086  85.3753815  70.4568634  61.3729134
  86.3052902  70.2317123  61.4013214  85.3380966  71.3606491  61.6859894
  38.7349167  38.8091049  87.8334427  38.5494728  39.7262764  88.0350418
  37.8845291  38.3738937  87.8939819  15.1634064  68.8504868  45.9211349
  16.0190525  68.4915314  45.6860733  14.5543461  68.1240158  45.7887840
  57.1447868  29.8346138  71.8922043  56.6497688  29.1707306  72.3722534
  57.0289001  30.6357555  72.4030609  34.8366470  71.3144379  31.5414619
  35.6431580  70.8676071  31.2843437  34.8072510  71.2262726  32.4941406
  33.2743988  55.7500496  19.4797325  32.7184448  54.9709244  19.4694729
  34.0891953  55.4575195  19.8881054  14.5770369   0.9984125  46.2509079
  15.3710804   0.7438647  45.7808762  14.1496267   0.1692900  46.4656372
  21.7431183  27.2103138  13.2657614  21.7185230  26.3388538  13.6609631
  21.3776855  27.7876892  13.9360800  35.3003540  58.2504578  87.5102463
  35.7073708  57.9611473  86.6936264  35.4469223  59.1961823  87.5289993
  11.9775066  34.6878090  16.3858719  11.5142260  33.8507195  16.4155731
  12.5464783  34.6195908  15.6191587  61.5272408   9.5579462  54.5818024
  60.6802177   9.8464708  54.2418976  61.3078613   8.9271746  55.2675362
   5.0484343  56.8824692  86.1116486   4.9175096  57.6162376  85.5110855
   4.6017623  57.1482086  86.9154510  68.6122513  58.7637482  43.9265900
  69.2655334  59.4581566  44.0117607  68.6790390  58.2704811  44.7441826
  78.1091309  63.0226402   6.2473655  77.4578400  63.7167397   6.3487439
  78.4126053  63.1090851   5.3436699  73.5918198  54.3421288  43.6534920
  72.9570847  54.1929550  44.3542671  73.6247025  53.5113106  43.1792641
  76.6300278  25.6251163  87.3417358  77.0269928  25.9938507  88.1308441
  77.3694611  25.4580364  86.7573090  30.3601341   7.3293076  18.4843960
  29.9644451   6.4648433  18.3732014  29.7077961   7.9377532  18.1372910
  64.1269608  21.2769527  42.0227127  63.7416153  21.0711060  42.8743973
  63.4290848  21.7268829  41.5465164  75.5596161  39.6978340  41.7758865
  75.1206360  39.5855484  40.9327240  76.2144699  40.3774910  41.6163368
  82.6798782  18.8081188  74.4871216  81.8810730  18.4701347  74.8919830
  82.7847748  19.6838951  74.8589401  47.1437569  67.4812012  41.6802292
  46.7079315  68.2483978  42.0512924  46.8215790  66.7466812  42.2026405
  21.2929859  49.1362343  58.0263519  21.5971642  49.9642601  58.3979454
  21.6210690  48.4685364  58.6286583  70.2295609  61.9271660  46.7919121
  70.3427048  62.8577347  46.9855042  70.2140350  61.8815651  45.8359261
  41.4993858  43.7235947   3.6517775  41.9920769  44.5037003   3.9065800
  41.6311913  43.6553307   2.7061565  61.0139389  48.3710785  43.1534538
  60.6227570  48.8627739  43.8755646  60.5005264  48.6234207  42.3860130
  14.5331697  10.4902983  70.3043213  15.4794292  10.3459883  70.3039551
  14.4287348  11.3949137  70.0093689  50.3794594  69.5304947   5.7499557
  51.0337219  69.0710831   6.2763724  49.5437775  69.1513214   6.0221667
  19.6918507  71.7614059  62.2542534  19.6433487  71.6862869  63.2072716
  20.5006618  71.3067398  62.0190201  67.4299316  68.8872833   2.3486466
  68.0709915  68.6413879   3.0155835  66.6574402  68.3603210   2.5531294
   5.0046678  36.1391487  44.9722252   5.3967834  36.3070259  44.1153183
   5.5273805  35.4262199  45.3392906  25.9031296   0.8123908   6.3181677
  25.6256027   0.7260558   5.4061604  25.3207836   1.4783340   6.6837158
  24.5126400  28.1298122  84.6097488  25.1766930  28.6366653  85.0770416
  24.8536968  28.0521145  83.7187500  74.4493637  15.3663082   0.3805966
  73.6326981  15.7937517   0.1225514  74.3801651  14.4814196   0.0222466
  37.4943962  55.6485939  23.2874775  37.6005478  56.5718269  23.5168304
  37.1471252  55.2428589  24.0818405  42.1009483  27.1937809   6.2512474
  42.2444878  28.0900002   5.9472423  41.5094643  27.2860622   6.9981503
  60.4338150  65.8144379  40.5151520  61.0736847  65.1025620  40.5092926
  59.8370819  65.5942230  41.2304459  54.4763184  13.9924545  58.2424202
  54.8308601  14.8336983  57.9545975  55.1422577  13.3528996  57.9899788
  17.2273235  54.1800270  13.4468927  18.1034126  54.4373627  13.1597023
  16.7305126  54.9980507  13.4626255  45.2086983  34.3915024  85.6046295
  45.9959297  34.6043701  85.1034393  45.1738167  33.4349480  85.6010056
  33.5066795  17.1903591  73.9239349  32.5704803  17.0056782  73.8487473
  33.5910339  17.6682358  74.7490082  79.6736679  57.8331261  62.4374962
  78.8822556  58.2733002  62.1274185  79.7303772  57.0394440  61.9054375
  69.1402664  33.4093323  47.3709221  68.4045258  32.9221535  47.0000153
  69.8945389  33.1398163  46.8468399  76.1062164  37.7894402  64.1505966
  76.6053085  37.4719887  64.9031677  75.3993912  38.3088493  64.5338135
  15.8779879   0.8378720  34.6368332  15.4250555   0.6440071  33.8161621
  15.4586210   1.6356515  34.9591866  55.8691750  40.9566574  18.9058743
  55.9157753  40.2778053  19.5790939  56.7790833  41.0971832  18.6440506
  60.8233337  26.0715904  62.1550026  61.2638588  25.4949837  62.7792587
  60.2605553  26.6252403  62.6962814  80.4322510   9.0162868  45.7079353
  79.7439575   8.5158749  46.1461868  79.9718323   9.7482395  45.2974586
  58.2766075  25.5076084  72.6552200  59.0494957  25.2830181  73.1733322
  58.6087837  25.6156483  71.7640305   4.1605911  26.4049702  14.4525671
   5.0552678  26.2559872  14.7584906   3.6628649  26.5901375  15.2489424
   8.4558086  28.6201172   0.9491653   7.5595403  28.5439243   1.2764722
   8.4557009  29.4285221   0.4366102  71.3858490  45.0861740   4.3780413
  71.4488449  45.9820557   4.7091894  70.4854584  45.0103378   4.0621724
  41.2206955   5.5115256  73.2074509  41.3109436   6.1632662  73.9026642
  41.6974602   5.8846259  72.4660187  64.5128479  52.2200241  79.9092255
  63.8880844  52.9392509  79.8164291  64.0387802  51.4492111  79.5972366
   1.1755840  47.3265114  86.6737061   1.9735966  46.8584328  86.9192886
   1.4300184  48.2492752  86.6721725  24.9167976  55.3090286  21.0049229
  24.2135639  55.4332581  20.3675365  24.9740391  54.3600769  21.1164989
   6.0928817   3.6517663  30.6701488   6.2520361   3.5930355  31.6121960
   5.7723732   4.5437617  30.5365429  81.8247299  36.4839096  10.8558893
  81.5910416  35.7793236  11.4601946  80.9948578  36.9213448  10.6656284
  16.8441467  55.1382866  43.7626076  17.7895031  55.2318802  43.6452560
  16.5261745  56.0347595  43.8696899  70.7037430  10.4266338  18.5322704
  70.5774841  11.3754625  18.5286407  70.1340942  10.1065273  17.8327961
  58.7356911  14.3063068  70.1008377  58.6871605  13.7563076  70.8827438
  58.6434669  13.6938038  69.3710632  54.0355339   0.6515391  84.6765976
  53.9015121   0.4762668  83.7451782  53.9775620  -0.2084361  85.0929108
  86.5027695  36.1459312  75.0411682  87.0484924  36.7017899  74.4848938
  86.6765518  36.4532509  75.9308777  27.3626556   2.7113636  64.6034164
  27.4749794   2.2382934  63.7789040  27.2993450   2.0244172  65.2669907
  51.1574059  42.1120033  21.1703796  51.8275414  41.4670105  21.3965073
  51.1810417  42.1568947  20.2145252   1.4291115  41.2676773  19.2088242
   0.7786638  41.1613350  19.9029713   1.0430921  40.8304482  18.4498463
  68.3857422  68.1457520  73.6325760  67.6401901  68.3948135  73.0863571
  68.0877762  67.3680344  74.1043777  72.8118820  43.4234657  31.1372986
  72.8723907  43.8188629  32.0069160  73.6993027  43.4851532  30.7838688
  62.7886353  48.9748039  82.0122299  63.6318245  48.5249596  81.9583511
  62.2833366  48.6252327  81.2782669   6.3941116  67.2272797  27.1979980
   6.2149324  67.6073227  28.0580559   7.0857148  67.7785568  26.8319225
  59.6522217  12.8506880  11.6729622  58.9824257  12.4520559  11.1173553
  59.4264336  13.7807112  11.6905174  40.8598061   2.9456987  37.5488777
  39.9513321   2.6516318  37.6154289  40.8604469   3.8143396  37.9509926
  70.8894196   7.2866597  29.7113838  71.5221024   7.7134638  30.2891216
  70.8980331   6.3688855  29.9831352  77.8276520   2.2168238  57.8621407
  77.6979446   2.0682542  58.7988014  78.4530792   2.9401371  57.8187141
  80.2907028  61.7170334  74.3106689  79.9579315  61.0720520  73.6865768
  79.6452255  62.4236069  74.2919617   4.3489180  65.0503311  73.2198257
   4.7884283  65.6485596  73.8241348   5.0367603  64.7730637  72.6146622
   3.3078480  23.0298691   3.0749519   3.5657218  23.8457413   3.5040066
   2.3993874  23.1750107   2.8106313  71.6389999  19.1605988  83.0185776
  72.3511276  19.4669304  82.4570923  71.3900223  19.9299068  83.5308304
  66.3808899  40.3560028   3.0834734  66.3436127  41.1649857   3.5937526
  65.9169235  39.7130051   3.6196897  86.2110748  25.7043228  15.8645496
  85.8195190  24.8403111  15.9925957  86.8624420  25.5723858  15.1756744
  21.9283600  48.8967705   8.9914837  21.3985691  49.2626457   9.6997824
  22.6747990  48.4933205   9.4345293  82.2812042  24.4956303  61.1247711
  82.3900909  24.8288250  60.2340660  81.6445389  23.7860451  61.0388908
  49.9048843  32.3636284  43.1336823  49.6310272  33.2799492  43.1735268
  49.7023926  32.0151558  44.0018959  12.7134275  56.2266922  75.4393234
  12.9173336  57.1568680  75.5364075  13.5678425  55.7966728  75.4033737
  28.6467648  22.1627979  58.4537621  28.0973339  21.3805275  58.4046593
  29.3988247  21.9626350  57.8964729  80.9672699  39.9575615  40.4129181
  81.2722626  40.1628914  41.2966881  80.1589890  39.4627571  40.5474091
  82.3723450   2.8191690  46.6963539  83.1358948   2.8762770  46.1219292
  81.8798828   2.0677187  46.3661537  82.9374466  26.6715832   9.0501213
  82.0350571  26.3944931   8.8915501  82.9852829  27.5538597   8.6819744
  74.7571106  14.0673876  69.1125488  75.5313416  13.8491564  68.5937271
  74.0915375  14.2977152  68.4643250  75.4314804  36.7048378  40.1589813
  75.1787415  35.7822418  40.1247482  74.6853027  37.1716995  39.7828178
  23.7166786  49.2627678  16.3292236  23.2372894  48.8097153  17.0228806
  24.4761372  49.6421776  16.7713833   3.6903570  58.1714439  61.7102013
   3.3259888  59.0147285  61.9791527   4.2296634  57.8961639  62.4515533
  67.3630600  61.0290985  37.8698425  68.0656662  60.5534286  38.3129234
  67.8057785  61.5204735  37.1779022  53.9023972  43.7029877  81.9061127
  54.1570854  43.2000732  82.6797028  53.2129631  43.1801186  81.4968109
  26.1499443   9.5246363  80.3703690  26.4473000   9.7177401  81.2594833
  25.5204678  10.2180452  80.1724396  69.3191986  47.5362816  19.7015972
  68.5336304  47.5914993  19.1574860  69.6108475  48.4432831  19.7939262
  60.8626404  63.6246452  84.1976471  61.7583427  63.2968788  84.1169281
  60.8358879  64.0385590  85.0603104  12.9565449  57.3039398  21.0631027
  12.4895620  56.5064354  20.8138027  13.3162956  57.6376686  20.2412529
  25.3325558  52.7330513  31.8771362  25.2567215  53.4852371  32.4642448
  24.6550217  52.1265907  32.1761131   8.9482794  32.4249992   8.6124201
   9.3370018  31.8884068   9.3032141   8.2281551  31.8935642   8.2729626
  51.7878036  28.4717007  82.1123962  51.1764030  28.2007141  82.7972260
  52.4525681  28.9832420  82.5735321  84.7468033  44.1864090  18.4362812
  85.6489410  43.8760643  18.3584366  84.8246307  45.1392059  18.4848289
   6.2717090  18.3665485  86.2036285   6.1916313  17.4128628  86.2210464
   5.4129224  18.6737480  85.9132080  24.7685757  54.0180931  78.3608475
  25.3148899  53.7044411  77.6401596  23.8710651  53.9035149  78.0484772
  20.1190624  48.2012177  66.6881256  20.9883213  48.3190193  67.0711975
  20.2594433  47.6012993  65.9555817  21.0454273  61.5184402   8.7820520
  21.2756348  61.8157120   7.9017882  21.8701744  61.5449867   9.2671499
  43.5292015  14.1933537   8.3458261  43.1507835  13.7205906   9.0871258
  44.4315681  13.8779345   8.2960405  86.0838242  64.1623154  86.8264618
  86.2013321  64.3236008  87.7626266  86.9491653  64.3146439  86.4467087
  18.5615406  46.6850586  31.6225071  17.9890614  46.4300690  32.3460274
  19.0592804  47.4290085  31.9616604  59.0790443   9.9561253  82.6244965
  58.1290855   9.9274263  82.7384644  59.3874016   9.1194105  82.9724274
  41.1486130   5.2684135  87.2018509  40.9236450   4.7430320  86.4339981
  40.3316841   5.3313317  87.6967239  45.7157478  57.1629524   7.5009618
  46.4496384  56.7356720   7.9426236  45.2298927  56.4451752   7.0947943
  31.1058311  31.7753048  71.6639252  31.6336021  31.4868622  70.9192810
  31.2973671  31.1398830  72.3536911  48.4996033   2.1845446  86.2116470
  48.8022118   2.4800038  85.3529434  47.8032684   2.7986405  86.4445343
  58.5951958  10.2880774  36.6235924  57.7185669  10.2325411  37.0039444
  59.0516510  10.9306717  37.1666870   0.7106062  27.3889828   3.0686088
  -0.1676370  27.2245312   3.4119403   0.7150567  26.9663200   2.2097907
   8.4717283   0.0161328  54.2355423   9.1533184  -0.5269821  53.8396950
   8.9292336   0.8094811  54.5139656   9.5316696  52.1269302  83.1851273
  10.1487999  52.6654091  82.6897278   9.1665621  52.7220383  83.8399353
  82.8544998  62.5579643  52.1933327  83.6284714  62.1283836  52.5575676
  82.1680145  61.8923836  52.2376366  52.6175041  65.5995178  78.8041229
  52.4558411  65.0910873  78.0093918  53.0267906  64.9784851  79.4066467
  56.1679192  16.1682682  65.8586426  55.3162117  16.1257496  66.2934036
  56.7653809  16.4909039  66.5333176  71.2779160  11.4884319  63.4908752
  71.1345215  11.1406994  64.3710785  70.5443039  12.0862331  63.3470650
  48.3846550  65.8385925  78.1259537  47.8946991  66.5614777  78.5178680
  48.3233414  65.1316147  78.7683411  78.5687943  32.3251572   9.7387695
  78.1089096  32.2393684  10.5738573  78.9518661  33.2019615   9.7652702
  28.1164265   9.6045313  61.2797089  27.9260292   9.0796576  62.0571976
  29.0720119   9.6520548  61.2509308  31.4294548  41.6723175  69.4505386
  32.0311356  41.8707466  70.1680603  31.6910191  40.8010712  69.1526337
  66.9442978  45.2723389  63.6749344  67.1004105  44.4259453  64.0938339
  66.1428680  45.1442184  63.1674538  13.4018679  58.8893127   4.8083587
  12.6555738  58.4084473   5.1661925  13.0654736  59.7716751   4.6518297
  39.6331024  34.7755547   2.9401286  39.3295784  34.3693047   3.7519560
  38.9578743  35.4198990   2.7277133  30.8683357   2.6425366  29.7714520
  31.7358971   2.4759312  29.4029255  31.0301628   2.8060458  30.7005959
  34.3714409  11.5201225  74.5366669  34.4915581  11.0543394  75.3642273
  35.2570648  11.6206789  74.1876907  34.2850838  45.3146820  29.7992001
  33.9864044  46.1527214  30.1523418  33.4823494  44.8691483  29.5283661
  14.7276564  66.9047394  39.8334541  14.0753050  67.5675125  39.6067238
  15.0274200  66.5653839  38.9901199  48.8834267  50.8685608  12.4461756
  49.6823349  51.3935204  12.3972521  49.1175804  50.1275787  13.0050631
  81.0363159  62.5156517  85.2590714  81.1756134  61.5848618  85.4336014
  81.9058228  62.9074287  85.3408890   3.9572816  69.3593445   6.8301654
   4.4752765  68.6823425   6.3947501   3.2854836  69.5953903   6.1904769
  21.6920300  39.0578308  20.8904972  21.1762772  38.6684914  20.1843472
  21.0448418  39.3081665  21.5498238  62.5705109  51.9967613  33.2690125
  62.4417114  52.7287292  32.6657982  62.3134346  51.2239189  32.7661591
  14.9380322  65.3668747  28.3754063  15.6200447  65.1534424  27.7385864
  14.9395037  64.6284561  28.9844742  45.3745384  52.5840340  23.7379284
  45.3176804  53.5331650  23.8481770  45.8127213  52.4666405  22.8950500
  48.1662865  54.2978401  52.4296112  47.4488869  53.6677818  52.4973869
  48.8014107  53.8762703  51.8507080  65.9315796  12.5770674  44.8078499
  65.4071655  12.8977633  44.0741081  65.5162125  11.7512217  45.0562172
  50.5280457  54.3879547  18.7707176  50.5313568  53.8072815  19.5316639
  49.6116257  54.6452751  18.6697845  85.4889984  17.9384365  65.9937897
  85.3816452  18.4388771  65.1849213  84.6449051  17.5054550  66.1213684
  17.1408005  52.0995369  23.4293823  17.0922813  51.3167000  23.9780598
  17.1844769  51.7625084  22.5345440  38.4878311  48.3347893  40.7346878
  38.3514862  49.1101646  41.2791481  38.0999374  47.6182098  41.2369690
  34.5273361  32.3797646  78.1355820  34.0756302  32.3345871  77.2928696
  33.9592819  31.8993587  78.7378693   4.2180672  37.3818436   5.8621893
   4.5581350  36.7567406   6.5023723   3.4348750  36.9602699   5.5084672
  50.9948769  26.1507092   6.6888690  50.4630280  25.5131416   7.1651840
  50.8713799  26.9706154   7.1671319   3.3613546  32.7768898  24.3613930
   4.2384400  32.8329124  23.9821644   3.0956643  33.6879921  24.4860382
  79.7840424  31.4351788  29.0671349  79.1324844  31.4287987  29.7683182
  80.6024475  31.1893291  29.4984226   1.7080466   4.8894682  33.7179832
   2.4202456   4.2757735  33.8979340   1.6496567   4.9152269  32.7629128
  39.0923157  56.0427437  88.6488724  38.3227081  55.7175636  89.1159821
  39.7757339  56.0905991  89.3173599  44.0885887  40.0372047  81.5872955
  43.6938591  39.5001640  82.2743225  43.3430786  40.4060059  81.1135559
  22.7567501  18.7717171  79.2027054  23.5943794  18.8465366  79.6598816
  22.3909397  17.9412994  79.5073700  60.3121605  12.2656507  82.6739349
  60.0122604  11.3585453  82.6152039  61.1639404  12.2650537  82.2372284
  77.5376358  40.0977211  72.9489822  77.7211227  40.2565079  73.8749161
  78.4010925  40.0465584  72.5390472  38.1420403   1.1815814  79.4732285
  37.7049866   0.8401929  78.6930542  37.4836082   1.1155363  80.1648407
  18.6977367  11.1456251  21.5379448  18.0412464  10.5853748  21.1239738
  18.4934578  11.1039124  22.4721622  17.1571655  19.0119095  66.2104797
  17.1975689  18.1904659  65.7207565  17.7590599  19.5957832  65.7489166
  14.3215513   0.4978334  22.1166039  13.8763790   1.2876866  22.4235001
  13.6497774   0.0166900  21.6334343  57.6363335  41.9016609  40.8260651
  57.5632286  42.7683258  41.2257919  56.7454491  41.5522156  40.8472443
  83.4433289  16.3919506  68.0133591  83.0895996  17.1359043  67.5258789
  82.6917496  16.0380058  68.4888535  77.7005539   1.8396041  37.7477722
  77.6073456   2.3728688  36.9583588  76.8913803   1.9911963  38.2361336
  41.8409615  42.5911751  72.6948624  41.8714981  43.1896629  73.4412613
  42.7071762  42.1841888  72.6785965  76.5764008   8.8711090  63.0659943
  75.6546860   8.7632322  63.3005829  76.8680649   9.6235914  63.5807114
  77.0703125  14.9806318  73.8772888  76.8381119  15.1152544  72.9584885
  76.5230865  14.2470207  74.1576233  10.4913073  60.0191345  53.0585823
  10.0775089  60.1078300  53.9171486   9.7851801  60.1852570  52.4340668
  14.6409330  54.9781036  71.8939590  15.1756983  54.2411385  72.1891556
  15.2747622  55.6600380  71.6715775   6.8612847  45.6863976  23.5375862
   6.2069778  46.3304977  23.8082294   6.3748841  45.0630531  22.9980602
  83.9460144  65.7746964   0.2689785  84.4512863  66.5862274   0.3175160
  83.3686752  65.8967285  -0.4846921  70.6318665  63.0975456  18.4411182
  70.8357849  63.9093513  18.9054680  69.7156219  63.1938591  18.1813812
  32.7316475  61.8957863  28.6312160  32.2355919  61.5993347  27.8681488
  33.6251373  62.0087318  28.3069420  26.0572414  40.5483971  84.7434387
  26.8400002  40.9858932  85.0782776  26.3946838  39.8265724  84.2130280
  72.2152176   5.7713079  68.8513031  73.1284714   5.5824785  68.6355515
  71.8978424   6.2928143  68.1140518  60.3586502  55.0721207  27.0370941
  60.9546852  54.3961449  27.3596344  60.5565834  55.8409538  27.5718365
  73.3076248  44.3594322  47.8225708  73.4372482  43.7858086  48.5778084
  74.1706085  44.4135437  47.4119987  37.0348358  29.8550911  65.9979935
  37.6130486  29.2571983  66.4717331  37.2477913  29.7136097  65.0755692
  67.4731750   2.6181672  66.6898727  66.9130173   2.2042303  66.0332870
  67.3157654   3.5561526  66.5819931  52.1428909  54.1468811   7.2807546
  51.2661743  54.2450829   6.9093332  52.6414032  53.6929665   6.6012859
  63.1015625  38.8754120  63.6890755  63.8090286  38.8207664  64.3315201
  63.3535004  38.2581100  63.0022736  61.7816238  50.8242950  26.0456181
  61.7308083  50.5597839  26.9641399  60.8724670  50.9822121  25.7912006
   0.3062179  46.0128784   5.7309809  -0.2313053  45.8717079   6.5103211
   1.0273883  45.3900032   5.8213816  80.3686066  18.2330055  20.0550003
  80.4234085  17.2805214  20.1324654  79.4826431  18.4465332  20.3477688
   8.1710367  23.8197556  20.2583847   8.0734835  23.1950665  19.5397186
   8.9555616  24.3207817  20.0353909  39.7739105   2.9407358  73.1044388
  39.9166336   2.2206192  73.7186813  40.4623260   3.5725849  73.3119965
   3.8457031  64.7069778  58.1982765   3.8505805  63.7644882  58.0311661
   4.3034449  65.0856705  57.4477463  38.7860603  44.6714859  32.3258133
  39.3066483  45.4728279  32.2704124  38.8995628  44.3740616  33.2285233
  83.7326965  34.6988754  57.5679817  84.3047333  35.4661140  57.5491409
  84.3317337  33.9549866  57.6313400  38.2306480  57.0089951  25.9610901
  38.2557755  57.7725143  25.3843441  37.3002434  56.8767548  26.1429958
  49.8376083  36.4975128  35.7543793  50.4845963  37.2006912  35.8107758
  49.2357903  36.7804222  35.0658913  24.7221642  61.8496552  83.3436050
  24.5255432  61.9858398  82.4167709  23.9303055  61.4467239  83.6997452
   2.7021787  58.9876823  19.4241714   2.1384642  59.7320404  19.6348629
   2.9353604  59.1165085  18.5047894  34.5185051   1.4955797  68.3856430
  33.5913048   1.7014444  68.5046005  34.8627090   1.4180167  69.2754364
   3.2251766  49.4331207  83.2002258   2.4952683  50.0208817  83.0052872
   3.7507238  49.4303703  82.4002151  42.6812592  17.8700371   9.6392336
  42.7938385  18.4004059  10.4280710  41.9609222  17.2761993   9.8506680
  14.2813406  57.2814941  68.5611954  13.4309683  56.8424416  68.5794449
  14.9124470  56.5755081  68.4214859  42.1040306  24.2194672   6.5100856
  42.7158775  23.6117439   6.9254727  42.5190735  25.0771332   6.6016121
  84.2519302  39.3656311  13.7855282  83.6139450  38.8613243  13.2806673
  83.7496185  39.7222748  14.5181427  81.6980362  34.2160416  18.6543465
  82.5864029  34.3023033  19.0001755  81.7327957  33.4394531  18.0958405
  12.0752745   2.6218898  49.7082024  11.8871231   1.7013478  49.5253563
  12.2075005   2.6557267  50.6556206  29.6483421  64.4673309  31.5529175
  30.5579300  64.2024689  31.4160557  29.6798096  65.0481873  32.3130836
  17.9908428  44.5336037  54.1737213  17.4648247  45.1549339  53.6702499
  17.3489590  44.0087776  54.6520233  64.0596313  33.4618301  13.4686031
  63.8481483  34.3087692  13.8612900  63.2295990  33.1517754  13.1064768
  79.0754013  14.8253756  10.2893925  79.4748840  14.5436735  11.1123686
  79.2299118  15.7695332  10.2589970  50.0833282  40.5802155  72.4905548
  49.5093613  40.1238518  71.8753128  49.6985207  40.4080086  73.3499146
  84.2073746  12.0655909  79.4168015  85.0698471  12.4807615  79.4144516
  83.9393311  12.0754223  80.3356552  59.5140686   6.6676478  10.9563408
  59.9586868   6.9578819  10.1599045  58.8808556   6.0168185  10.6535292
  71.8897629  22.4717274  52.2427254  72.5901718  21.8210373  52.2902908
  71.4209290  22.2603874  51.4354057  61.0010796  58.3676147  18.0159092
  60.4366760  57.6519814  18.3084011  61.5125313  57.9917564  17.2994041
  54.8731575  25.9123611   6.7411923  54.2524757  25.5621338   6.1021891
  54.5536385  25.5933113   7.5851974  20.2411194  48.4257164  32.8974113
  20.8895607  48.5270081  32.2006378  20.2807808  49.2495766  33.3831215
  49.7596855  51.5113869  30.2436981  50.5142136  52.0998917  30.2677135
  49.0022354  52.0891571  30.3368797   4.4503160  20.7931728   0.3720896
   5.0058556  21.3236828   0.9432012   3.5583196  20.9800282   0.6647650
  54.8770676  41.6230469  64.3642883  55.8335304  41.5863228  64.3718948
  54.6463928  41.6657753  63.4362831  83.2202682  29.3173275  18.2378731
  83.3479538  28.3742428  18.1352997  83.3610229  29.4779968  19.1709366
   7.1552224  40.1124191  77.9750290   6.5913486  39.5225143  77.4747391
   8.0330334  39.9580116  77.6259766  74.1902618  61.5571976  13.2255926
  73.5215836  60.9662437  12.8793669  74.3836136  61.2150230  14.0983839
  73.9137344  44.0262566  77.3526306  74.7597961  44.3438034  77.6681976
  73.3023224  44.7352676  77.5519104  34.2244949  47.2899323   7.7486248
  34.3126411  47.9757614   8.4105186  34.3011818  46.4718781   8.2396784
  75.9646988  52.3312492  20.0662785  75.0585709  52.3009109  19.7592983
  75.8936768  52.3529778  21.0205936  72.4366150  35.8742981  37.1185570
  73.0887680  35.2872658  36.7360382  72.9508972  36.5756836  37.5183105
  16.7047024  59.7281532  46.0236549  16.1811333  60.0620193  46.7521057
  17.6023521  59.7240753  46.3559799  82.5196152  70.4057465  56.1561089
  81.7245789  69.9808044  55.8342934  82.2863235  71.3317337  56.2221375
  59.1100159  20.9869080  72.1385651  59.8993721  21.2968445  71.6946182
  58.3891487  21.3027763  71.5937653  16.6946926  59.3454742  41.6397705
  17.3527126  60.0008774  41.8714752  16.3647251  59.6284485  40.7869644
  41.4384995  41.9906883  41.6959801  40.7975235  41.8312111  42.3887634
  42.0100136  42.6717491  42.0506058  25.6435070  39.8178673  14.9100838
  26.5172691  40.1710358  14.7426224  25.1064281  40.1582146  14.1945801
  37.6324730  62.2372704  26.2746983  37.4850616  63.1019325  26.6579266
  38.4507332  62.3280487  25.7863922  23.4628868  65.0794220   8.1882887
  23.7552414  64.1979065   7.9565978  23.8415298  65.6425171   7.5131679
  60.3779602  22.3214130  18.1572990  60.6800995  21.4861984  17.8004246
  61.0256233  22.5445251  18.8258724  50.1300468  45.1935158  77.2719345
  49.5937881  45.9863358  77.2621994  50.0050468  44.8305664  78.1487961
  67.1224136  54.9507065  24.0436649  68.0031357  54.6063881  23.8953114
  67.0936890  55.7617569  23.5361195  46.2684860  22.9766178  38.8866196
  47.1986084  23.0480537  38.6721420  46.0467224  22.0663204  38.6906319
  40.1684799  65.1238251  13.6296530  40.5917549  65.9755554  13.5218897
  39.7421455  64.9600906  12.7884254  69.7104034  48.1835938  75.1617126
  69.4047546  48.4246826  74.2872467  69.1662979  47.4355164  75.4078140
  75.7933578  22.0315285  52.1679611  75.2986984  22.0638943  52.9867973
  75.1466064  21.7842865  51.5070419  25.0245552  69.1006622  37.8378944
  25.5919323  69.4895325  38.5035477  24.6158962  69.8497467  37.4041939
  36.0751457  10.3943462  70.8542862  36.4655647  10.2698498  69.9892426
  35.1435547  10.2168570  70.7244034  53.8578682  70.0620193  23.8358803
  54.3378716  69.7075272  23.0874386  52.9569550  70.1474228  23.5239563
  26.8914795  63.3468437  48.8114548  27.7612495  63.0717125  48.5215721
  27.0213184  64.2320480  49.1517296  74.6713791   3.9374883  44.8998604
  73.9005890   3.4881687  44.5531082  75.3524399   3.2651443  44.9183388
  85.9348221  67.5406570  49.0463333  85.1983414  67.2079697  48.5333481
  85.8837280  68.4916077  48.9498672  34.2226181  43.4223900  73.2045364
  34.5796432  44.1474075  73.7174835  33.3510895  43.7199821  72.9435654
   1.8130598  45.9111710  10.7597876   1.5207385  45.0873566  11.1497974
   1.7597227  46.5464249  11.4738188  34.2342148  32.9823341   4.8233056
  33.9729195  33.4953384   5.5880156  33.4141884  32.6237984   4.4838333
  51.9773483   5.2575355  33.5965691  51.1545067   5.1310163  34.0689583
  51.7453957   5.8204951  32.8579865  38.6358223  48.8785248  89.0819321
  37.7849960  48.8375740  88.6452942  38.7697792  47.9964523  89.4286804
  75.7727661  51.2315331  67.7021713  76.1943054  50.9235153  66.8998871
  76.3422012  50.9212875  68.4062424  80.3066025  44.1544914  27.4631863
  80.9127655  43.5617752  27.9075871  79.7684174  43.5814514  26.9170990
  58.9717636  33.1857147  25.3888741  58.8426170  33.4393272  24.4749641
  58.3011627  33.6712799  25.8692398  56.2946281  53.6347618  14.3911276
  55.5129433  53.7718620  14.9262962  55.9783325  53.6810722  13.4888840
  68.1669769  50.4750443  28.6330090  68.7387848  51.1300583  28.2327309
  68.0345230  50.7875900  29.5279942  56.4367294  60.6347618  52.8239822
  55.7815742  60.1495628  52.3224030  56.3863907  61.5277481  52.4829941
  70.8686447  40.4190521  86.9947510  71.3832703  39.6142387  87.0553131
  71.5171051  41.1074371  86.8469315  60.5026360  15.8564558  31.5373802
  60.3168907  15.0132828  31.1241131  60.2117691  15.7486029  32.4429169
  50.5380020  43.3315697  69.1466141  50.9171982  43.7212791  69.9343796
  50.7823486  42.4073563  69.1951828  81.5340958  20.3214264  28.3789082
  81.3355865  19.6516094  27.7245636  81.0866318  20.0228577  29.1706543
  64.4039764   8.8613777   2.2052476  63.8801689   9.6606417   2.2603467
  65.2876358   9.1368380   2.4491749  85.5387039  34.5829086  34.9182053
  85.3872070  33.7669907  34.4411774  86.0133438  35.1376762  34.2991867
  73.3673782  12.6689005  59.9567871  73.3560944  12.9351616  60.8761406
  73.8091507  11.8197479  59.9587669  14.8554525  15.0135593  21.3297100
  15.1884384  15.7543898  21.8361912  15.5818834  14.7697802  20.7560368
  64.4319458  59.1403580  88.6131897  64.4741135  58.7025719  89.4633636
  64.4202042  58.4259491  87.9762344  79.8060455  49.2097321  39.0069427
  80.4288101  49.7160721  38.4853897  80.0517731  49.3894882  39.9144363
  23.7008820  48.0177574  37.0125847  23.4379444  48.8477859  36.6149025
  23.2569160  47.3502884  36.4895058  23.9868336  50.4011383  26.8594589
  23.7717552  50.9759140  26.1248817  23.2606258  50.5142517  27.4726944
   9.1276264  64.5213013  36.4090195   9.9029951  64.7533493  35.8979568
   8.6277666  65.3354187  36.4688988  18.6993160  32.6616669   0.8909344
  17.9165630  32.7182083   1.4389591  18.5086441  33.2264252   0.1419863
  24.1849327  42.2098007  53.2804184  23.2706432  42.3111458  53.0157738
  24.2387142  42.6491127  54.1291504   8.5921574  36.0385094  73.6979370
   9.3629398  35.6019745  73.3352203   8.4737816  35.6387482  74.5595703
  22.5933266  11.9933710  67.2102127  22.1615009  11.8899403  66.3622360
  23.5210171  12.0922527  66.9960938  29.4962502  53.1714935  78.7950516
  29.6219921  54.1202164  78.8135529  28.6443462  53.0509300  78.3755875
  19.7809620  65.1797943  48.5737038  19.7749310  65.9744339  48.0400887
  20.6700134  64.8369446  48.4827347  30.1535931  54.6503220  60.1942711
  30.8389931  54.5731430  60.8579712  29.6903038  53.8134689  60.2299652
  23.1060886   8.7068491  51.6686287  23.1080189   8.4290304  50.7526360
  22.7591743   7.9535995  52.1466408  79.5815964  42.5180511   0.3016088
  79.4619370  42.8996201  -0.5680579  78.9923782  41.7638245   0.3153813
  26.0947819  57.7609138  75.3002625  26.1403561  58.6669998  74.9950409
  25.7782249  57.8272858  76.2011642  52.3326302  11.9796877  87.0171814
  51.5374756  11.7692251  86.5276260  53.0051727  12.0910873  86.3452377
   2.4947665  20.1454887  75.9886322   2.7976027  19.7553711  75.1686783
   2.9714003  19.6712360  76.6699066   5.0785608   5.0030789  13.2402267
   4.3752308   4.3545761  13.2085705   4.6389737   5.8405380  13.0930624
  61.7021866  36.9214859  26.4888897  62.4872055  36.9909096  25.9456043
  61.8386116  36.1280174  27.0066090  40.0684624  40.2512550  72.5774231
  40.0005875  41.1303520  72.9499969  39.9204750  40.3763161  71.6400375
  57.9930305  39.1078072  42.5070877  58.3368149  39.6666107  43.2040710
  58.1673241  39.5948448  41.7017021  12.3409052  48.1481628   6.3167043
  11.5759783  48.4629173   6.7984161  13.0703096  48.6621017   6.6632071
   8.5761776  18.8457756  87.4649506   9.0660667  18.3581181  86.8028107
   7.6767478  18.8567867  87.1376343  75.8869476  55.9130440  11.9088087
  75.3306046  56.1890297  11.1804266  75.8722076  56.6534004  12.5153456
  54.4549904  48.7676582  69.8506470  55.2161102  48.5731697  69.3037491
  54.7435722  49.4833870  70.4169388  56.2650604  21.5723286  62.8032417
  56.9305649  20.9200535  62.5844383  56.4783707  21.8417568  63.6966286
  72.6843262  63.9813232  15.8412533  72.9560852  63.1656036  16.2619457
  71.7313690  63.9910469  15.9307280  49.8062019   8.7250490  24.1060219
  50.4403534   9.3501787  23.7548809  49.7684212   8.9223289  25.0419083
  39.2382622  29.3923779  79.6834564  39.7540779  28.9146500  79.0338898
  39.6858673  29.2272511  80.5132828  56.4411812  59.3036766  20.2579765
  56.0135880  58.4579773  20.1231308  55.7192383  59.9207687  20.3772583
   6.7458539  43.4009933  60.2909355   6.6220856  43.4543228  59.3432693
   6.6992207  44.3090630  60.5900459  76.9437637  51.8250351  12.5333786
  76.7424011  51.3983612  11.7005301  77.7911301  51.4613190  12.7901125
  51.9471169  63.0889015  62.9892006  52.7120552  62.5292587  62.8554115
  52.0449104  63.7870216  62.3416672  12.4624233  68.7271957  72.2903824
  12.2522297  68.9406204  73.1995087  12.9726229  69.4754562  71.9804993
  64.4390869   5.4202614   2.2486620  64.4560318   4.4760375   2.4048231
  65.3595352   5.6824045   2.2657578  26.3058815  67.1662827   8.2912836
  26.9479523  67.5524826   7.6956091  25.9431305  67.9123306   8.7688427
  59.3712921  51.2823753  51.4133873  59.7916870  50.4748611  51.1177177
  58.8745689  51.0234871  52.1895828   4.3315134  68.8996353  86.1023254
   4.4191437  68.4342041  85.2705002   4.3978758  68.2150116  86.7679901
  50.2413292   5.8837018  58.0777588  49.9756966   5.6831756  57.1802826
  50.3010063   6.8387284  58.1021614  68.1385193   2.6520658  84.2566605
  68.1961060   3.3662250  84.8913956  67.1996231   2.5368912  84.1102371
  12.6623373  33.1538582  79.0432510  13.3629446  32.8880653  78.4476547
  11.8563747  32.9871216  78.5545273   4.2641401  54.5442085  16.5608978
   4.9498138  54.6351280  17.2225761   3.7175770  55.3218460  16.6739464
  54.8593636  15.6220627  10.2368155  54.5840950  14.7055502  10.2152977
  55.8111343  15.5841331  10.3312635  17.1755562  47.4072647  55.7896194
  17.2739143  46.4551353  55.7873993  18.0714626  47.7404861  55.8400726
  59.0776215  48.9820290  60.7375450  58.2962379  48.4352951  60.8197479
  59.2430000  49.0233841  59.7956505  62.9118347  19.7907619  28.4880962
  62.5169830  20.4512386  29.0573883  63.8051872  20.1025162  28.3433132
  72.2691574  57.8077240  65.9265289  72.2248764  58.5811615  66.4887238
  73.1566620  57.8225250  65.5682678  72.0973358  40.7118187  55.4710388
  71.8981323  41.1817589  56.2807961  72.2419586  41.4015045  54.8232384
  30.0858574  70.2231522  80.7698059  30.8214378  70.0785751  80.1746140
  30.2239647  69.5945740  81.4783630  73.1688843  47.9366608  59.6747856
  74.0558167  47.7321587  59.3785553  72.7718658  48.4021835  58.9386520
  44.6881866  10.4626226  58.6039696  44.3006973  10.8375893  59.3948441
  45.3665428  11.0882950  58.3498077  34.4487305  32.2253075  72.4921646
  34.9278259  31.8758640  73.2435608  34.4739075  31.5216389  71.8437500
  15.4342718  65.3289261  22.4063396  15.0905628  66.0726395  21.9113770
  15.0895090  65.4501190  23.2910347  74.3790054  45.7447510  56.1688271
  73.5096207  45.4244347  56.4092484  74.5741806  45.3083267  55.3395653
  47.4233627  49.4468346  18.7808342  46.5578423  49.6769867  18.4429855
  47.4347038  49.7995148  19.6706200  24.3370972  46.8682404  33.1627731
  23.8854256  46.4734612  32.4168701  23.7226810  46.7761116  33.8909492
  41.8868370  69.4764938  32.9865456  42.4650841  69.9070282  33.6162338
  41.1540527  69.1576233  33.5134010  67.4799652  25.1095734  18.7171402
  66.6214981  24.8451080  18.3864975  67.8561707  24.3060741  19.0764275
  47.0641556   5.9111629  84.5837021  46.6506233   6.7738757  84.6144943
  46.4317894   5.3586960  84.1242218  11.7532539  56.3617325  86.3953018
  12.6260071  56.6495514  86.1275406  11.3001738  56.1742783  85.5732193
  82.2032547  29.3492737  48.9341736  81.4263611  29.4605274  49.4821625
  82.8221359  30.0024776  49.2605896  83.7696686  54.3858147  39.7214355
  83.9202499  54.9147873  38.9380150  84.6128159  54.3835068  40.1745720
  17.8771439  11.5186052  74.1682968  18.0447598  12.3198881  73.6722336
  18.4337845  11.5957642  74.9431763   4.2615666  70.5990982  26.9537315
   3.7681952  71.3719711  27.2284698   4.2970977  70.6643753  25.9994221
  50.7136688  12.3481340  62.8768959  51.1456833  12.9394646  63.4932785
  51.4307976  11.9548979  62.3795815  61.6237030  50.6822853  29.1248627
  61.1591644  51.4559822  29.4439678  61.7852631  50.1591415  29.9100075
   6.7555270  29.1505985   9.9007053   5.9352479  28.8526440  10.2938938
   6.6652751  30.1022091   9.8504639  33.2309341   2.0367341  27.6559181
  33.9174652   1.9677174  28.3193512  33.1677094   1.1569062  27.2842503
  44.7579994  18.6724300   5.9461150  44.2884674  17.8668232   6.1623755
  44.0693550  19.2978191   5.7205276  66.1912384  66.1900101  54.1005821
  66.4179001  65.4275360  53.5681534  65.4482651  66.5871506  53.6461525
  56.8646202  55.8936081  63.8474007  57.2408066  56.6633911  63.4206085
  57.5709496  55.2476158  63.8420067  60.6283302  39.0106049  88.1061630
  60.6018486  38.4767380  87.3121109  61.5431328  39.2819481  88.1819382
  74.8945465  54.0260887  57.6353645  73.9495392  54.1779900  57.6462326
  75.2459183  54.6579056  58.2627182  20.2887001  49.2666931  77.0168152
  20.8642426  49.4114380  76.2657928  20.7872238  49.5913353  77.7666931
  45.5574150  61.4892044  12.1473646  45.7630730  62.3148918  11.7089806
  46.2692795  60.9007568  11.8959532  81.5538254  49.6335487  83.5610657
  82.4289551  49.9430962  83.3274689  81.2750168  49.1127586  82.8078918
  77.9989929  42.3891449  86.5038300  77.8556595  43.1433945  85.9321747
  78.9261093  42.1779823  86.3938065  30.5708923  11.0282183  82.0033875
  31.1835861  11.6901608  81.6829681  30.7024879  11.0189886  82.9514542
  80.0917358  47.3434944  32.9160309  79.7542953  47.3850899  33.8108139
  79.6678848  48.0742760  32.4659920  61.7651482  45.6984558  16.9416752
  61.9934311  46.2946014  17.6549263  61.2287979  46.2266541  16.3504333
  45.7584610   0.0275298  45.1675644  46.2327538   0.4099671  44.4293098
  44.8355980   0.1062165  44.9259720  19.3076611  46.0543404  60.4640198
  19.4247990  45.9117622  59.5247765  19.8520279  45.3844376  60.8776932
   9.7212534  34.9518776  69.8834839  10.2239027  34.3048325  69.3886032
  10.3805475  35.5524406  70.2311630  67.9286652  51.9176865  76.7523651
  68.4490585  52.7162628  76.6646347  68.1143112  51.6069603  77.6384888
  51.3130035  49.0567322  71.9721985  51.0571213  48.3101959  72.5138931
  52.2690468  49.0691147  72.0176392   3.3568776   0.9161524  32.4030876
   3.3185668  -0.0345356  32.5077591   3.8749778   1.0490245  31.6092682
  34.7222939   7.3480463  18.9592190  34.1226387   7.0222721  18.2880116
  34.5248489   8.2824411  19.0236664  57.8773766  12.2937098   9.3087826
  57.0268974  12.1715813   9.7306805  57.8681030  13.2030029   9.0099001
  26.9142857  70.4085541  24.0526295  27.7953568  70.7368469  24.2319717
  26.5365868  70.2511597  24.9179649  30.2643394  40.5003891  72.4263611
  30.3560467  40.8513107  71.5405426  29.5920162  39.8236389  72.3474731
  44.4502449  26.5645409  15.7758493  44.2971458  27.3507366  16.2999573
  45.3957634  26.4239521  15.8255119  19.5378342  54.7511292  63.1859055
  20.0589867  54.8876457  63.9771042  19.8723774  53.9337616  62.8168144
  43.5414391  35.0694618  79.0530319  43.3809319  34.1406517  78.8863525
  44.4850655  35.1262627  79.2032852  40.6411247   0.5359067  32.8808594
  41.2477074   0.8773085  33.5379257  40.9780769  -0.3357697  32.6737938
  40.2639732  43.1328659  60.1661987  39.3096619  43.1028442  60.2341690
  40.4496689  43.9879303  59.7781105  25.2410259  58.7995262  40.2988663
  25.7732906  58.1113129  40.6979828  25.8735771  59.4652252  40.0287590
  51.1953659  60.7734146  14.5711164  51.6426163  61.5619812  14.2639322
  50.5917816  60.5491257  13.8628731  64.6820450  24.2943611  22.6448135
  64.2713089  23.4795761  22.9340458  65.4155502  24.0120335  22.0984688
  54.8984032   7.8086896   8.0610085  54.0381355   7.9620051   7.6702843
  55.2726402   8.6833029   8.1669884  22.9611492  48.8845787  18.9449291
  22.0546017  48.6238403  18.7823906  23.2731915  48.2667580  19.6061115
  65.4150696  28.8274765  35.1008377  65.5055847  28.0565586  35.6609459
  65.7170258  29.5552273  35.6443787  47.0217094  45.3414841  48.4554291
  47.3375931  45.0885773  49.3228874  47.4706917  44.7470665  47.8543396
   8.0013275   5.9069996  50.5962868   7.1449962   5.6827860  50.9605064
   8.1666527   5.2308130  49.9392700  62.9627380  15.2503967  61.9427185
  62.2299232  15.4694595  61.3671951  63.2776108  16.0960503  62.2620277
  12.8660908   2.1450837  40.3440819  12.3288088   2.4391949  39.6085167
  12.5096149   1.2867224  40.5729332   6.8983350  63.7854881  20.8372650
   7.2467051  62.9172058  21.0396461   7.5649772  64.1871109  20.2800236
   1.5821266  68.8255386  33.2377930   0.7693256  69.1603394  32.8589897
   1.5096886  67.8744354  33.1578178  50.6261139  19.2103195  35.3506927
  51.4679184  18.7972069  35.1585121  50.8151398  19.8177414  36.0659142
  51.0858536  38.6559486  88.1309586  50.9343567  39.4464912  87.6129608
  50.2264290  38.4373550  88.4912949  80.6241302  49.3491516  49.8414574
  81.2080078  50.1033478  49.7607498  80.9989471  48.6922264  49.2547760
  54.8228874  69.3002625  28.4189548  55.6267929  69.7453766  28.1509228
  55.0576668  68.3724899  28.4377403  62.9191437  42.7681580  70.2238998
  63.8197784  42.8951721  70.5221558  62.9971581  42.1874809  69.4669495
  76.3744431   9.1751003  17.6118603  76.4134140  10.1314764  17.6042213
  77.2352448   8.9028482  17.9298782  69.2862930   7.3086209  42.9223595
  68.7742004   6.5218987  43.1096230  68.7390366   8.0300865  43.2325821
  47.8302460  18.7645340  69.6587601  47.2900772  18.4381466  68.9390945
  47.3260460  19.4902668  70.0266342  24.2708340  49.8091278  41.8172188
  23.5431385  49.7833748  41.1959076  23.8532619  49.9273376  42.6703835
  85.3486099  11.1286592  26.3319702  84.8211670  11.3826971  25.5746708
  86.1466904  10.7585697  25.9547100  25.2704105  52.4596214  21.3487167
  25.7841167  52.1586151  22.0982056  25.7631607  52.1599731  20.5847511
  27.3314095  46.6991196  20.1532230  26.8894138  47.5186119  20.3752632
  26.9879742  46.0638885  20.7815266  60.4102936  37.0386772   4.0236106
  61.0301743  37.5472107   4.5464587  60.2797279  36.2329483   4.5235958
  40.4385109  67.0993347  75.6466675  40.7816772  67.3901520  74.8017426
  41.2146111  66.8438110  76.1452713  84.8932419  61.4355087  88.5440826
  85.7129059  60.9599266  88.6789856  84.8802261  62.0925560  89.2400360
  24.7950764  25.6423435  87.7074356  24.4234715  24.7864933  87.4937439
  25.6223812  25.6710033  87.2268295  32.5642166  42.6793404  22.7196674
  31.8939095  42.9025993  23.3654785  33.3784409  43.0166245  23.0931778
  73.6451492  24.9049683  41.2326584  72.9520340  24.3798180  40.8326111
  74.1674118  24.2744522  41.7285614  85.6562271   6.1362524  73.7984848
  86.1832428   5.6833634  74.4567947  84.9505615   5.5229535  73.5932388
  71.2929535  45.6065407  36.9317360  72.1491547  45.9623222  37.1695862
  70.7312698  45.8147545  37.6783218  28.6203060  27.4316349  71.8569107
  28.6259937  28.3860092  71.7836456  28.6863441  27.1216831  70.9536972
  84.3535156   7.4438519  62.0424232  84.9631958   8.1713963  62.1657295
  84.5769806   6.8238254  62.7365875  26.1861649  42.3203430  19.6755466
  26.2210674  41.8216476  20.4918270  25.5927296  43.0473099  19.8641911
  66.8500137  61.5771942  12.6506681  66.4068832  62.4200859  12.7476177
  67.7754364  61.7752037  12.7942753  17.3450165   5.3260646  74.0905914
  17.0299683   4.5078030  73.7066345  17.7458076   5.7952862  73.3588638
  17.2579937  38.7051659  14.4676914  18.0704136  38.5363998  13.9904871
  17.4962597  38.6046600  15.3892984  42.5924873   9.7299747  17.8463192
  43.0989838  10.3659058  18.3515759  41.8695831  10.2378817  17.4779797
  20.2858467  57.1977386  39.0335197  20.0073872  58.0484543  38.6944389
  21.0335979  56.9552994  38.4873314  65.4823837   7.6325188  88.9950943
  64.7132721   7.7382894  88.4351730  65.2029495   7.9596319  89.8501663
  52.6306725   7.6288552   4.3553991  53.3848114   7.0992112   4.0965810
  52.0524063   7.0162530   4.8098845  45.1618042  37.9353447  22.4987106
  45.7320824  38.7041054  22.4934597  44.4263573  38.1865044  23.0575199
  85.6000824  69.5977707  32.6887360  84.9696198  69.8209076  32.0039291
  85.2813110  70.0560150  33.4663124  15.6086578  67.5533676  70.1116257
  14.8576956  68.0975342  70.3486176  15.6547689  66.8941269  70.8040924
  32.2072639  68.5961609  54.7105331  31.7617588  68.9219437  55.4925995
  32.5548935  67.7431259  54.9707565  31.5070553  49.2098618   4.8160319
  32.0820808  48.6919479   4.2526975  30.6612492  49.2008057   4.3679681
  85.3744888  45.3786774  25.8950615  85.2644272  44.6168442  25.3260899
  85.2080536  45.0451965  26.7767181  56.0426750  15.8990917  28.1214199
  56.4365082  16.6531334  27.6826191  55.2658653  16.2528572  28.5546055
  22.9023514  67.4207687  15.8011894  23.5024700  67.2091446  15.0861330
  23.3640804  68.0851440  16.3126945  67.4501724  58.6861000   6.7753096
  67.5254211  58.0498466   6.0641460  66.5741653  58.5425491   7.1334200
  44.7701416  38.7405663  73.4629211  44.7446136  39.5352783  72.9299927
  44.9598083  38.0398140  72.8390579  41.4420815  65.1226120  64.2080383
  40.6367683  65.2478561  63.7060280  41.3782883  64.2285843  64.5440140
  84.6604538  46.5856857   9.4106760  85.4258957  46.9820213   8.9944506
  84.8879776  46.5432243  10.3394718  81.7167206  66.6927719  78.1020203
  80.7897110  66.8953705  77.9761734  81.8643265  66.8188019  79.0393372
  35.5941544  15.0567780  77.5618057  36.4472847  15.1402464  77.9877548
  35.7988167  14.7868299  76.6665497  15.6050367   5.3316808   8.5126390
  15.0017529   4.6555805   8.2041445  15.1381006   6.1543069   8.3660507
  54.1662064  11.5944338  24.1774559  54.0502434  11.9245872  25.0684013
  53.5598412  10.8564558  24.1146774  16.1187630  19.8158989   0.7068490
  16.7921867  20.4961357   0.7034300  15.2999372  20.2902164   0.8509914
  70.6919708  34.3581810  17.1064777  70.1833038  34.2046585  17.9026699
  70.0741730  34.7718315  16.5036030  35.0151711  62.9542084  73.7551956
  35.3367081  63.8552818  73.7250214  34.2904434  62.9374580  73.1301193
  71.5786591  65.8718491  29.3380718  72.5168381  65.7153931  29.2304916
  71.1777344  65.4589691  28.5732079  83.9764709   2.2479064   7.0311546
  84.2319641   2.9481854   7.6316233  84.6151886   2.2973344   6.3199368
  10.9792910  37.7842102  56.6414223  11.7725620  37.3542862  56.9609795
  11.2525644  38.6821594  56.4536896  25.3746319  66.3964691  39.7139473
  25.2100983  66.4251633  40.6564636  25.0641651  67.2422791  39.3907547
  18.7232456  68.4446793  38.1552887  17.7985363  68.5656433  38.3709564
  18.7286930  67.7337723  37.5143433  84.2655334  20.3668499  29.7820988
  83.6304245  20.6284733  29.1154480  85.0635910  20.8429070  29.5525265
  11.4912949  59.3301620  83.7366486  11.6152678  59.0188828  82.8400040
  10.6111679  59.7064552  83.7400131  81.5003815  36.3449593  81.5099030
  81.7744598  37.2522469  81.3759537  80.5698547  36.3402557  81.2855606
  17.1282787  54.4919510  87.3620148  17.6373997  53.6886253  87.2538452
  16.2373829  54.2462997  87.1126328  43.1658401  49.4515839  63.1532288
  43.0948448  49.7886314  62.2601471  42.6762390  50.0786400  63.6855087
  63.4322243   6.3424797  25.8007889  63.8640747   7.0421000  26.2909622
  62.5678787   6.2652941  26.2047424  41.3686638   8.0539417  40.9206581
  40.5788498   7.6041312  40.6204987  41.9236450   8.1082954  40.1426659
  14.4734573  70.4676437  70.9959183  13.9103088  71.1959152  70.7337799
  15.2599983  70.5680466  70.4597244  85.0319824  43.5867081   9.6381464
  85.1970215  43.0911484   8.8360138  85.4380341  44.4391251   9.4808779
   3.1453359  46.8689690  76.6648788   3.2454388  47.7341957  76.2678909
   2.2754998  46.8877411  77.0639572  55.4613571  54.8337440  39.8363113
  55.1900177  55.5066414  39.2119598  54.7593765  54.8134575  40.4867287
  30.5179729  45.3786850  54.5076294  30.8518143  44.5974083  54.9485207
  29.6185818  45.4660072  54.8233833   0.2677546  37.8426666  65.9828339
   0.5190317  37.6888847  65.0720901  -0.6239104  37.5004196  66.0463333
  65.2466049  39.1951561  65.5418625  65.8454285  39.5451698  66.2015076
  65.7411804  39.2365570  64.7233810   9.7147875  43.5841408  12.5198431
  10.2238379  42.9270630  12.9945555   8.8181973  43.4647217  12.8330479
  57.1906586  24.1011066  61.4749069  57.0823860  23.1557045  61.5784645
  57.8095703  24.1933861  60.7505722  35.9921112   3.1812899  61.1175156
  36.6326256   3.0237708  60.4238586  36.2355347   2.5690107  61.8118401
  38.5446892  38.6033287  85.1886215  37.9956284  39.3856125  85.1357727
  38.6011887  38.4131775  86.1250381  76.4213943  15.4163332  11.3491039
  76.1675644  16.2632809  10.9823885  77.2183380  15.1791649  10.8748999
  14.9381266  51.5497589  44.0137863  14.8930387  52.1409569  44.7652397
  15.5716763  51.9592285  43.4245644  40.3938026  67.3505783  42.0720062
  41.2681961  67.7350464  42.0098991  40.2618904  67.2056351  43.0089264
   8.6630726  67.6075363  58.0991325   8.4851160  66.7426910  57.7295265
   9.1059694  68.0821228  57.3956795  38.1567116  57.7711678  77.9265366
  37.2885437  58.1491241  77.7863007  38.6900330  58.1256638  77.2151108
  25.6291447  50.8546410  34.8482857  25.4805393  51.7044640  35.2629509
  26.3453541  51.0104942  34.2326698  73.0564270  52.8069801  30.4858608
  73.3649292  53.2503815  31.2760830  72.1300125  52.6346664  30.6541004
  22.7292290  26.6529827  53.4535255  23.0649738  27.1129818  54.2228813
  21.9895439  27.1850262  53.1602211   7.6706510  31.8661728  77.8060379
   7.8315511  31.9305248  78.7474213   6.7199717  31.7840042  77.7306137
  80.2706528  16.4843426  31.6904068  79.6944504  15.7396641  31.8626747
  80.3916321  16.8964825  32.5458221  29.7275887  20.8381805  14.9730711
  30.6695747  20.6728172  14.9336720  29.6324348  21.5254326  15.6325102
   5.6495447  18.0011520  22.6536579   5.8849959  18.8560638  23.0141029
   5.6374865  17.4167271  23.4116383  14.8060713  51.9954033  79.9462204
  14.1718740  51.8152275  79.2522736  15.4403868  52.5881004  79.5430069
  14.3744287  56.3656273  58.7365112  14.9617386  56.1006927  58.0286255
  14.9234161  56.8898163  59.3196716  66.8590851  32.3398476  46.7868385
  66.4190063  33.1599159  46.5631142  67.1155777  31.9677296  45.9430542
  29.6221313  64.9560776  84.3789368  30.1064167  64.2084045  84.7291946
  30.2498226  65.6784744  84.3985596   1.1681982  44.4205475  77.9639053
   1.1393737  45.3735237  78.0489883   0.5450700  44.2235641  77.2645264
  41.9329529  41.3713264  87.1953735  42.7696228  41.7708435  87.4332886
  41.7035408  41.7760773  86.3588486   9.6140127  49.3099747  66.8089600
   9.8962660  48.4930878  66.3975372  10.2629395  49.4697075  67.4942398
  17.5021439  62.5211372  56.1528168  17.5482521  62.9041214  57.0288506
  16.7454967  62.9435539  55.7462692  22.5677967   1.8090503   5.8490462
  22.4125824   1.2574434   5.0823193  21.7981834   1.6730422   6.4017048
  32.0127411  19.1217709  81.4394836  32.2732697  18.2634201  81.1054382
  32.1289330  19.7134476  80.6960831  48.5973740  20.4042301   5.3906083
  48.0517845  21.1907101   5.3866715  48.5212822  20.0644073   6.2822151
  50.3517799  13.7346449  58.6302261  50.8903389  14.4996290  58.8326759
  49.7720261  14.0290127  57.9277573  14.4978104  54.0262375  86.8410645
  13.5979195  54.2853355  86.6428299  14.4212217  53.1339722  87.1790390
  80.9414978  22.3705215  19.5132217  80.7822952  21.4732761  19.2202454
  80.6365128  22.3839245  20.4204330  84.2106400  15.7021246  74.7797394
  83.7378769  15.0492916  75.2960129  83.8315811  15.6347723  73.9033813
  81.5428925  44.3877487  57.7324371  82.0394897  44.6405029  58.5107346
  82.1540451  44.5145760  57.0067368  56.7065926  70.5852737  80.8236923
  56.5889130  71.4654770  80.4664383  57.2719803  70.1433105  80.1902618
  60.2684555   7.9871135  73.5644379  59.7812614   8.1592798  74.3701859
  61.1172714   8.4071531  73.7033920  36.5266533  23.1779442   9.5596466
  36.4914322  22.6591969   8.7559719  36.9410172  23.9996586   9.2963610
   4.4886918  54.8810425  52.5424995   4.0354958  54.4573479  51.8135757
   5.1284060  55.4573364  52.1243095  43.5788383  47.8036308  59.6433334
  44.5058861  47.7548676  59.4100037  43.5020638  47.2678680  60.4328232
   6.7782826  16.2983570  27.3770027   7.5752621  16.8277531  27.3487720
   6.2652717  16.6757164  28.0916023   6.7758465   6.3603139  80.7704315
   7.4344640   6.1664104  81.4374084   6.1603279   6.9499812  81.2059326
  70.7300339  30.2642422  39.8659592  71.3717270  30.8191090  39.4225883
  69.9343567  30.3518810  39.3411293  77.9769135  68.5616684  67.7906189
  78.5854950  68.0128098  67.2960358  77.1376190  68.4513931  67.3437958
  33.9056358  39.1234360   5.9714880  33.3319244  39.1427841   6.7374597
  34.0591545  40.0451546   5.7638836  69.8321838  25.0409241  36.0175362
  68.8776321  25.1052818  35.9871674  70.0563965  25.2337360  36.9279099
  17.4036903  51.5503464   7.7171216  17.4418564  51.3603821   8.6545057
  16.6459808  52.1271744   7.6202927  17.4271469  70.6045227  12.0450640
  16.9177589  71.3646545  11.7640791  18.0794773  70.9626160  12.6471176
   6.1994014  35.3181801  59.3261871   6.3014183  36.1851311  58.9334755
   5.2779284  35.0993500  59.1875076  71.0597458  66.9442902  56.5421524
  71.2310562  67.1157837  55.6161499  70.8129349  66.0199738  56.5728874
  45.1196022  60.2333603  79.1751099  44.9341583  60.4677010  78.2657547
  45.3298683  59.3000641  79.1438370  33.5751152  47.3747749  88.3979263
  33.5758324  46.4362564  88.2097397  32.6744461  47.6520157  88.2300949
  17.3687668   8.6961861  83.3084488  16.8508873   9.2465525  83.8959274
  16.7235050   8.1446886  82.8660431  81.7630463   6.7353120  18.9346371
  81.8231583   5.7805958  18.9683418  82.4650879   7.0399442  19.5095921
   8.9501181  19.0387459  36.0768547   8.3742304  19.1047707  36.8385811
   9.8183565  18.8776875  36.4462547  34.1349602  12.6956959   7.9442239
  33.7784462  12.3809175   7.1135345  34.6600800  13.4595308   7.7053986
  23.5640583  50.8381233  33.0054398  24.3558998  50.6343002  33.5031090
  23.6565533  50.3397217  32.1934853  80.9946823  63.2351723  17.3767357
  80.6728592  62.3990440  17.7137127  81.7033310  62.9958839  16.7794189
  11.7368631  24.2388897  60.5382576  10.9279146  24.4532757  61.0028801
  11.8507118  24.9545174  59.9128380  41.5319252  48.9178963  76.3186874
  41.3530846  47.9898109  76.1673431  40.7006340  49.2739487  76.6324081
  76.6291733  44.1478119  24.9749565  76.4366608  44.6000290  25.7963390
  76.1448517  44.6394386  24.3116570  49.3773270  42.0549049  82.8932571
  49.5106316  42.4947357  83.7329102  48.9240990  41.2422714  83.1178513
  60.3217850  18.9607544  86.2980728  59.5908432  18.5132446  85.8718185
  59.9656067  19.2569714  87.1357040  15.2909117  49.4843063  85.3603745
  15.2317314  50.3252373  84.9069824  14.4164562  49.3464317  85.7244492
  39.6999664  65.7311554  54.6248474  40.4082298  66.3401947  54.8338051
  39.1735649  65.6929092  55.4233894  85.9668121  46.4303894  57.5237923
  85.4231339  46.9164009  56.9037590  85.5842361  46.6228294  58.3798485
  77.8042679  59.5709724  57.5168457  78.6348801  60.0421791  57.5822639
  77.1364136  60.2422791  57.6566620  37.8344078  50.7282410  42.4593887
  37.1836357  51.4085007  42.6325226  37.9535713  50.2906799  43.3023453
  34.1890564  34.7575607   7.2631445  34.1934166  35.2097130   8.1068106
  34.7568893  35.2879982   6.7041864  52.0595322  52.5936623  23.2636604
  52.2144356  51.8662567  23.8662510  51.2027092  52.9366608  23.5175037
  40.2713394  60.6898689  52.1758270  41.1388512  60.6146240  51.7783470
  40.2340927  61.5893555  52.5010452  28.1264496  34.1836395  80.0526047
  27.9932213  34.2217026  80.9997253  28.3193321  35.0869179  79.8013763
  65.4595337   4.5976863  85.3101044  66.0861893   4.8541350  85.9866867
  65.8796997   4.8478994  84.4872513  47.7973061   4.9690886  23.2681103
  47.9495316   5.2226686  22.3577499  46.8789215   4.7002954  23.2915039
  17.0867825  57.1175652  27.1613159  17.4428310  57.3009758  28.0306950
  16.8220425  56.1985130  27.1999226   3.0927432  64.7701721   3.8746474
   2.9102430  64.8296814   4.8124027   3.9306200  64.3103180   3.8224103
  83.8138504  70.2401123  52.2703285  84.1803360  69.9367142  53.1009102
  83.0150375  69.7247162  52.1585045  64.6013260  41.6808586  50.6658363
  64.5178528  40.7431412  50.8388939  64.2489853  41.7937851  49.7830353
  45.2261810  64.8646927  39.7436371  45.8601227  64.4330139  39.1709213
  45.2331543  64.3421021  40.5455589  79.6858063  35.8813438  40.0429192
  80.2162628  35.7652969  40.8311920  79.4393234  36.8061981  40.0540962
  74.0643234  28.5495644  52.2120743  74.5449524  29.0506420  52.8709717
  74.2772827  28.9779606  51.3830032  67.2347488   6.6488442  57.8901558
  66.6161194   6.9029169  57.2053375  66.9791412   7.1719637  58.6499176
  56.2533188  66.5528946  10.5285540  56.4898796  67.4790726  10.5781574
  56.4725876  66.2973480   9.6325359  76.4378815  28.2741356  47.0140457
  76.4235001  29.2260742  47.1132164  76.2100220  27.9394970  47.8814163
  80.3243713  11.8624811  59.8017998  80.8022003  12.4574823  59.2239723
  80.9714432  11.2046108  60.0562325  14.6281261  43.6397285   5.8627677
  14.1150484  44.4330635   6.0164118  15.4510555  43.7930565   6.3269992
  63.4367561  68.7200928  69.3493805  63.8355331  69.5872803  69.4214249
  64.1765289  68.1260834  69.2224121  23.4545956  61.7682076  60.8307152
  22.5143757  61.8222809  60.6595650  23.5164413  61.5381927  61.7578087
  80.7083817  67.1885910  68.2701035  81.5392914  67.5821152  68.0037231
  80.3079834  67.8406830  68.8451462  48.1962280  44.9702415  51.1715660
  47.2983208  44.9009132  51.4958916  48.6910934  44.3449631  51.7010612
  83.3808975  50.3233337  48.0522156  83.2110596  49.5476646  47.5176811
  84.2991714  50.5342293  47.8833122  84.5438156  55.7074051  37.2216721
  84.1693573  56.1269073  36.4470558  85.4438324  55.5000420  36.9702530
  15.0172710  67.5730209  79.8094406  14.6991720  67.5049362  80.7096634
  15.9682684  67.4946365  79.8848801  40.5562363  42.9617081  24.7047291
  39.9053116  43.6022415  24.4179516  40.1342010  42.1135635  24.5677204
  58.2114563  69.9087067  31.0315037  59.1424942  69.8593445  30.8148022
  57.8394089  69.1021576  30.6747227  21.3433208   2.8094647  14.4833517
  21.4358330   2.9898577  13.5478668  22.1439648   2.3397892  14.7170315
  15.6253920  53.5391235  41.9654350  14.8204823  53.9641609  42.2615700
  16.3276463  54.0992699  42.2960548  32.5636864  66.2048111  22.2481155
  32.6797981  65.4635391  21.6537476  33.1172867  66.8944626  21.8818760
  53.3000183  63.6437225  80.5475998  54.0482903  63.0469322  80.5603790
  52.5442810  63.0841408  80.7263718  51.1033554   0.2671830  28.6956043
  51.0511665   0.8259444  29.4710369  51.6036224   0.7821556  28.0625401
  68.8223801  47.0667725  53.0417442  69.6235886  46.6989975  53.4146080
  68.5984497  47.7927017  53.6240807  49.5624771  23.8253384  68.2926559
  49.8994598  24.0145092  67.4169312  48.6603775  23.5409069  68.1458740
  24.8511467  18.9479122   3.7766483  24.7294998  19.2671547   4.6708059
  25.4684963  19.5650520   3.3839004  83.9359283  27.0341644  42.6812325
  84.5459747  26.5334377  42.1396179  84.4174805  27.8283825  42.9126587
  16.5928345  65.8159943  10.6205368  16.7053642  65.3309402  11.4380245
  17.0395489  66.6487732  10.7727299  79.2924957  43.5467873  77.1080856
  80.0831909  44.0343819  77.3389282  78.9782257  43.9655800  76.3067932
  55.6305542  24.6907139  64.3255997  55.5990410  23.7480431  64.4887314
  55.1106758  24.8138561  63.5313759  81.1507950  14.4904814  36.2960968
  80.6447678  14.9785423  36.9456863  81.7572784  13.9607744  36.8136063
   0.6241148   8.6100283  51.8514900   1.0682725   8.9220324  51.0630684
  -0.1561956   8.1617622  51.5252914  54.6801872   8.4528294  20.6282253
  54.6596909   8.4118261  21.5843258  54.5424843   7.5483899  20.3466969
  85.7052765  52.7343864  48.9732437  85.6163559  52.3900108  49.8619118
  86.0284729  51.9935226  48.4605064  74.9565659  49.4329529  32.6257019
  74.8331070  49.0876083  33.5098572  75.3170624  48.6979599  32.1296577
  23.9282913  17.5932770  14.1161575  24.2834682  16.8679504  13.6023664
  23.7999954  17.2267876  14.9910622  63.2799492  44.5881920  48.0305176
  62.9706345  45.4570007  48.2868843  64.1705017  44.7353706  47.7119484
  20.1737938  23.0041885   0.6668287  19.6417809  22.3235111   1.0789834
  20.4318314  23.5767307   1.3892162  11.9668493  29.8856297  69.5318298
  11.1279783  29.4894085  69.2961655  12.3252068  30.1993713  68.7015381
   7.2550273   2.8845627  56.7580566   6.6392617   3.3924253  57.2863922
   7.8441863   2.4830482  57.3967323  41.3882370  49.7716751  67.1208496
  41.0601616  49.4285278  67.9520264  41.3644981  49.0220070  66.5261536
  80.1855011   1.6514182  73.9998245  79.2846909   1.8871855  74.2216339
  80.1234818   1.2630495  73.1271591  42.4285278  63.8319626  24.0883312
  42.6557732  64.4270859  23.3738937  42.3611488  64.3967133  24.8582325
  82.4229050  70.6012268  74.4854507  82.9208221  70.4878464  73.6758499
  82.5745316  69.7928391  74.9750977  16.9817142  55.9440956  57.1091614
  16.7323704  56.3009872  56.2567024  17.7676220  56.4331169  57.3529587
  48.0764771  41.4399300   8.9153910  48.5107727  41.2202568   9.7396259
  48.3845711  40.7764320   8.2980719  56.6498146  60.9674606  32.2962723
  56.3258896  60.7609749  31.4195366  57.3392105  61.6153069  32.1504784
  31.1519718  46.5949631  61.8908958  31.8392162  45.9747696  62.1343842
  31.5520725  47.1428795  61.2156639  42.1038208   8.0582294  43.6941948
  42.1208458   8.0527887  42.7371597  43.0199127   8.1671429  43.9494247
  51.1071091  23.5459270  19.2341194  51.7451782  24.2594242  19.2294102
  51.3758316  22.9891148  19.9648590  46.2930832  60.1391830  15.8265362
  46.6651611  59.4590569  15.2650919  47.0073547  60.7640800  15.9512444
  64.8283005  24.6190948  28.6754990  65.1759109  25.2804623  29.2738209
  64.9788284  24.9827080  27.8029404  41.0405540  11.5440760  16.5629692
  41.1308899  12.3411703  16.0407505  40.2474937  11.6851130  17.0800705
  13.8291159  17.2533741  77.2154922  13.7045498  16.3749409  77.5747528
  13.1143188  17.7686405  77.5893860  11.5240974  24.4102039   5.0094728
  11.6892624  25.1063366   5.6453590  11.0536566  24.8431873   4.2971225
  65.3753433  26.2585430  50.6523666  64.7038269  26.8228874  51.0355377
  65.2184677  26.3059444  49.7093010  63.6707001  11.4054661   8.9195204
  63.6510887  10.9515076   9.7619982  63.5156555  12.3242111   9.1388388
  42.6730766   6.5674844  71.2798538  42.8232765   6.3834362  70.3526001
  43.5092049   6.3697648  71.7017899  38.7304878  10.1785307  74.2418900
  39.4699707  10.1898327  74.8495636  39.0061264   9.5887651  73.5401535
  29.6945419  39.2272415   2.4182968  30.4246311  38.6295242   2.2572432
  28.9966145  38.6668816   2.7576015  73.1937256  71.2612381  87.8806000
  73.1000519  71.2019882  88.8313599  72.2955551  71.3176193  87.5544891
  53.9937363  25.1427708  66.9945755  54.2561264  25.2843304  66.0849915
  54.5592308  25.7262325  67.5005646   1.3075166  58.8462524  24.7151108
   2.1559725  58.9093857  25.1537094   0.6668615  58.8960915  25.4245548
  26.3646488   5.4890256  79.0394897  26.5077419   5.2973270  78.1126633
  25.8256474   6.2800436  79.0400314  32.1943550  54.7510452  15.8608646
  32.6314392  53.9068871  15.7486572  32.6590462  55.3419952  15.2683525
  18.9166527   2.0556488  73.0309372  18.0558949   1.6481799  73.1273575
  19.4965534   1.5217944  73.5740280  43.8277016  36.1957588  61.2233658
  44.5055542  36.6543503  61.7197990  44.1718521  35.3097801  61.1100807
  77.3075333   5.8714633  56.0356750  77.1982651   6.4091868  56.8199883
  78.2555695   5.7976632  55.9260483  17.4293747  15.9529200  25.3379536
  17.3584175  16.8337479  25.7058392  18.2312107  15.5972252  25.7210617
  29.6921253  62.7024765  48.3225365  29.7930870  63.5996437  48.6405487
  30.4296589  62.2279778  48.7061081  54.7470703  57.0178986  73.0111389
  54.4527283  57.1838837  72.1155701  53.9839821  57.2147903  73.5544281
  80.9804382  30.9187393  21.6748695  81.6433105  31.6075516  21.6261501
  80.4489670  31.1512089  22.4362698  16.7555733  56.4199181  40.7742119
  17.4519138  56.9421463  41.1724854  15.9619150  56.9384766  40.9062614
  43.9813118  -0.0750583  31.9732437  44.5951538   0.4178820  31.4287796
  43.1334457   0.0424862  31.5448341  44.6130066   2.3079469  21.6906605
  44.9554443   1.8651818  22.4671440  45.3728638   2.4076583  21.1171570
   3.2502913  17.3917770  11.0239277   3.0670769  18.3225918  10.8964567
   4.1491499  17.3673401  11.3520861  59.6738968  15.5709677  17.8717957
  59.2936516  16.0781384  17.1545639  60.1483307  14.8615847  17.4382954
  31.4390087  56.6137886  17.7277088  31.9900703  56.3394928  18.4607334
  31.5400200  55.9176636  17.0785255  65.4198532  65.7521210  48.0250854
  65.8405304  65.4467163  47.2213478  65.2318497  66.6761856  47.8608017
  37.2106895  10.8901157  13.8606243  37.8185921  10.1623125  13.7302694
  36.3796501  10.5745764  13.5056038  37.5923157  14.9591675  79.3580704
  37.4273148  15.0197945  80.2989883  38.3015137  14.3210735  79.2798920
  42.5947876  60.3472786  84.2799377  42.9720840  59.4722977  84.3709488
  42.1363640  60.3242531  83.4399719  49.7157402  71.1728363  15.5255003
  49.3232536  71.8593369  14.9861431  49.3803101  70.3563080  15.1553669
  31.8892822  18.2033787  67.3932419  32.5915642  18.4328403  66.7846527
  31.8697243  17.2464027  67.3865585  50.2108345  19.8065701  65.5677032
  51.0129051  19.2881451  65.6321030  49.9479485  19.7281628  64.6506577
  25.7253704  46.5721931   8.0137510  26.5426140  46.2113266   7.6700644
  25.3354950  45.8522568   8.5096569  75.4631500  63.2924881  35.3059998
  74.6265869  63.7509613  35.3846397  76.1025085  63.9865646  35.1456375
  72.8540268  36.3820648  56.4074478  72.3756638  35.7335587  56.9240189
  73.6020508  35.9014282  56.0529366   5.4216666  13.4496536  48.6596832
   5.4279733  12.9538059  49.4784203   6.3346944  13.7046537  48.5270691
  84.7572937  29.2553730  83.9159698  85.4304047  29.0733204  84.5717239
  85.0027542  30.1052589  83.5503540  23.8359375  70.7097015  86.4583511
  24.4850616  70.5410004  85.7754059  23.8193264  69.9053345  86.9769516
  32.5187874  38.2894707  77.1643066  32.4556122  38.2208519  76.2116623
  32.4246178  37.3893700  77.4760437  69.9584885   3.2355807  16.7731285
  69.4465714   2.5056117  16.4248180  69.7731857   3.9630003  16.1791973
   7.2829742  31.8260002  25.9384861   7.8415208  31.9591637  26.7043362
   7.0453191  30.8994370  25.9735661  86.2227707  26.1602840  61.2120743
  86.2916870  27.1065826  61.0855827  86.8724747  25.9607964  61.8861122
  45.5718346  12.3556910   8.2439346  46.2621422  11.7893248   8.5888090
  46.0403099  13.0433712   7.7707977  58.5963440   0.1637033   1.1832932
  59.4289474  -0.0005870   1.6260235  58.7453346   0.9660378   0.6830003
   2.8113122  16.7605801   7.3082938   2.8666506  15.8541317   7.6108184
   3.7040086  17.0958118   7.3916254  11.1478214  20.4169807  26.1176090
  10.2825375  20.3893108  25.7092590  11.1371841  19.6987324  26.7502537
  60.7471619  29.3374405  31.5879498  61.1127586  28.9699173  30.7832775
  61.1492386  28.8251991  32.2895012  45.5500526  65.2628098  81.6261368
  45.5279999  64.4640274  81.0991669  45.0386086  65.8961411  81.1225967
  12.5330915  12.1182270  27.7748814  12.8287592  11.7553682  26.9399300
  12.2644196  11.3548574  28.2860718  74.6863632  26.3176403  29.6950645
  75.3242111  26.2185173  28.9882717  74.6997299  25.4753628  30.1496181
  69.2993469  41.4637604  82.4202957  68.8932800  40.6036644  82.5279160
  69.9153976  41.3489304  81.6967468  56.6542091  68.7400970  47.6505775
  56.0588646  68.0246048  47.4272575  56.2997551  69.1019592  48.4627647
  76.7858734  38.0066795   1.3230219  77.5771561  37.5299721   1.5737144
  76.2843399  38.0820274   2.1348240  67.1208267  10.1635170  67.5669937
  67.3372421  10.8302717  68.2187881  67.8451385   9.5394382  67.6131668
  34.0903435  26.5653858  12.6599064  33.4848137  26.0211201  12.1565800
  34.8718529  26.0222874  12.7624731  28.0784264   2.5895922  17.1875973
  28.5791073   1.9449162  16.6876545  27.1700821   2.2967865  17.1140575
   2.4539323  60.4327202  62.3919754   3.0562651  61.1759796  62.4234047
   1.9516755  60.4969406  63.2042847  45.6529732  43.3045883   9.0078869
  45.2426376  43.3084793   8.1431093  46.4768677  42.8344154   8.8799438
  74.1758957  14.1026125   4.3070350  75.0672150  13.8120604   4.5003338
  74.2773056  14.7218685   3.5842135  13.1484499  52.7500153  48.3413544
  13.0015774  53.3220253  49.0946579  13.3068724  51.8867760  48.7233887
  78.4516678  58.7398148  68.3813553  79.1894455  59.0718803  67.8698349
  77.9867020  59.5255089  68.6689682  75.5800247  26.9117298  49.3319855
  74.9664383  26.4811001  49.9272156  76.2135239  26.2303638  49.1069145
   6.2763362  51.4958916  12.1433744   6.0537972  52.0152626  12.9160080
   5.4522772  51.4160385  11.6629772  76.1924744  42.7309265  20.8581142
  76.6189423  43.5362701  20.5652218  76.7865829  42.3712044  21.5168018
  17.1772079  58.6097755  12.2917261  16.7058907  59.1020622  11.6196060
  17.4595432  57.8095932  11.8487549  27.5177422  65.6429291  64.0869217
  26.7663841  65.1893234  63.7049065  27.3741341  66.5651398  63.8744736
  33.9438210  48.7584610  62.8942375  34.1262932  49.1374168  63.7540817
  34.4333916  47.9359703  62.8862076  15.1242523   6.0960169  87.9702530
  14.5506048   6.8333907  88.1786728  15.1282005   6.0585222  87.0137939
  63.6324692  30.2959938  79.6620560  63.1379395  29.4764423  79.6650696
  63.6680412  30.5576515  80.5821152  82.7707214  56.3839073  25.4310551
  83.6979446  56.1784134  25.3115997  82.5635147  56.0559158  26.3061085
  86.6160049  56.0696068  44.1478806  86.6459274  57.0263214  44.1540565
  86.9785004  55.8131638  44.9958572  54.7377853   5.3168988  32.4533348
  55.0254822   4.8408237  33.2323189  53.8035431   5.4682560  32.5965652
  55.4675751  51.9116821  23.3506432  54.6377602  51.4644852  23.5169392
  55.7372665  51.6023331  22.4858894  31.3008595  65.7471771  28.7258644
  31.2734489  65.2195282  27.9277000  31.9822311  65.3386383  29.2597752
  28.5792656  69.9879456  77.4251862  29.4698315  69.6378174  77.4020767
  28.0264034  69.2252884  77.5952682  40.3003387  54.6841660  86.3936005
  39.6997414  54.9293823  87.0974426  39.9272079  53.8815804  86.0290909
  67.5579529  63.7913055  79.6806793  68.2816620  63.9116325  80.2954941
  67.7683945  62.9796867  79.2189178  48.5725365  54.0233269  11.2818213
  48.6681175  53.1481743  10.9060469  49.4705429  54.3197632  11.4299583
  65.9980850   8.8527069  59.7991180  66.7415314   9.4040442  59.5550995
  65.2544937   9.2323742  59.3309784  50.1024818  71.0169983  67.9579849
  50.9514961  71.4527969  68.0320892  49.8410568  70.8463669  68.8628387
  61.7736931  66.1053619  27.6450272  62.1131134  66.9267426  27.2895565
  61.0320053  65.8883057  27.0802155  59.7644272   2.7330823  74.4105377
  60.3964043   2.0142999  74.3967056  59.0987206   2.4546268  75.0394440
  71.3525848  59.5956955  10.5923595  70.8454514  59.7761955   9.8008604
  70.8048859  59.9205399  11.3070154   1.2372437  31.7968502  46.1364937
   1.7349201  31.6734924  46.9447823   1.6909471  32.5065346  45.6818123
  64.9499359  27.8822422  46.0484848  64.8582382  27.5349712  45.1612282
  64.4880600  27.2519360  46.6013145  40.9718475   1.1404177  76.8940125
  41.0411606   1.9246229  77.4384842  40.4175606   0.5460017  77.3996506
  65.0676117  12.0682116  28.4665470  64.5029373  12.0874701  27.6938858
  65.9411774  11.8859310  28.1203022  70.3851166  37.6698990  61.9617119
  71.2636948  37.8904457  62.2710457  70.3144760  38.1041260  61.1116028
  46.0522995  34.6035156   6.7169662  45.3359909  35.1612167   6.4134846
  46.6717033  34.5909386   5.9873013  76.7285690  44.5200272  78.1142349
  77.5432663  44.0297165  78.0042496  77.0102692  45.3981667  78.3706512
  51.9158707  58.9515305  85.9013214  51.4300919  59.7591324  86.0687485
  51.2445793  58.3146324  85.6564560  75.2559433  18.4599724  74.3832626
  74.9674911  19.1231518  73.7561951  76.1239014  18.1999378  74.0746002
  33.5569420  21.0909653  12.4296064  33.1465988  21.6952038  11.8109426
  34.2911491  21.5844498  12.7951775  19.4250507  40.6821175  25.3881359
  19.2895908  40.9157372  26.3064518  19.7615433  39.7864456  25.4159737
  41.2944832  62.4969673  37.4229317  41.9982491  62.7590942  36.8294373
  40.4903526  62.7238197  36.9558754  35.1439095  27.0576077   9.9457455
  34.3471756  27.1191692  10.4726763  34.8402901  26.7680168   9.0854073
  13.7428980  52.1384430  37.5403900  14.1809282  52.1724091  38.3908043
  13.5416174  53.0520935  37.3379898  64.2771683  20.3213558  65.8421707
  65.0347519  20.2095184  65.2679062  63.6314583  19.6970940  65.5111389
  32.7543030   1.6236043  20.9726524  33.0529137   1.2612442  21.8067722
  31.9085693   1.2029010  20.8178062  66.1008987   1.6251106  45.0597725
  66.7959671   1.9410439  45.6370850  66.5273972   1.5137392  44.2101097
  34.6891556  38.3768692   2.4614441  35.3763313  37.7413406   2.2611277
  34.0846596  37.9037514   3.0332646  77.0805664  19.8946209  83.8535690
  77.6188431  20.6113853  84.1893463  76.2063751  20.0675774  84.2029877
  42.7383270  57.9571762  50.4602661  42.6502609  57.3179245  51.1672592
  41.9709587  57.8100128  49.9073448  70.5392075  20.1412201  41.3054619
  69.9232559  19.4395428  41.5163879  70.0163040  20.7821865  40.8238335
   9.3240862   8.5699368  84.8031311   9.5363350   8.6289949  85.7346344
   8.4606895   8.9763012  84.7279816  56.4962463  70.5011597  76.0837784
  56.3739357  69.6218338  76.4416275  56.9866257  70.9688110  76.7598419
  64.1662598  66.8910828  43.3656273  64.4327164  66.3455505  44.1056442
  64.1076660  67.7749100  43.7284660  77.0347672  22.3819637   4.5162477
  76.7089310  22.6017857   5.3890257  76.6907272  23.0735512   3.9509401
  78.8885574  30.3084488  79.1501083  78.1995316  30.5229607  79.7789612
  78.8460846  29.3560905  79.0638657   9.1936159  49.9470482  42.4693375
   9.3401957  49.0425453  42.7461433   9.2091293  49.9103470  41.5129662
  49.1182137  24.4181385  70.8209229  49.7960358  23.7890892  71.0680847
  49.3212051  24.6447334  69.9133530  48.9210052  42.9243431  56.9240799
  49.5256996  43.3584099  56.3222847  48.6009140  43.6267853  57.4900703
  56.9643745  41.9150543  49.8246346  57.0251694  42.2188644  48.9189644
  56.0776482  41.5625420  49.9000015  85.0940857  64.4415665  78.5967712
  85.1147003  63.4876099  78.6727524  84.2751617  64.6276093  78.1374359
  61.3938522  24.4142685  85.0074005  61.2669144  23.4940472  85.2382889
  61.3611298  24.8778782  85.8442001  65.1210938   2.0060380  58.4834442
  66.0228271   1.8333545  58.2127266  64.7376862   2.4842007  57.7481956
   0.5409009  43.1409378  11.1556358  -0.1398096  43.0338669  10.4912558
   0.0664338  43.1401482  11.9869671  31.8596230  28.3518620   2.6084888
  31.0812759  27.8668327   2.3343484  31.5725613  28.8542004   3.3710406
  84.6863708  46.8551216  51.1371613  84.0606308  46.6037254  51.8164864
  85.4994659  47.0268097  51.6121712  70.8327332  36.6893387  71.2183685
  70.2648087  36.0802193  71.6902466  70.7282486  37.5210953  71.6804276
  28.4524136   4.6002932  49.9729500  29.1904469   5.0986056  50.3239822
  28.2287312   5.0467634  49.1563339  78.4273605  30.2368603  13.7180271
  77.5873795  29.8164864  13.9022799  78.8799057  29.6239796  13.1385326
  25.6764870  36.5055885  72.2720184  26.4112873  37.0248413  72.5986252
  25.9691467  35.5979729  72.3546066  83.5445709  50.8654175  35.6559677
  82.6551285  50.8820229  35.3026161  84.1090698  50.8495789  34.8831024
  85.6741257  15.1008024  67.3104553  84.7351685  15.2539463  67.4159851
  86.0442352  15.9718285  67.1670532  17.5495548  63.8992157   3.3120813
  18.0179691  63.1457710   3.6714447  16.6590862  63.8121414   3.6522517
  47.7768402  69.5336456  88.6039352  47.0847969  70.0497284  88.1904526
  48.4853134  69.5238113  87.9603500   4.4926753  66.9120178  46.8794899
   4.9355550  67.4770584  47.5125961   3.6987383  66.6238861  47.3299103
  85.1689682  49.4522171  50.5335541  85.6768951  49.1477776  49.7815132
  84.7761154  48.6575890  50.8947525  59.4745140  68.3758316  59.0416489
  59.9810219  69.0673218  58.6155968  58.7842331  68.1629562  58.4136124
  79.9151993  30.6762352  52.6260223  79.1844559  30.5069637  53.2206573
  80.6624451  30.2390137  53.0343018  44.0018044  68.2583313  13.5428457
  44.8769836  68.5472336  13.2843351  44.1383743  67.7858582  14.3640366
  40.8759270  41.3275108   0.8963526  41.4210243  42.1131439   0.9397449
  40.7870407  41.1490746  -0.0398587  44.4501381  66.5712738  10.9839334
  44.2040558  66.9499130  11.8279152  44.1261024  67.1977005  10.3367720
  75.0203629  26.1156368  39.1749115  75.8193512  26.1070709  39.7019539
  74.3105927  26.1462269  39.8164101  80.7475967  12.8088627  73.2848129
  81.4845734  12.3057699  72.9384079  81.0770874  13.1853552  74.1008530
  49.9172745  24.5999851  58.9479599  49.0947609  24.8247051  59.3829346
  49.9746094  23.6473351  59.0214767  85.0037384  45.3132553  80.2470093
  84.7964249  45.3814697  79.3150253  85.6013794  46.0422058  80.4134140
  31.3448429  38.5609779  27.8387127  31.2258396  39.2427216  28.4999981
  32.2300262  38.2305336  27.9919853  21.8003407  15.3061800   4.5160975
  22.5830860  14.8480368   4.2100801  21.6987801  16.0388680   3.9085743
  14.7192469   3.4901385  48.6234703  14.0792446   4.1240768  48.2998161
  14.2175264   2.9188573  49.2049713  31.3746204   1.0345999   9.4111376
  30.8645248   1.7875148   9.1125488  30.7266655   0.3416866   9.5386477
   1.1138110  44.6543922  58.0945549   1.5195181  44.5028038  57.2409401
   0.4370893  45.3098068  57.9251060  69.8374252  47.6016121  44.1057663
  68.9557266  47.7757454  43.7763672  70.4165802  47.8640289  43.3902588
  81.3051682   1.4050119  32.5679131  80.5333481   1.9607927  32.6757545
  82.0354004   2.0200062  32.4987755  46.7543373  37.3073616  49.6702538
  47.6125641  37.6869087  49.8589897  46.9083481  36.7249756  48.9263878
  42.9968681  20.1428261  11.4652834  42.3953896  20.7803230  11.8500557
  43.6130219  20.6709328  10.9576511   3.2802608  70.4556808  24.3178673
   2.9275982  70.8221207  23.5069523   2.7503536  69.6748276  24.4781857
  69.6870193  15.4864531  32.3089066  70.4990768  15.1431761  31.9361343
  69.7875061  16.4374447  32.2670708  72.6308365  64.4640808  25.5523911
  73.2207413  65.1744537  25.8046188  71.9111633  64.5156403  26.1813889
  43.2679253  32.4472580  62.9059219  43.9528885  32.9408455  62.4548912
  43.2679520  31.5912781  62.4775238  27.2066689  60.2128143  27.9107456
  28.0905895  60.5744476  27.8464241  26.7617950  60.5261726  27.1232643
  32.6402779  25.6407890   4.6146412  33.2630234  26.3498135   4.7749567
  33.0984764  25.0501862   4.0167518  32.4323387  61.6106873  81.8814621
  33.0288582  61.2748299  82.5504913  31.5682716  61.3022346  82.1543655
  74.1148224  41.6574669  71.1709442  73.4739456  42.3066254  70.8809509
  74.7424545  42.1571693  71.6930618  80.7094040  10.9420700  82.9058990
  79.8880463  11.1884060  82.4805527  80.4763184  10.2019558  83.4663696
  39.1321259  39.9774284   4.5697331  39.4520035  40.8608475   4.7527142
  39.8654938  39.4054718   4.7961521  32.7364693  11.7096081  77.2340546
  32.3131180  10.8860750  77.4765472  33.4244270  11.8272257  77.8891220
  61.7651787  48.7145386  23.5433769  60.8864670  49.0254059  23.3255215
  62.3524933  49.3218842  23.0934601  75.7844543  22.8421307  21.5438995
  76.3916626  22.7449589  20.8103523  75.6456985  23.7864342  21.6164818
   7.9410357  37.1419029   7.9241080   8.7774582  37.2269363   7.4665074
   8.1822357  36.9503212   8.8303919  30.6043663  28.7569790  84.8241119
  30.0058041  28.6304893  84.0879364  30.9982109  29.6152897  84.6678391
  16.9114628  58.9040108  80.5238419  16.1512203  59.4701424  80.6570969
  16.9376163  58.7567062  79.5784073  83.0938416  36.2254524  70.6587677
  83.7007065  35.5140610  70.4541473  83.6081238  36.8337746  71.1895142
  64.1318207  37.0720901  72.4653244  63.8474731  37.0470047  73.3789749
  64.8666840  36.4599838  72.4262924   9.3545771  56.1376534  72.3383408
   8.9379539  56.9411545  72.0268250   9.1203032  55.4778175  71.6856842
  31.8800201   9.5183353  21.7714691  31.6040192   8.6154947  21.6135654
  31.4797649   9.7479515  22.6101017  16.8903790  40.4072952   7.8720059
  17.0609074  39.4821892   8.0490208  17.7511063  40.8231850   7.9211745
  52.4890862  33.0764961  81.2778244  52.8979683  33.8507538  81.6645737
  51.5700951  33.3206215  81.1678848  86.0520248   3.5007250  71.7896271
  86.1408844   2.8364697  72.4730759  86.7747879   4.1074834  71.9499359
  49.9863129  66.1490555  65.4753418  50.5330315  65.3649902  65.5260696
  50.4240036  66.7833786  66.0430450  51.1483307  64.8172455  68.2307663
  51.9392891  65.2758636  67.9474258  51.2823296  63.9122696  67.9491730
  13.6828537  11.7744408  17.0564251  13.5148506  11.5241089  17.9649086
  13.1796713  12.5792723  16.9327888   7.5514011  38.6361809  83.5577927
   8.4632864  38.8893127  83.4141922   7.3321352  38.0915108  82.8018265
  12.6621866  15.0022593   3.8481288  12.1597528  15.2857370   3.0843012
  13.0258350  15.8107576   4.2091303   8.1933165  66.0460739  19.9652748
   8.4368963  65.8292465  19.0653400   9.0276442  66.1137314  20.4295502
  64.0565033  25.4851894  64.4064865  63.8099060  24.5779247  64.5861893
  63.4483643  26.0068970  64.9301453  77.1183929  27.3981628  63.2934647
  77.0824356  28.2250938  62.8127098  76.8091583  27.6183262  64.1721725
   9.9558592  61.6538963  63.6561584   9.8368912  62.1062164  64.4913101
   9.2147245  61.0504761  63.6028824  42.9686584  63.6335030   5.7123308
  43.6489754  63.0594292   5.3604212  42.8238220  63.3150482   6.6033077
  52.8879738  21.3255634  13.6544552  52.9972916  21.7681332  14.4961281
  51.9994240  20.9708290  13.6840019   9.2040405  20.8351307  59.0683670
   9.3824387  21.1297131  58.1752663   8.2769709  21.0307465  59.2044067
  46.4515610  23.4761429  13.8132133  47.3822556  23.5594292  14.0208330
  46.1262436  22.8206482  14.4302416  71.3526840   5.9366145   1.6647761
  71.8853760   6.7318349   1.6743891  71.7864761   5.3502398   2.2846332
  61.1045494  31.4035149  38.6029091  60.6075020  30.7299805  39.0671577
  60.4387970  32.0035820  38.2668724  52.1518135  21.2637520  69.9924164
  52.4147224  21.9818115  69.4166565  51.6680489  20.6652184  69.4232407
  68.1011581  41.9068527  51.7453728  68.7250290  41.6001091  52.4033394
  67.3346176  42.1783066  52.2503090  64.7178421   3.0032585  61.0247192
  65.1267548   2.5366843  60.2957954  65.3325348   3.7065551  61.2339020
  47.7556572  60.7079735  45.1906204  47.8952713  60.5593948  44.2553864
  48.4877357  61.2643166  45.4566612   3.5915437  60.6339569  46.9280586
   4.1134133  59.9559631  46.4988670   3.7926090  61.4341087  46.4427071
  85.5668411  57.4604950  79.0836334  85.4525757  58.0265465  78.3202438
  86.0391998  58.0027580  79.7153397  79.8829117  34.0011024  84.8257599
  79.0975876  33.5853233  84.4699173  79.6369324  34.9190331  84.9403534
   1.0697455  62.1583900  66.2029266   0.2385539  62.4739342  66.5575867
   1.7369097  62.6437721  66.6882401  54.8214378  35.6725693  75.4783630
  54.8218880  36.2293396  76.2569809  54.6638069  36.2761688  74.7523804
  78.7488022   5.4918184  34.5396690  79.2372131   6.0942755  33.9786568
  79.3888702   4.8256369  34.7901649   0.6765512  37.6567268  72.5422287
  -0.2602078  37.4721870  72.4739685   1.0015244  37.5812988  71.6450500
  47.8302231  20.6051025  66.4601364  47.9714088  20.0062618  67.1934128
  48.6385727  20.5539417  65.9500580  49.2371864  30.2720966   2.8247147
  48.4132195  30.0300674   2.4019432  49.6121826  29.4397964   3.1126175
  36.1561737  65.3931656  63.6347847  35.4570351  65.7375793  63.0790710
  36.8504066  66.0499573  63.5809898  19.3597717  68.7009811  66.9200897
  18.6855125  69.2264252  66.4893799  19.0091858  68.5315552  67.7945099
  73.8405914  60.0339394  84.3793030  74.3228531  59.2085342  84.4279327
  73.0631714  59.8892441  84.9186707  52.1498146   8.4989910  87.9198914
  51.6874695   7.7543344  87.5352402  52.9826317   8.1348038  88.2199249
  80.7838364  56.1792183   4.4903650  81.1319504  57.0607147   4.3561463
  81.5396805  55.6031990   4.3757787  52.2170448  69.2202606  28.9827309
  51.8107643  70.0380325  28.6956463  53.0335464  69.1710434  28.4856014
   9.6972971  68.6871948   0.3886358   8.9658022  68.4479065  -0.1804752
   9.2828512  69.0461807   1.1732336  51.0867920  29.4725323  16.6234665
  50.8069649  29.9745102  15.8579941  50.6640472  28.6201744  16.5185509
  86.4129028  50.9369774   4.2441711  85.7973862  50.2857819   3.9075494
  87.0974121  50.4215126   4.6707592  54.2446175  39.7840080  30.8046036
  53.7856827  40.6061516  30.9769096  54.2792664  39.7245865  29.8498783
  14.0900068  23.2367935   5.0363245  14.7059927  23.9075851   4.7416530
  13.2830639  23.7172775   5.2212791  28.4559345  40.4425468  18.5570354
  28.6263275  39.6022034  18.9824963  27.7998981  40.8635864  19.1125317
  56.2281189  56.2818222  57.8120995  56.6461678  55.4598351  58.0686264
  56.6887131  56.5464859  57.0158348  57.8037605  31.1069126  37.9637527
  57.1507797  31.7611256  38.2124596  58.0464020  31.3393898  37.0674782
  16.8604412   4.1602159  53.3111267  16.3753815   4.0965714  52.4883881
  16.4561405   3.5041585  53.8788948  67.7956009  64.3151093  56.7198105
  67.1951523  63.7073822  56.2881126  67.2430573  65.0508499  56.9836655
  56.2969437   3.0857708  37.9271126  57.0142555   3.0430443  38.5594635
  56.7243919   3.2790499  37.0927467  32.2647552   0.0133012  82.8816681
  32.6487007   0.7459000  83.3634567  31.7993469   0.4236152  82.1527863
  62.9408875  44.4896622  65.3014450  63.7656898  44.3532410  64.8352661
  62.2992630  44.6531029  64.6101837  15.4668694  17.0604305  14.0306110
  15.3643608  17.8456078  14.5684013  14.5768127  16.7243538  13.9253321
  73.9739456  38.1890755  36.2694244  74.0124207  39.0339508  36.7176857
  73.7811890  38.4099503  35.3582230  33.7513809  51.2898216  74.2485657
  33.0842857  50.9861794  74.8642044  34.5811691  51.1411362  74.7019730
   7.1205611  19.8711548  48.3110046   7.8046598  19.6022129  47.6978912
   6.5585957  20.4551640  47.8017311  85.1710663  43.1119385   1.1969827
  84.2892380  43.1981964   1.5591465  85.2656631  43.8657761   0.6147346
  62.0947113   0.4741364  25.0444126  61.6180115   0.9195260  25.7448521
  63.0160942   0.5613963  25.2886848  66.1378021  29.2410660  79.8220673
  66.7548447  29.8717079  79.4508743  65.3134842  29.7230854  79.8883514
  23.8380356  27.9328289  55.4452629  24.2793198  28.7813568  55.4839897
  24.4200516  27.3383560  55.9186478  80.9736710  45.2296295  48.0001602
  81.2169418  46.1513786  47.9139671  81.4745178  44.9192657  48.7545204
  78.3870087   0.7031538  69.5315247  77.9956207   1.5738530  69.6017151
  77.6817474   0.1498918  69.1957550  24.6759815  49.4905014  60.4659615
  23.9675674  49.5070801  61.1094704  24.4794159  50.2170486  59.8745842
  11.9333858  10.9481325  85.8784256  11.2998457  11.6656122  85.8694153
  12.7264442  11.3335533  86.2509079  54.4412956  62.1126785  83.7176437
  53.6237755  61.6150017  83.7322922  54.8619843  61.8581161  82.8963928
  36.5600586  59.8801804  26.5019341  36.3259201  59.6354141  25.6066704
  36.9323387  60.7582588  26.4205856  11.7871141  34.6795578  53.1718636
  12.3691254  35.3524361  53.5250320  12.2358742  34.3619461  52.3883018
  82.4519882  45.7996445  82.6616974  83.3706436  45.6993103  82.9111710
  81.9799194  45.8313255  83.4937897  65.7846069  68.6512604   4.6214495
  66.2461929  67.8146286   4.6781645  65.9410019  69.0689850   5.4683700
  37.0940056   1.1360586  47.8225861  36.6786003   1.0654000  46.9631195
  38.0095673   0.9049795  47.6658134  40.4605141  57.4507942  55.1950912
  41.1643105  57.4724045  55.8435020  40.6996193  56.7353630  54.6058388
  59.6194229  21.8409939  42.7759743  59.4742699  21.2439022  43.5098991
  58.9038658  21.6525536  42.1687698  29.3111324  65.4769440   5.3198295
  28.5837688  66.0654526   5.5218897  29.7865753  65.3912811   6.1461759
   1.0306654  59.4129105  74.5806274   0.1422740  59.3916702  74.2248993
   1.5756282  59.6978645  73.8471069  63.9067001  16.6226101  38.4044075
  64.6401749  16.5326843  39.0128098  64.2942581  16.4851475  37.5400352
  84.0902100  61.5284958  23.7870235  84.6899948  61.7759628  24.4907627
  83.6687775  62.3491707  23.5318394  25.0581036   0.7945011  88.4815369
  25.9242744   0.3973504  88.3907089  24.4566689   0.1422075  88.1223450
  44.8157501  66.3051376  68.2070618  44.2833939  66.1423264  67.4283905
  45.2437744  67.1435394  68.0335541  53.6646996  30.5097294  41.6480827
  54.2052116  31.0814667  41.1029282  54.2409134  29.7796135  41.8742180
  49.9304352  10.6199293  75.8581161  49.9694366  10.9908352  76.7396698
  50.8181076  10.3024445  75.6923523  32.0383339   0.8713179  36.5887718
  31.6762218   1.5468752  37.1621208  32.0789719   0.0880502  37.1374702
  82.8377304  49.9739227  59.1506882  82.5931778  49.9030876  60.0734062
  83.7305908  49.6310425  59.1125412  66.9962006  22.0262280  48.0615501
  66.1961136  22.5509415  48.0894089  66.7850494  21.2405624  48.5659065
  60.5021210  52.7673836  30.1597786  61.1802330  53.2495956  30.6329250
  59.7127914  52.8828850  30.6887856  57.6008492  43.5190659  70.3733902
  57.3592033  43.4283676  69.4516449  56.8475342  43.1751251  70.8534470
  19.1333103  65.7403412   6.1839066  19.8581238  65.8760223   6.7942076
  18.3466854  65.8468475   6.7187996  42.8214493  59.3762703  67.2598114
  43.0274620  58.4825783  67.5338516  42.1494141  59.6669388  67.8763428
  42.9841194   2.7431424   0.0091264  43.4716339   3.3156686   0.6013908
  42.2591362   3.2840171  -0.3040543  44.9483719  49.7580986  17.6821823
  44.7941513  50.5669365  17.1940918  44.0934715  49.3284378  17.7100029
  72.3736725  17.0321789  86.6276245  72.5629120  17.7420940  87.2411728
  72.8754349  17.2535076  85.8431015   3.4180150  12.6004753  47.2976418
   3.9684584  13.0733356  47.9218597   2.5355639  12.6596165  47.6637230
  40.6416893  60.7736282  77.5595779  41.2160187  60.4956512  78.2730942
  40.0898514  60.0111504  77.3854065  18.1523151  63.2121048  27.7674732
  17.8388329  64.0865021  27.9985275  19.1031055  63.3061600  27.7092857
  63.8810349  58.4965897   2.2697639  64.0259857  58.8788452   3.1352713
  63.0646477  58.8936157   1.9662565  70.7918015  55.5914993  10.7109108
  70.0785294  56.1936798  10.4991121  71.5310516  56.1611862  10.9235086
  85.9094925  25.1993885  80.9455032  85.0332794  25.5245399  81.1522903
  86.2913208  25.8776073  80.3883133  10.5526600  50.5263214   8.1623955
  10.1647806  49.6514015   8.1796093  11.3645592  50.4382401   8.6616898
  67.2401962  60.1179733  18.1384983  67.4158249  60.0473289  17.2002048
  67.6229782  59.3251419  18.5141754   1.2519250   9.3859806  15.5668955
   1.7311689   8.9862776  16.2927017   0.6021600   8.7286263  15.3180532
  80.1095352  38.1078911  49.2844658  80.9628830  37.9392967  48.8849564
  79.4762650  37.8465614  48.6159477   3.5724988  48.3635635  38.4428635
   2.7275875  48.3315353  37.9941635   3.9356611  49.2177582  38.2089882
  67.8929749  40.5312653  66.4949417  68.8100662  40.4422798  66.7542801
  67.9267426  40.9521980  65.6359253  18.2771721  56.6271324  11.0618200
  18.5854359  55.7209587  11.0691986  18.8525391  57.0707855  10.4386368
  62.0038452  28.9533558  55.2763748  62.3325958  29.8500347  55.2121811
  61.6538773  28.8896065  56.1650200  55.7728424  15.4305687  79.3607635
  56.1069641  16.1959877  79.8284454  55.8912773  15.6447678  78.4353867
  52.3951378  23.7478771  61.2125893  52.8660660  23.0150776  61.6094055
  51.6480980  23.3423309  60.7724800  51.6527290  21.4963379  36.9676666
  52.2713661  21.2915859  36.2665253  51.9913025  22.3020496  37.3580894
  61.5499802  53.9606972  59.5719719  62.0253487  53.2255363  59.1849403
  61.8233795  54.7201767  59.0575066  76.4237137  69.1320801  12.2038488
  75.9776535  69.9776001  12.1552639  75.9540558  68.6523666  12.8861456
  57.2224388  64.9167328  48.1221352  56.5708771  64.3281250  48.5032425
  56.7090034  65.5489960  47.6192894  47.1653748  12.4786587  77.6818542
  46.4039345  12.5999813  77.1146545  46.8080902  12.0984364  78.4843597
  25.9056511  13.8789101  79.9739380  26.0902596  13.9245462  79.0358124
  26.7615452  13.7420979  80.3800888  63.1303329  50.1551590  84.2417145
  62.8406181  49.7337570  83.4325638  63.8669434  50.7051086  83.9748917
  60.0029488  62.5055199  18.8459454  59.6099167  61.7501793  19.2832317
  60.8596840  62.1941719  18.5538902  40.2537537  46.3922005  17.2525558
  40.9347839  46.1926689  17.8949070  39.4355927  46.3389282  17.7465248
  58.9503250  30.2530079   3.6038074  58.3682213  29.7931194   4.2086983
  59.3850861  30.9124279   4.1445255  68.5351410  51.3493004  14.5761824
  69.3440018  51.4419937  15.0795650  67.9679489  52.0473976  14.9035778
   8.5639973  34.8632812  10.0360003   7.8789554  34.5706520  10.6370974
   8.5083036  34.2580795   9.2964993   6.9123073  12.8179369  65.6407242
   6.5061517  12.8914499  64.7770844   7.7203836  12.3292084  65.4845581
   0.1086328  46.3887024  74.8871613  -0.5412977  46.9684372  74.4900055
   0.9361776  46.6399841  74.4769669  61.9773827  43.6954117  81.9928894
  61.4913521  44.4080544  81.5779800  62.5797043  44.1342430  82.5936127
  59.2068787  62.6205139  32.7676506  59.7665710  61.8748360  32.5509911
  59.7895317  63.3785744  32.7219505  20.4070053   2.2304909  76.5270462
  21.3418713   2.2490809  76.7317734  20.2308674   3.0852697  76.1339035
  14.7172194  59.0101776  26.4074974  14.8543682  58.9016800  25.4664078
  15.4305878  59.5829506  26.6890392  85.0236359  23.4385471  53.7059288
  85.6235199  23.7625046  53.0340462  85.2301331  23.9588432  54.4823837
  57.9157295  60.4297028  11.4542341  58.7666359  60.6364250  11.0676403
  57.5065575  59.8329620  10.8275671  44.0647659  46.7393379  85.2897186
  43.5705070  46.1128464  84.7610855  44.9575882  46.6889954  84.9482956
  -0.3188715  50.3573647  84.2263870   0.1926955  50.6573639  83.4750366
   0.2481605  50.5162277  84.9810181  66.2679291   9.9494181  81.1565552
  67.2016068   9.9783936  81.3654327  65.9831543   9.0845938  81.4518738
   2.3937409  27.3194752  68.6888657   1.7014809  27.5160313  68.0577011
   2.2522950  27.9428349  69.4013596   6.1805148  58.9940529  33.4425125
   6.9307337  58.9263802  32.8519020   5.6880360  58.1861382  33.2976952
   7.7388096  18.1315994   7.7971816   7.5662403  19.0395565   8.0463114
   7.4480886  17.6172104   8.5502539  21.3737068  27.9777622   5.0395064
  22.1139240  27.5050468   4.6589122  20.9341450  28.3783245   4.2894621
  57.8139496  67.9243546  27.1937141  58.2640152  67.0800095  27.2213554
  57.1144447  67.8020020  26.5518761   1.8360993  27.6406326   5.3359151
   1.4076582  27.4480896   4.5018902   1.7434461  26.8349667   5.8443918
  67.1150970  56.5141449  87.6015625  67.2205658  55.5864906  87.8126526
  67.9496689  56.7662506  87.2063828  84.1714706  34.4295311  12.1921110
  84.4699554  35.3360977  12.1194811  83.2223587  34.4974594  12.2960119
  82.3355560  13.9868050  26.9461288  81.6995010  14.0290670  26.2320690
  82.8925323  14.7543983  26.8164902  28.4726086  49.0576859  69.6626816
  28.9938316  48.2704163  69.8200531  27.8421822  49.0754471  70.3827362
  51.9264412  61.3353653  81.1618195  51.0176697  61.4831657  81.4235764
  52.3096771  60.8484726  81.8914108  43.6760292   4.8954897  85.4374008
  43.4272690   5.0550117  86.3478394  42.9650307   4.3601260  85.0851212
   2.1244469  44.5330009   0.7440968   1.8654441  43.6338501   0.9457894
   2.9643853  44.4449654   0.2935580  84.3013611  37.9104500  34.2147484
  83.8390884  37.6423874  35.0088959  84.5163193  38.8314934  34.3620796
  12.6644135  59.2832184  51.5615158  12.8697863  60.0862808  51.0828285
  12.0508366  59.5602493  52.2419662  39.4163094  49.2459106  25.7803249
  38.5284424  49.4649696  26.0630627  39.6039925  48.4097252  26.2067032
   5.7310977  71.6041870  34.6804276   6.3507595  70.9947281  35.0814362
   5.9633613  71.6055145  33.7518349  42.3154068  44.5027161  26.0625076
  41.5848045  43.9326363  25.8227806  42.6943741  44.0923271  26.8398075
  78.7400284  55.9735565  26.3449593  79.4608841  55.4841919  26.7413464
  78.5678864  56.6865921  26.9599209  32.2046318  70.7024994   5.6073041
  32.3911324  70.7040863   4.6684504  31.6045589  71.4374924   5.7335348
  47.3230476   2.3624680  66.0691833  46.7434235   2.9982631  65.6496277
  47.0219193   1.5135803  65.7452393  49.6183319  10.0247355   4.3873391
  50.2903786   9.3468838   4.3159404  50.0346298  10.7223673   4.8935394
  42.3579216  36.5813675  27.2140026  41.4225197  36.7202759  27.3621826
  42.4306259  36.4248466  26.2724895  30.8624153  49.4397659   0.0784734
  30.8589573  48.5506554   0.4330148  30.4034176  49.9618073   0.7365206
  38.3143044  53.1408577  62.6393127  38.7812233  52.3093033  62.5572357
  38.9808807  53.8072891  62.4726524  30.7048702   9.1712761  -0.0367584
  30.2024746   8.4373331  -0.3905338  31.0983334   8.8276844   0.7653406
  55.8376694  65.1485138  53.5589409  56.6547432  65.5328064  53.8766594
  55.3717690  65.8789749  53.1519928  80.6475601  26.9966698  27.2852211
  79.8022232  27.4410400  27.3498173  80.4351425  26.1252422  26.9509754
  59.4330254  45.2033882   3.9792745  60.1939850  44.6314583   3.8789141
  58.8019714  44.6782532   4.4714479  56.6394730  69.8868179  54.8248138
  56.4358978  69.1414490  54.2598228  57.2318687  70.4281311  54.3030014
  82.7584763   7.9257874  38.2269020  83.5112610   7.7447515  38.7897339
  82.9663467   7.4888492  37.4010048  37.8704605  53.4258423  19.4088593
  38.8088760  53.4275284  19.5975418  37.7835541  53.9627914  18.6212292
  67.3420334  23.9207420  24.2704315  66.4954987  24.1076393  23.8646278
  67.1256104  23.4159241  25.0543652  32.3367424  70.7193909  49.5087051
  32.6571350  71.4046555  48.9221916  33.1258583  70.3710022  49.9236107
  82.1220932   0.1788537  59.1470528  82.3893051   1.0962412  59.0902138
  82.8736801  -0.2656740  59.5391617  85.1603241  24.8379230   8.3260450
  86.0086670  25.2797527   8.3625460  84.6247787  25.2936649   8.9754477
  61.6528664  49.7445488  69.7026291  61.5516968  50.6550598  69.9800568
  62.5973663  49.6295662  69.5980682  54.3475342  25.7811775  76.4044647
  53.8885078  26.1065159  75.6300735  55.2356300  25.5987816  76.0974655
  76.7291412  66.6058044  16.7095165  75.7931290  66.4137497  16.6526890
  76.7774353  67.5617447  16.7178249  58.1789436  57.4760780  24.7353172
  58.9730034  56.9887657  24.5157089  57.4654045  56.9392357  24.3905048
  70.6397476  59.3690720  88.1679764  70.2853241  59.2815094  89.0528183
  69.9602737  59.8374977  87.6830750  18.1370277  62.4205055  63.6265335
  17.5285778  62.9265251  63.0880470  17.8036308  61.5241318  63.5866737
  37.4185486  70.1601105  82.3212280  37.0309525  69.6637192  83.0420609
  37.7222404  69.4921875  81.7065125  62.2609634  51.7453232  88.6049576
  62.2262917  51.0904732  87.9076767  62.9025841  52.3866386  88.2995529
  31.3759079  57.4162445  37.4652367  30.6675377  56.7811127  37.3601036
  32.0718689  57.0959854  36.8913879  39.7866173  20.5817661  87.9455872
  39.8159447  20.6785107  88.8974380  40.4052963  19.8760357  87.7574005
  19.9722023   6.4825811  12.1771717  19.0893822   6.4924908  12.5469856
  20.3298721   5.6326251  12.4338417  40.4559364  63.0278130  56.3995857
  40.7123528  62.9787865  55.4786758  40.4126930  63.9655724  56.5865746
  23.3565083  11.3524885  89.1958847  22.6314716  11.9692516  89.0951157
  24.1411304  11.8771086  89.0365906  31.8749638  62.3342667  87.5663376
  32.0574646  63.1417313  87.0857925  31.8206310  62.6076012  88.4820709
  27.0064659  60.7959290  57.8210411  27.7641582  60.5135078  57.3088188
  27.2799377  60.6890221  58.7320938  34.3414230   1.3221524  13.5740089
  33.7764664   1.7159936  12.9092178  35.1972389   1.7263364  13.4310274
  68.9214096   1.1771609   4.2462854  69.7595367   1.1261452   4.7058206
  68.2791367   1.3405696   4.9369473  34.2155418  60.4722519  16.3815327
  34.4853668  60.5412445  17.2973194  33.4822578  59.8571243  16.3935852
  72.6723709   2.1976542  86.8851776  71.9036789   1.6497638  86.7265778
  72.9434052   1.9778261  87.7764969   5.9128222   9.6584768  22.4661331
   6.4568639  10.2958374  22.9287586   6.5387259   9.0921316  22.0147705
  62.9113541  17.5654526   0.1559060  63.6866798  17.1052399   0.4773197
  63.2582207  18.2410641  -0.4267323  30.3129539  26.7199783  64.9294815
  30.9566422  26.5505562  64.2415924  30.1311054  25.8584099  65.3047943
  69.8165283   8.1813536  24.7850437  70.1873169   8.0030499  25.6493092
  70.5116577   8.6438961  24.3169785  72.6987534  12.3993673  84.7779465
  72.7177277  12.9688854  85.5470505  72.7428360  11.5125370  85.1354675
  51.3100471  43.0059204  41.7114143  51.5087852  43.3371964  42.5871925
  51.4242554  42.0582008  41.7822075  37.4816971  67.5718384  63.0836792
  37.8961945  67.3602982  62.2472115  38.2096367  67.8071823  63.6589622
  39.3735619  47.2713165  77.8615723  39.4402466  47.5581856  78.7723389
  38.5595627  46.7688370  77.8277206  12.2641134  18.1531334  87.0919266
  13.1183472  17.7283001  87.1695938  12.4680319  19.0799999  86.9671555
   9.0346832  17.2508068   2.8991287   8.3908548  17.9385738   2.7297425
   9.4256096  17.4903584   3.7393808  84.5123138  14.3937006  22.2239037
  84.3562088  14.2483587  21.2907696  85.2143631  13.7826042  22.4473324
  56.6291008   6.6993175  75.0494080  56.2691002   5.9163113  74.6328354
  56.1386986   7.4240131  74.6613922  52.5375900  22.8799114  58.1397476
  52.7907867  23.6246872  58.6851234  52.5440598  23.2239532  57.2465401
  17.2438030  58.4347992  32.4723854  18.1935501  58.4538956  32.3547211
  16.9331570  59.2317467  32.0427246  77.9945374  61.8599205  66.6552734
  77.0757980  62.1169205  66.5771790  78.3316956  61.9012299  65.7603760
  44.3793907  41.6522408  74.6615372  44.1216316  40.8540077  75.1226425
  43.6385307  42.2467690  74.7794113   1.9058739  62.1998672   8.5001068
   1.6957233  61.8998489   9.3844452   2.5910244  61.6021461   8.2008934
  69.5612183  23.7357426  27.9373970  70.0008774  23.7230377  28.7875557
  68.7252808  23.2963352  28.0934696  48.2299690  21.7744083  22.0389576
  48.9541397  21.2906094  21.6417828  47.5896263  21.1010876  22.2688198
  39.4876137   2.1516166  83.7698822  38.7369881   2.3312800  83.2037506
  39.1112328   1.7201165  84.5369415  40.9443512  33.6200676  63.8371696
  41.0876045  33.4840240  64.7737579  41.7459106  33.2999992  63.4232979
   9.0394945  64.9522552  77.7774887   8.3731413  64.4163055  77.3474121
   9.0826445  64.6099091  78.6703262  73.7181702  59.4590530  81.0476837
  74.6292038  59.5043373  81.3378677  73.3832779  60.3473206  81.1704102
  61.8659248  68.8043060  16.5973034  61.8127098  68.9676590  17.5389595
  61.0580177  68.3348541  16.3896198  75.5560226  64.0878677  19.1450920
  76.5096207  64.1356125  19.0773315  75.2447662  64.8793335  18.7058506
  33.6450806  41.6206779  83.5684204  34.2615585  40.9339256  83.8225098
  33.3093491  41.3383636  82.7176514  48.5671196  41.5049133  27.9228306
  48.2957954  41.8065643  27.0558720  49.4982224  41.3049927  27.8263111
  79.2299118  46.3222122  60.8713722  78.3518143  45.9533958  60.7756538
  79.2592392  47.0385857  60.2371941  81.1641006  41.7265549  28.8083458
  80.6198044  41.0603752  29.2280846  81.6329956  41.2541656  28.1204376
  42.0605278  10.0283318  87.9266129  42.6607475   9.6235514  88.5528030
  42.5044441  10.8313942  87.6540985  76.9543991  45.8934441  39.2888680
  76.2286072  45.2913361  39.4529724  77.2270584  46.1828499  40.1595726
   6.1289353  19.2969418  65.1350174   6.2591801  20.2300167  64.9657898
   6.8755493  19.0456333  65.6787491   7.8104348  38.9403687  73.3734970
   6.8838120  38.8386650  73.1561050   8.1775150  38.0619240  73.2743912
  18.8509636  66.6002579  40.8786163  19.7819424  66.8049927  40.7914886
  18.7008514  65.8951111  40.2489586  11.0139465  32.8320351  55.0217323
  10.8247528  32.0339813  54.5282249  11.4294729  33.4141808  54.3855896
   7.3616962  56.7040253  66.3569260   7.2104650  55.7757912  66.1787643
   7.8401623  57.0201530  65.5905304  58.1987343  54.4828453   3.1227624
  58.2818069  53.7425652   2.5216694  58.4382706  54.1252136   3.9777200
  81.5239258  56.9190331  82.8413162  80.9414062  56.7920418  82.0924606
  82.3831635  57.0806503  82.4516678  84.5018921  29.6277447  25.9886360
  85.2298965  29.0065193  25.9707241  83.7959671  29.1830578  25.5194244
  53.9796181   1.6210461  21.5725174  53.1612473   1.5742066  21.0782413
  54.2206459   0.7071396  21.7238865  41.2771606   1.9213836  62.2106514
  41.6637344   2.0295033  63.0796165  40.5010147   2.4814641  62.2224121
  25.2017956  10.4586535   3.1422031  25.0403461  11.3943682   3.2630477
  25.5244751  10.1595325   3.9922836  47.8895988  60.1472092  42.6620827
  48.1615486  59.2299767  42.6311340  47.1390076  60.1945953  42.0699692
  24.5563831   9.4083204  87.7876587  24.4471664   8.4889488  88.0306778
  24.1057606   9.8938637  88.4786148  13.6248703   1.0387985  18.8805161
  13.1543083   1.2650175  18.0782509  13.0134363   0.4882459  19.3696728
  54.4965477  63.1186676  32.7944870  55.0375786  62.4102898  32.4456100
  55.1057396  63.8464890  32.9185524  31.2700310  46.3702354   4.7831087
  30.8071194  47.0539818   5.2672982  31.9771786  46.0991478   5.3685031
  71.0257492  47.5294456   5.7089510  71.4559326  48.1111870   6.3356481
  70.3580399  48.0757828   5.2943263  43.2000427   2.7830567   8.7252512
  44.0712128   2.5900147   9.0717030  43.3141022   2.7797716   7.7748766
  44.8473434  61.3964310  69.2054520  45.4964981  60.9452629  68.6657486
  45.1732979  62.2939606  69.2720032  86.8555832  27.0476322  34.7081833
  87.1279984  27.0785484  33.7910843  86.0579910  27.5759525  34.7390594
  82.6997757  56.3211441   7.0533853  82.3757858  56.9728813   6.4316969
  82.6046066  56.7386627   7.9094539  74.8113632  25.2460766  19.9123745
  75.3693924  25.0397415  19.1625290  75.3587418  25.7942276  20.4746361
  15.9314852  43.4805832  66.1005249  15.3841562  42.7469063  66.3804932
  16.8098240  43.2546234  66.4066238  27.8472061  67.8623123  15.2489510
  27.9599056  67.3237610  14.4656916  28.7276649  67.9370041  15.6169796
  66.2858887  23.9761944  67.0802917  65.7127457  23.4248943  67.6130219
  66.7094269  23.3671722  66.4753647  71.0735931  58.8285904  31.8702755
  70.8387680  59.1973267  31.0187359  70.3265533  58.2791977  32.1076164
  22.4890900  57.4242783   8.1364603  22.5272541  58.0722504   7.4329638
  23.3997383  57.1609840   8.2692327  33.0190926  53.9672165  65.0247803
  33.8068237  54.3566322  65.4043503  33.0018272  53.0752640  65.3717041
   0.6545817  24.0764542   2.3384731   0.1903321  23.9389420   3.1641817
  -0.0381577  24.2410278   1.6987391  67.6308594  20.7694626  24.0018291
  67.3930969  20.4334888  23.1376400  68.1275635  21.5673084  23.8202801
  33.7450790  60.8586998  75.3844910  33.7877045  60.0240746  74.9177856
  33.7813873  61.5210953  74.6944580  68.2652817  19.3564682  62.2313004
  69.1900711  19.4342346  62.4656868  68.2475739  19.4795036  61.2822037
  65.3516846  47.5385284  16.0947685  66.1154404  48.0814667  15.8995028
  64.6342392  47.9531860  15.6156397  23.6196346  61.2939148   9.9569321
  24.0302982  61.8456001  10.6226864  23.5117435  60.4438553  10.3835354
  81.2093048  56.7947731  54.0071449  81.2496872  56.0166893  54.5631866
  80.3157349  57.1204185  54.1154175  51.5444870  38.5416145  11.9001989
  51.6515007  39.4915199  11.9498501  52.4278030  38.2090874  11.7407808
  10.2444220  36.1474953  24.6344967   9.5115871  35.9880714  25.2292805
   9.8377848  36.4977531  23.8419075  63.8946228   9.8351240  58.2972298
  63.3027534  10.1249170  58.9914551  63.7819824   8.8850384  58.2675552
  11.1597233  60.6692467  77.5474319  10.5196476  60.3458595  78.1814346
  10.8796558  61.5651741  77.3600616  57.6063499  45.4613228  68.0313034
  58.5363197  45.3403130  67.8396225  57.2450638  44.5749283  68.0341110
  28.9078751  71.5665283  42.9905548  28.2269535  70.9042435  42.8724136
  28.9691238  71.6805420  43.9389610  51.0275879  65.2146606  28.8219700
  51.5143280  64.6775284  29.4471111  51.6222839  65.3153534  28.0787144
   8.2917013  14.2418966  25.5484314   8.9170122  13.7289352  26.0603790
   8.2880516  15.1025248  25.9674015  75.0623245   7.0448542  14.1222048
  74.4528503   7.3893871  14.7749453  75.9266663   7.1608796  14.5167809
  25.0831776   1.0358517  30.4511623  25.1959095   1.8131679  30.9982471
  24.6267891   0.4107313  31.0143375  76.8662949  24.1584396  29.7255249
  76.9228516  24.2102242  30.6796474  76.7622452  23.2247620  29.5420818
   8.7232857   0.9346327  87.8191071   8.1303387   1.1947807  87.1141434
   8.2340775   1.1141306  88.6220322  23.5477543  53.6803703   1.1589931
  23.8809223  53.6628151   2.0561681  22.6205540  53.8991585   1.2520562
  60.5774231  54.3568039  10.5070324  61.2546082  54.2377892   9.8410835
  60.5154266  55.3054390  10.6187162  13.2194176  41.5415268  52.6789093
  12.3498383  41.5942039  52.2823105  13.7566662  42.1386757  52.1583214
  39.1140404   3.0846467  18.1017532  39.1325722   2.8090754  19.0182419
  38.6711769   3.9331207  18.1156788  74.1208496  43.1946373  67.5071716
  74.2467575  43.4290466  68.4266434  74.2144318  44.0215454  67.0342102
   8.2015467  44.5183983  79.7468185   8.9275885  44.0591927  80.1689835
   7.8662219  43.8950577  79.1024246  64.3833847  64.6917419  20.5867252
  63.5803947  64.3229599  20.2187099  64.6021347  64.1103592  21.3149929
  67.5494690   3.4359837  47.7128830  68.4275360   3.0552344  47.7293510
  67.6294327   4.2444124  48.2191238  40.0675964  47.1825905  27.2679482
  40.9907761  47.3071823  27.4880562  39.6773872  46.8249054  28.0654640
  52.3126373  10.3879566   5.3932776  52.1946335   9.4875784   5.6959743
  53.2488365  10.4569979   5.2062178  53.7533760   5.9211912  81.8590698
  53.0245361   6.4877763  81.6060715  53.6983643   5.1777091  81.2587051
  81.3617020  10.5754318  49.0702705  80.7756042  10.4998417  49.8232689
  80.8373489  11.0166273  48.4019661  11.8760548  18.1240807  83.3471909
  12.2297726  18.0125160  82.4647675  12.3161488  17.4525299  83.8683090
   5.6310649  27.8680096  42.9370384   6.2719579  28.5530968  42.7469215
   5.6560316  27.2969418  42.1692543  82.6807861  19.7432671  86.6301956
  82.4496307  20.3078194  87.3678131  83.5999222  19.9440079  86.4537811
  46.1644058  51.1677513  11.8519526  46.1509666  50.2212563  11.7098293
  46.9666367  51.3237534  12.3502674  41.0825043  33.3729973  15.0705976
  41.1005669  32.4253540  14.9368982  40.1985626  33.5529060  15.3907747
  62.3733826   4.6812067  58.4334373  62.3228073   3.7845421  58.7645988
  62.4731331   4.5815997  57.4866753  29.6944065  24.6741123   9.4602213
  29.7150211  25.5745945   9.1362772  30.2265644  24.1823273   8.8347712
   1.3332894  22.7502918  24.0847588   1.6136764  23.3116837  24.8075676
   1.2815741  23.3381157  23.3310871  10.8660107   0.6010507  30.2759743
  10.7507973  -0.3066608  30.5570755  10.2166681   0.7214674  29.5830917
  80.2148590  32.3117828  82.6576080  80.4483337  32.9846153  83.2971497
  80.3175430  32.7421951  81.8088226   9.6268063  37.6176224  38.6020660
   9.5563850  38.4785271  38.1896133   9.2821426  37.7464790  39.4857140
  76.6179352  29.5357666  76.6070328  75.7547302  29.6340790  76.2052231
  76.6082840  30.1429863  77.3469086   1.7158399  29.7312202   2.0886018
   2.2004519  29.4665699   1.3067169   1.3615147  28.9139004   2.4388497
  41.3698006  22.4305916  11.9517841  41.8240013  23.2516403  11.7625380
  40.9989967  22.1626892  11.1109715  74.4606628  16.5515900  16.3339424
  74.5022049  16.6166916  15.3798628  75.1613846  15.9410877  16.5630894
  75.8296127   5.3148732  48.8266945  75.9182281   4.3670831  48.9270630
  75.5744629   5.6249232  49.6955986  10.5436497  15.3981171  59.8012733
  10.3563328  14.4839096  60.0142746  10.6814413  15.3999662  58.8540459
  57.6496849  50.6594810  14.1250801  57.0095749  50.2750244  14.7239857
  57.2601776  51.4930344  13.8610611  56.4375877   0.5331652   3.0143635
  55.5899086   0.6217818   2.5786834  57.0691681   0.4665384   2.2981932
  37.2427979  46.7514229  65.6780930  37.5244217  47.0885887  66.5285263
  37.6056557  45.8665199  65.6391754  13.8764992  49.6530991   0.8553998
  13.9429169  50.6025963   0.7540441  14.6161852  49.3066292   0.3563434
  69.4649582  24.1910934  81.4491272  69.6461411  23.9288883  82.3517075
  69.1111221  23.4028568  81.0371628  25.8226051   0.4052012  11.4218292
  25.2042637   0.6183270  10.7229271  25.4193954  -0.3308489  11.8821373
  78.3975754  12.6486769  30.0721092  79.1472931  12.6007223  30.6652851
  78.7650833  12.4694471  29.2066326  38.1686249  63.9495087  87.1001740
  38.8941612  64.5483627  86.9235611  38.5790176  63.0867310  87.1586990
  27.7580166  70.9993286  50.7078438  27.6241837  70.8249054  51.6394501
  27.8518085  71.9503632  50.6532898   4.4348607  40.6660118  56.8911057
   5.2140737  41.1736870  57.1176567   3.7025220  41.2051697  57.1898079
  48.7901001  70.8906097  65.5046768  49.3407249  70.8782959  64.7218094
  49.4094467  70.9481354  66.2322311  41.8592224  49.2245941  12.9390907
  42.5412979  48.6826477  12.5424805  41.1025620  48.6427498  13.0109167
  82.7847519  32.9436188  21.8562546  83.1666107  33.5527534  21.2242985
  83.4996719  32.3458290  22.0748215  57.2248802  41.6356964  72.9002380
  56.6659927  40.8600807  72.9481659  58.1122208  41.2996979  73.0265808
  42.1791801  33.3948860  86.9880447  42.3147049  34.2071915  87.4759216
  42.6032104  33.5489426  86.1438370  85.9222412   2.7171624  64.8790131
  85.2621460   3.3699129  64.6457214  86.6760635   3.2314882  65.1678848
  53.4537811  58.0725212  21.0745850  52.7080002  57.8619347  21.6364498
  53.2323914  57.6854324  20.2276039  60.2251129  50.8108864  45.4006767
  61.1606750  50.6095581  45.3802338  60.0188370  51.0819130  44.5061226
  50.1836472  24.5798435  21.7548504  50.3467445  24.4277153  20.8239956
  50.6268654  23.8558369  22.1971226  55.3820267  41.9949989  10.9107227
  54.8345642  41.7718773  10.1579065  54.9117393  42.7056580  11.3466396
  49.4420815  24.5342770   8.2711363  49.6567574  25.0113182   9.0727444
  48.4869003  24.4724827   8.2777119  71.1052399   2.1860704  77.1174622
  71.4438171   2.5046291  77.9541855  70.3191681   1.6917332  77.3497467
  61.5976601  43.9870834  22.5756512  61.5163193  44.0298500  23.5284290
  61.0118713  44.6724930  22.2542534  72.5022659  44.6211739  27.5891228
  71.6167603  44.5220032  27.9388027  72.8114319  45.4512939  27.9518166
   4.4133368  47.9708977  33.7629852   4.2213874  48.8934669  33.5949097
   3.5681398  47.5304070  33.6744194   6.2527609  46.1142502  39.3324280
   6.8293757  45.5323105  38.8373566   6.3443308  46.9646034  38.9026070
   8.8164406   0.7318662  24.1420002   8.2224760   0.1776828  24.6482811
   9.3495998   1.1762873  24.8011379  23.8886204  63.9838524  56.1434326
  24.0254669  64.0645523  55.1995087  24.2381897  64.7975922  56.5065613
   4.8654466  18.5341434  34.5332413   4.5115819  17.8087940  35.0479050
   4.2667599  19.2617741  34.7016487  84.0341187   8.1644840  32.2180481
  83.3206711   8.2919283  31.5927620  84.8072891   8.5118303  31.7733097
  76.1157379  45.3409500  53.1343880  76.1594925  45.1115189  52.2061234
  76.2350311  44.5090599  53.5925980  74.4528809  32.6733437   8.0311852
  73.8888779  31.9335938   7.8055553  74.0244675  33.0801849   8.7842941
  64.9436874  45.7255478   0.5408422  64.3224792  45.1769180   1.0197334
  65.0428772  45.2914886  -0.3064966  71.2565308  19.5111828  20.2695560
  71.9686661  19.2054234  20.8313408  70.8834229  20.2565670  20.7401142
  63.9533272  66.8312149  87.4209442  63.2074547  66.6271210  86.8568039
  64.2426834  67.6965637  87.1316910  48.2780151   7.4439445  48.2164459
  48.6816902   6.9043159  48.8962097  47.8868637   8.1762714  48.6928177
  29.9670753  25.0746822   5.3673377  30.1302853  24.3884716   6.0144148
  30.8393936  25.3569717   5.0923748  25.4960785   1.9665154  26.3518124
  25.4278469   2.6778438  26.9886703  24.8935051   1.2968107  26.6752815
  62.1649017  33.4737854  74.8425751  61.2177696  33.3445930  74.8924408
  62.4529762  33.4886742  75.7552795  22.6173286  12.2827539  23.8280010
  22.2877750  13.1655741  23.6599064  22.0208302  11.9256716  24.4859619
  49.2508736  70.7913666  19.4017963  48.3894844  71.1791687  19.2473679
  49.2311707  70.5221176  20.3201370  51.7929420  24.9226665  25.1866016
  51.4793282  25.8173847  25.3183556  51.9768181  24.6009197  26.0691547
  28.8791828  61.0532455  13.0962162  29.0176983  60.5400352  13.8922443
  28.4199390  61.8383942  13.3943186  37.2578545  61.1412697  33.8951149
  36.8914604  61.9897118  34.1443787  36.9694633  60.5438042  34.5851135
  85.1105270  49.7546997  29.6070824  84.4956894  49.1591988  29.1786175
  85.0795975  49.5067863  30.5311031  30.7947979  10.5883150  70.4899368
  30.9986763  11.0578108  71.2987900  30.7131042  11.2752466  69.8283615
  72.3760452  46.4543343  17.2213364  72.0291901  45.7913780  17.8183365
  71.6271515  47.0184975  17.0286961  39.6632423  45.8941231  72.6124420
  38.9692078  45.2471657  72.4859848  39.7411461  46.3307228  71.7641830
   0.0710215  50.1448174  13.8952923   0.4869395  49.9567909  13.0539303
   0.8011937  50.3092499  14.4919853  66.3566742  60.5215263  84.6671600
  66.7849579  60.4215469  85.5173416  65.8970261  59.6929245  84.5316086
  48.7057991  40.2406540  56.8774872  49.3800278  39.6685143  56.5110054
  48.9957085  41.1253929  56.6551857   1.1891605  40.8376045   5.7013278
   1.8854587  40.3983307   5.2130251   1.2006986  41.7381668   5.3771501
  56.8897400  23.3234425  86.8521042  56.0886955  22.8017788  86.8028717
  57.0569305  23.4176750  87.7898712  46.4010773  31.4162369   4.5396514
  45.6385155  31.2858505   3.9759772  46.9925385  31.9608631   4.0202413
  23.7203960  59.0779266  15.4614563  24.3008900  58.7784462  16.1611500
  23.1644878  58.3221970  15.2715359  22.6233902   2.9106619  74.0267181
  22.3446903   2.4496636  74.8179474  23.2023735   3.6034718  74.3445663
  37.7675438  67.8017960  41.0984879  38.5139809  67.3349915  41.4741859
  37.9220734  67.7799530  40.1540947   2.3156111  43.5054321  45.1264839
   1.9841996  43.3549232  46.0117798   2.6035571  42.6425323  44.8286133
  60.9061775   0.2910515  55.1287804  61.5512886   0.7408928  54.5831604
  60.2275162   0.0101669  54.5149765  43.0648270  63.8321190  86.8307571
  44.0155220  63.9387512  86.8631058  42.9203529  62.9082108  87.0350876
  52.9662781  45.8414383  67.4032669  53.6544571  45.4196739  67.9178085
  52.1502838  45.5483856  67.8088531  12.0723104  35.7136421  83.3896103
  12.5938368  35.9532585  84.1556549  12.7126503  35.3919716  82.7550049
  70.8827972  50.6371040   7.8731360  70.9978485  51.0027046   8.7502508
  71.4434204  49.8613434   7.8615727   3.4696188  15.1536779  12.6372147
   3.1786015  15.5856380  11.8341255   2.6610003  14.8656960  13.0608120
  82.3765030  54.1395454  18.4556465  83.0206070  54.7433167  18.8255386
  82.8913345  53.3836174  18.1732464  -0.2105474  31.9572048  34.3264236
   0.5621241  32.5139809  34.2304573  -0.2020140  31.6921272  35.2461510
  51.4013634  47.1195107  29.2598667  52.1736336  47.5853691  28.9392338
  50.6814537  47.7390823  29.1411304  34.5813217  70.8456421  15.6722708
  33.7600899  70.4915466  16.0134811  34.3107185  71.5111465  15.0397253
   6.6300449  55.5282402  18.9392509   6.3273406  55.6966629  19.8315716
   7.4187865  54.9973602  19.0500946  28.7396145  58.3542595  77.4437180
  29.1589870  59.2117577  77.5147858  28.9991684  58.0314789  76.5807724
  76.1028137  10.7580900  67.3590317  76.5707703  10.0088625  66.9903793
  76.2126160  10.6669445  68.3055344  26.7032871  54.4739494  49.1698341
  25.9298306  53.9865913  48.8861389  26.7374096  54.3389473  50.1168518
  37.3765068  66.5163498  46.6298141  37.1023331  66.7637329  45.7467155
  37.8207512  65.6761322  46.5161209  62.9312515  37.6617813  34.8491325
  63.8013954  38.0536308  34.9235077  62.4086571  38.3232460  34.3957100
  55.2824707  10.4665651   7.4356394  55.2783623  10.1808777   6.5220761
  55.3820381  11.4174185   7.3887949  79.0810242  15.3733902  75.6641617
  79.0384598  16.2563038  76.0314255  78.3690186  15.3452644  75.0250244
  71.8317719  13.9538679  87.1615677  71.0809326  13.6213312  87.6534042
  71.6441650  14.8843527  87.0381470  70.5063171  26.5006771  27.2953033
  71.3366013  26.7697163  27.6883507  70.4202805  25.5758801  27.5267754
   0.3491712  22.3146763  51.3955460   0.5289472  21.7710285  52.1625900
  -0.2663663  21.7984867  50.8750687  54.7402687  19.8153858  54.8594704
  55.4129868  19.6031208  55.5064888  55.2041016  20.3131542  54.1861839
   3.9970961  45.3852196  56.8596344   4.2742033  44.9715080  56.0421486
   3.2940681  45.9808311  56.6003456  34.2407722  60.8881798  63.4986877
  35.0116692  61.3790359  63.7833061  33.7254333  60.7679672  64.2963104
  72.9648743   0.2261870  58.5960846  73.3430481   0.8270032  57.9540291
  73.0708618  -0.6407290  58.2043533  51.5958748  14.4081516  23.8399982
  52.0774536  14.9580507  24.4580002  50.7478180  14.8415813  23.7442093
  39.8946533  67.9434128  28.0612392  39.6758194  67.1073303  27.6497574
  40.7567940  68.1651230  27.7094002   3.4612458   0.8519713  50.8027344
   2.6133912   0.8221961  50.3594666   3.9112792   0.0586054  50.5124397
  76.4692764  10.7750692  29.4096565  77.1395493  10.0923719  29.3798580
  76.9183960  11.5357466  29.7782898  62.3931808  28.0338173  29.3627472
  61.7445030  28.1445103  28.6676254  63.1896744  28.4330845  29.0128670
   6.8854737  11.3334179   0.2298713   7.0724645  10.7329359   0.9514580
   6.7492342  12.1811733   0.6529343  45.1720505   4.5768189  78.8615494
  45.2940750   5.5075412  79.0488968  45.9354439   4.3360586  78.3366776
  10.6493969  15.4205332  70.5045471   9.8744411  15.1097393  70.0364838
  11.3590593  15.3502531  69.8660507  80.4450684  44.5546608  34.4524956
  79.6015091  44.6905479  34.0210266  80.2194672  44.3438759  35.3585320
  41.9177666  56.3865509  30.8732948  41.5554924  56.7354736  31.6876926
  41.3539925  56.7446022  30.1875916   9.4386806   9.3953657  27.4597092
  10.3807316   9.2776279  27.5818176   9.1428919   9.8141832  28.2679996
   8.1214495  45.7783966  75.9487228   7.9993229  44.8304825  76.0014038
   8.5167933  46.0159302  76.7874832  80.0107803   8.0571394  38.8041267
  79.8950348   8.5377464  39.6237946  80.9559021   8.0658207  38.6527977
  52.9337692  41.9735565  39.4903145  52.6532822  42.3974648  40.3013992
  52.2371979  41.3470078  39.2942276  21.2160492  62.6065331  64.7965393
  20.9223232  63.4924278  65.0090179  20.6313515  62.3223953  64.0939484
  66.0031128  57.3777962  12.3586502  65.6801758  56.8135834  11.6560812
  65.2619858  57.4611931  12.9586592  70.7810822   4.4492002  70.6853333
  70.3686295   3.8812444  70.0345306  71.4255905   4.9536147  70.1889343
  78.3942642  60.6788254  85.4172745  77.5825729  61.1468277  85.6131287
  78.5836792  60.8991470  84.5052414  59.9206963  46.1111031   6.8260608
  59.5564270  45.9483566   5.9559727  60.0164757  45.2405357   7.2122879
  86.0015945  14.8466139  41.1375275  86.8516006  15.1440897  41.4619293
  85.4685211  15.6407232  41.0993767  44.1981087  68.1119995  22.9982204
  45.1014175  68.1270142  22.6819305  43.9127350  67.2080688  22.8651600
  58.0378799  17.5722332  85.0285797  57.9452858  18.0229397  84.1892242
  58.6019745  16.8229733  84.8371582  17.4016991  68.7293167  26.3239365
  17.0338974  67.8912811  26.0434780  17.1673203  69.3397064  25.6248493
  66.4230423  42.3362160   0.8705206  66.0627518  43.0722122   1.3652254
  66.7114334  41.7158775   1.5400305  45.1879883  33.6795921  81.6946030
  45.9662056  33.7874222  81.1478043  45.2089882  32.7609177  81.9626007
  44.8030205  37.7442589  69.0062561  43.9174995  38.0232849  68.7733917
  45.1351700  37.3175583  68.2164230  16.2507343  64.6225891  78.2341156
  15.7792263  63.8035126  78.3858490  16.9089489  64.6522064  78.9284592
  66.2608643   4.4686484  27.6508808  66.7287903   5.1145844  28.1800728
  65.3447418   4.7428131  27.6930695  77.5237427  32.0039177  44.3170128
  76.7800674  31.5882092  44.7533188  77.1265182  32.6201591  43.7016373
   0.2605099  33.7572823  60.8535614  -0.1989443  34.4756126  60.4186592
   0.8080651  34.1864052  61.5110321  47.2559929  47.0878601  37.5286713
  46.3844566  47.4816551  37.4888992  47.2665939  46.4564857  36.8093071
  43.7709999  50.5864105   0.7916595  43.6155472  50.8583145  -0.1128474
  43.8303566  51.4066353   1.2814927   7.7415433  66.7239532  72.2296753
   7.5484419  67.1914673  73.0423126   8.1262484  67.3876190  71.6571579
  51.3492088  21.3222866  67.4093781  50.7924995  20.9283066  66.7377472
  51.5816193  22.1804352  67.0546951  81.3074265  60.4889679  44.0774422
  80.9876862  61.2727165  44.5243492  81.9715042  60.1313171  44.6667862
   1.5961761  39.0586510  25.0553513   2.3669963  38.5950737  25.3827114
   1.8263794  39.9851456  25.1249809  11.7339048  54.1355057  17.4688301
  12.1589556  53.9650497  16.6282902  11.5667658  53.2663460  17.8333244
  57.4179726  45.2297440  64.2616806  57.8748703  45.2471771  65.1026154
  56.8627396  46.0093498  64.2745667  22.7096672  33.0922966  20.7571259
  23.6490536  33.1361580  20.5786266  22.6414890  32.5651398  21.5531712
  11.3192673  31.8382530  81.0907059  12.1327648  32.2942886  80.8750992
  11.2927818  31.0968285  80.4858704  59.8281937  38.5379066  18.8328724
  60.3366127  38.8761673  19.5699749  60.4816513  38.1587143  18.2451324
  62.4006348  53.2708740  27.3658867  63.3558273  53.2094574  27.3738441
  62.1109657  52.4476318  26.9726982  26.5691166  55.5738716  64.1889801
  27.2221832  56.1520195  63.7946739  26.0766220  56.1393700  64.7838745
  65.9708557   8.0562162  84.0588074  65.0368042   8.1497192  84.2460022
  66.0679779   7.1480684  83.7723312  45.8456306  39.7203484  70.4076538
  46.6981354  39.5474091  70.8071060  45.6088066  38.8961830  69.9823303
  83.4466782  50.1665459   9.4299278  83.0882568  50.3985214   8.5732155
  83.5148163  51.0004883   9.8948307  51.5166283   9.0296192   2.1335123
  51.2977448   8.2667379   1.5984108  52.0093994   8.6710224   2.8716285
   2.4961219   4.6945148  72.0118027   3.0204411   3.9962854  72.4039764
   2.4185011   4.4470582  71.0904083  49.5229797   7.0663042  74.2079086
  50.3215675   7.2650428  73.7190399  48.9491386   6.6448460  73.5681305
  50.3295288   2.3683734  64.9968185  49.6854973   2.4880962  65.6947632
  51.1622162   2.6257811  65.3925476  50.3297882  24.8080311  50.1980515
  50.4113045  25.7477913  50.0354576  51.1807823  24.4472275  49.9493370
  14.3258972  34.2845497  14.5971088  15.1258726  33.8322754  14.3293018
  13.8595276  34.4515381  13.7780571  79.5284500  54.2735672  19.8328419
  80.4319763  54.2316093  19.5196171  79.2509689  53.3590622  19.8868694
   7.1017599  46.4822426  51.2120247   7.6170578  46.6664581  51.9973679
   7.6265769  46.8343925  50.4931450   8.7309780  45.3104706  45.7248955
   8.5492020  45.0507812  46.6280861   9.2365017  46.1192970  45.8053627
  24.0284672  15.6270638  16.0399590  23.6596165  14.7600775  15.8710938
  23.4379196  16.0172272  16.6843643  77.2230301  17.5368958  64.0416794
  76.7336273  16.9711456  64.6388702  76.6084976  17.7249241  63.3322945
  18.7436142  57.6343422  62.4789467  19.0226250  57.1315765  63.2442017
  19.1979408  58.4725075  62.5643768  25.7454643  -0.0049275   3.4457870
  26.3221855   0.7288820   3.2333069  25.0547981   0.0338916   2.7841938
  33.1277122   1.1060022  23.8303165  33.7193489   0.3687031  23.9806023
  32.4869003   1.0471733  24.5389290   6.7259717  71.7207489  49.1163368
   6.1859984  71.5169067  49.8799515   6.3818564  71.1581497  48.4225845
  17.0558128   2.3845057  37.5541496  17.6232014   1.6853123  37.2294502
  17.5501213   3.1882477  37.3932495  17.1995144  34.5768356  82.0626907
  17.5798244  33.8570633  81.5591736  17.3375816  35.3505363  81.5162888
   3.1341534  42.4536972  78.5905991   2.1936772  42.6180191  78.6594009
   3.2678282  42.2067413  77.6755142  84.2024536  23.6725006  46.2210312
  83.6701813  22.8997555  46.4101830  84.2400208  23.7093563  45.2652779
  64.1928024  26.3956337  25.9250488  64.9701996  26.4320107  25.3677635
  64.2485199  27.1836262  26.4655991  55.8238297  28.6289864  42.3365593
  55.5852814  28.0159245  43.0318871  56.3961029  28.1245327  41.7584038
  75.1321259  55.8166466  15.2943602  75.8486557  56.4429436  15.3971672
  75.5671310  54.9793777  15.1331539   5.7007909  55.9454422  29.9271507
   5.1219764  55.4004822  29.3940220   5.9184484  56.6871948  29.3626518
  -0.1503626  39.7045021  46.5203362   0.3419144  39.1135139  45.9505730
   0.4144502  40.4714584  46.6151886  70.0209885  26.7284660  12.4271631
  70.9184875  26.9485149  12.6767778  70.0987320  25.8939209  11.9648628
  78.9331207  71.5073624  54.9535751  79.2845917  71.7369461  55.8137970
  79.6768951  71.1299667  54.4838867  73.2631302  49.9514618  68.3769836
  74.0044250  49.3687515  68.2121658  72.9394684  49.6893806  69.2388382
  77.2223663  65.4636536   8.0904980  77.1114273  64.7231445   8.6868010
  76.5532379  65.3325272   7.4187083   7.4406977   5.1560316  43.7010117
   7.9195790   5.3963466  44.4942017   6.9192939   5.9310579  43.4919548
  33.0406265  70.5385208  87.4930878  32.5554008  69.9198074  88.0389633
  32.5539894  70.5638199  86.6692047  45.8637466  49.4647713  45.3064880
  45.0533905  48.9567337  45.3446388  45.9327583  49.7372551  44.3914909
  32.8086548  24.4395828  77.1268616  32.3222923  23.7622643  76.6568298
  33.6984749  24.3804569  76.7790756  45.9323273  42.5115509  65.8345947
  45.9383698  42.5850716  66.7889481  46.7832146  42.8553314  65.5625000
   1.6122987  68.3283081  25.1242695   1.2448061  67.5163651  24.7750893
   0.8970878  68.7182007  25.6269550  73.0842896  44.7453766   1.4660850
  72.8748627  44.6933823   0.5335250  72.5500259  45.4698677   1.7915133
  83.2125092  53.7746391  75.5672226  82.4525375  53.9523964  75.0130692
  83.9640198  53.8779793  74.9834518  35.3466263  62.7880783   7.3930683
  35.9053841  62.6557732   8.1589146  35.2775650  63.7390175   7.3083787
  58.3517303  43.5821762  51.8211479  57.7937088  44.3477287  51.6841202
  58.2744637  43.0810623  51.0092697   6.0733275  27.0034256  35.8309669
   6.3731852  27.9023571  35.9660187   5.9234204  26.9401054  34.8876991
  32.7771225  56.2825012  58.8550262  32.7177696  55.4264069  59.2790680
  32.2317162  56.8552055  59.3942604  71.0823975  62.3654518  29.6268082
  71.2896729  62.8262444  30.4397926  71.9093781  62.3456383  29.1452026
  74.6656952  18.1314354  68.0610962  75.4857483  18.6075020  67.9302979
  74.8567352  17.5150146  68.7680283  79.0262146  53.3884048  15.4529905
  78.8409653  52.4674759  15.6368513  78.3753967  53.8701744  15.9634438
  37.3239098  21.4188576  73.3432083  37.5355606  21.7898674  74.1998215
  36.9083138  20.5797405  73.5416870  59.2134895   5.0798578  27.1694012
  60.0798073   5.3813229  27.4429760  59.3207817   4.8482313  26.2468662
  83.1627655  61.0913582  29.3555126  83.4806442  61.9727058  29.1595230
  83.9244232  60.6364441  29.7149048  73.9046555  56.4393158  40.2096214
  74.6178284  56.5186768  40.8431244  74.3387146  56.4583893  39.3567047
  14.6492300  32.3822975  76.8441086  14.3911495  32.0870667  75.9709167
  15.2206421  31.6881161  77.1724854  39.3436203  25.2891350  67.1207962
  39.7995605  26.0506325  67.4792252  39.3890953  24.6333427  67.8165665
  64.7283096  27.7077999  16.2187290  64.7306213  27.9703007  17.1392288
  63.8803978  27.2817249  16.0933037  75.5689621  29.7450085  11.4200191
  75.8320847  28.8338699  11.5497217  75.0748520  29.7372398  10.6002464
  75.9081268  38.5259972  55.7424278  75.4821701  39.3777313  55.6457825
  75.6813202  38.0525780  54.9420128  26.3013306  11.6607170  62.8908768
  25.8572369  11.3346167  62.1081467  26.2534523  10.9350605  63.5132637
   4.6850333   6.7139988  87.1939011   5.6065273   6.7174253  86.9349289
   4.6895375   7.0246105  88.0992966  44.5029411  37.2363129  85.2211075
  44.6868477  36.3883629  85.6253357  43.9659843  37.6974258  85.8655319
   0.9211537  67.2148438  11.0785275   1.1390415  67.2938385  12.0072451
  -0.0248293  67.3562088  11.0415850  71.4700775  40.3079758  45.0810738
  71.4319458  39.5685692  45.6877518  70.5829086  40.3739014  44.7277718
  59.5198517  45.4651184  85.9232101  58.5656662  45.5081978  85.9857635
  59.7046547  45.5885925  84.9921722  62.1692238  68.9540558  41.0867767
  61.2569084  68.8649292  41.3624077  62.6617813  68.4250336  41.7142754
  62.2499504   4.0592208  61.2956200  61.7074242   3.2876589  61.1325531
  63.1451378   3.7609053  61.1347427  82.2737808  60.9606934  20.4123554
  81.4887009  61.2006836  19.9201355  81.9431686  60.6598167  21.2587585
  85.8755951  14.0737505  56.1878395  86.0329971  13.4596758  56.9050331
  86.0201569  14.9369135  56.5755043  62.1880531  35.2028961  55.9093552
  62.9153938  35.5375900  56.4339409  61.9980621  35.9053841  55.2875481
  55.4026756  51.7221451  32.7215004  54.8084755  50.9954376  32.9087105
  56.1862526  51.5295830  33.2364388  50.7576523   8.5639963  58.1656837
  50.2797928   9.0630369  58.8281326  50.6099510   9.0444803  57.3510971
  82.2623367  12.8570528  66.5925217  82.6047058  12.2511234  65.9353638
  82.6069489  13.7115412  66.3330536  80.8628387  33.8659363  70.9825897
  80.4353256  34.0189896  71.8252335  81.7538605  34.1943130  71.1029205
  52.5903282   9.9648581  75.2495270  53.0411835   9.6733246  74.4570847
  53.2909050  10.1005583  75.8874969   7.7150807  49.9460182  54.4703903
   7.1605134  49.9905090  53.6914749   7.7086306  50.8369827  54.8202095
  10.7850037  31.6172924  19.0855732  10.0673723  32.2040787  19.3241539
  10.9904299  31.8463516  18.1791725  28.9918957   0.9950159  15.2528439
  28.2440796   1.0921901  14.6633024  29.7532368   1.1984602  14.7095184
  21.9152031  54.1923866  85.6177139  22.3096848  55.0557480  85.4943161
  21.6241283  53.9348183  84.7429733  79.0614700  25.3439140  86.1434784
  79.7525253  25.3418102  86.8058014  79.4975128  25.0560474  85.3414612
  65.9757385  52.8648224  72.4850845  65.8729401  53.7937775  72.6917496
  66.7464981  52.5925293  72.9831009  55.0461388   2.6212432  14.2496414
  54.3061562   3.0852208  14.6412802  54.6982613   2.2607801  13.4339952
  25.6088104   3.7938647  19.6285400  26.3575935   3.3131332  19.9813175
  25.7118034   3.7342107  18.6787701  81.1416397  32.9000435   4.1283584
  80.8420181  32.2345467   3.5090263  81.6114578  33.5355682   3.5883467
  19.5019398  16.3889217  78.6625595  18.9234085  16.2462425  79.4116745
  19.3703384  17.3080540  78.4299393  73.7690582  15.7669134  33.7189102
  72.9272995  16.1818314  33.9073715  74.3000412  15.9383211  34.4966736
  40.3707809  31.5749931  87.9002533  39.6521454  31.9689026  88.3948517
  40.8469543  32.3205910  87.5347748  11.0272894  40.3222122  26.4741039
  11.7881899  40.7704964  26.8432941  10.4074440  41.0246620  26.2776775
  66.3461914  43.7762260  67.7189865  65.8420181  43.1197014  68.1996231
  65.9305267  44.6087990  67.9432144  37.5632057  70.6169968  31.2624779
  38.2115021  69.9265518  31.4011765  37.5993004  71.1433716  32.0611343
  59.1144524  31.2415581  11.1193800  59.4243698  30.3509121  10.9552641
  58.1636086  31.1855717  11.0245752  64.7326736  47.6385956  32.4714508
  65.4393845  46.9932098  32.4550896  63.9307938  47.1162376  32.4522705
  13.7705050  65.4371872  64.3392868  13.5376186  66.3149567  64.0367813
  13.0291538  64.8899765  64.0800781  66.8965225  16.2010231  33.5029068
  67.7837067  15.8625717  33.3821297  67.0109940  17.1473408  33.5901489
  84.7612152  12.7630787  49.4735641  84.4136276  11.8797512  49.5966377
  84.3562851  13.0688725  48.6619263  24.4344330  13.7192116  85.6160202
  24.2347374  12.8000393  85.7934418  23.7397099  14.0050707  85.0228348
  13.8083487  31.2697639   1.6195148  13.8586245  31.8038483   2.4122689
  12.8833532  31.0342941   1.5476198  59.0488434  31.8520565  49.4529343
  58.9912224  31.7859478  48.4997597  59.6774368  32.5573997  49.6065407
  10.6316166  49.7087784  52.4285545   9.9974680  50.0047951  51.7755127
  10.1442137  49.0900345  52.9724541  42.6681671  15.7869911  75.6587830
  42.7554359  15.3008566  76.4787140  43.4988861  16.2536812  75.5674591
  51.7591553  52.2906151  57.5095367  52.6188354  52.7115364  57.5064621
  51.2746468  52.7303963  56.8109131  65.3356400   4.1773415  68.4026108
  65.3081894   4.9330840  68.9894028  64.5546112   4.2693086  67.8569336
  57.3633080  16.4354973  68.5624771  58.0854607  15.8279409  68.7224960
  56.6924858  16.1825333  69.1966934  50.3950920   7.6810961  66.5816879
  50.5418358   7.8799748  67.5064316  49.7815170   6.9464512  66.5891342
   3.2806814  15.4672203  71.7668076   3.5993984  15.3790951  70.8685379
   2.3344760  15.5792742  71.6753082  42.1922989  52.3850937   7.8744178
  42.0192108  52.6065750   8.7894144  42.7899475  51.6386452   7.9175973
  19.3740253  24.1099548  19.4942436  18.6143551  23.8505821  20.0156460
  19.5224342  25.0265541  19.7267361  16.9912815  56.6965637  89.0959244
  17.6456261  56.3859253  89.7216797  16.8527107  55.9552498  88.5064468
  21.2713871  70.9710388  67.6060028  21.8907738  70.7987823  68.3151779
  20.5794830  70.3211670  67.7291870  74.9304962  17.5817585  13.1817217
  74.8231735  18.4895115  13.4658003  75.3735733  17.6463432  12.3357029
  33.7119026  11.0737209  83.5998688  34.4143219  11.3169794  82.9968262
  34.0539207  11.2925415  84.4666901  31.1967945  59.8608818  68.8908386
  31.7382584  60.6101685  68.6426010  30.4146271  59.9391823  68.3446579
   8.2955599  63.0225067  84.6577606   7.5764661  63.3952293  85.1678696
   9.0826168  63.2458267  85.1546478  82.1080170  31.3173313  79.7177048
  81.5814056  30.9293327  79.0188675  82.1659088  30.6314983  80.3829193
  81.5114975  51.3610420  20.8105259  81.7141647  52.2527122  21.0935116
  80.6054077  51.4067307  20.5053215  48.6166153  22.1964474  18.8853245
  48.9052734  21.3948460  19.3216076  49.3376274  22.8125668  19.0148144
  84.4988251  71.0767365  24.4709091  84.7682495  71.0884171  23.5524845
  83.5861282  70.7890854  24.4491291   0.5637934  41.0600548  80.9416351
   0.9829333  40.4427223  80.3420868   1.0613525  41.8710327  80.8368225
  48.8171616  20.0820389  76.6904907  48.1737633  20.0436649  77.3981552
  48.7154312  19.2496834  76.2288971  67.1250610  31.9507408  81.5451736
  66.9877472  31.0641727  81.8788986  66.5641785  32.5017166  82.0911331
  15.7078524  20.9746971  28.6753674  15.5975485  21.6616879  28.0180187
  14.8760166  20.5011578  28.6688232  82.3354187  24.9827061  51.3147964
  82.9229965  24.6299953  50.6465302  82.1458817  24.2373219  51.8846283
  13.9310026  13.2147598  70.8873978  13.2708511  13.7623434  71.3123474
  14.7027035  13.2909307  71.4485626  52.1370468  60.7955284  21.0792770
  51.3228455  61.0250626  20.6313705  52.6448936  60.3180504  20.4232750
  77.4378281  20.5644474  55.7911911  76.8202515  21.2220497  56.1111908
  77.1138535  19.7376671  56.1485596  42.4584618   9.2412348  69.0983505
  42.1685715  10.1422024  69.2413559  42.8570328   8.9830990  69.9294586
  77.5771332   7.8730059  35.0833855  77.4624786   8.3259859  34.2479820
  77.8371811   6.9844518  34.8403244  78.6831741   2.3512738  23.8522072
  78.1101761   3.0943601  24.0412312  79.0145187   2.5224931  22.9706573
   2.9715073  44.4953423   7.1104527   2.8735175  44.1912155   6.2081580
   2.9963953  43.6932259   7.6321993  35.2028923  29.5938091  88.9936981
  34.2854996  29.3285370  88.9284973  35.6599274  29.0311394  88.3685989
  20.2221661  41.2817192  87.5811691  21.0470638  41.7485008  87.7149124
  20.2843742  40.9357300  86.6908569  59.7289505  52.3447495  22.2529316
  59.0727463  52.3150253  21.5566940  60.5355721  52.6093369  21.8106804
  21.0859909  68.6548080  39.8278542  20.2799015  68.7704010  39.3247719
  21.5559444  67.9576111  39.3703613  16.5281143  48.9766159   2.2455254
  15.6195126  48.8083458   2.4952431  16.5228863  49.8743019   1.9133153
   6.0138526  65.7340927  44.6980171   6.9050274  65.7049713  45.0461426
   5.5271325  66.2635117  45.3297234  79.9159088  59.8928299   8.4804153
  79.8207703  60.1309204   7.5581927  79.1795349  60.3222466   8.9158354
  15.1633492  24.2849007  18.0317478  14.7124300  25.0230503  17.6218262
  15.5945110  24.6632423  18.7980309  16.8491383   8.3609982  62.1062469
  16.8552589   7.4522529  61.8056221  16.7316647   8.2988987  63.0541801
  70.0065918  23.9891434  11.5295620  70.4343643  24.2987595  10.7311983
  69.5086212  23.2203274  11.2517519  83.6528397  23.6881428  49.1972771
  84.2403717  24.0909729  48.5579300  84.1366043  22.9286499  49.5218925
  38.7053299  65.5317917  16.2882614  38.1468658  66.2469254  15.9834175
  39.0989227  65.1784897  15.4904566  51.0207939  64.9292603  43.1214256
  50.4295006  65.3754425  42.5151825  51.8323135  64.8179626  42.6261673
  80.8759003  23.0741901   9.4702559  79.9687729  23.1305084   9.1699667
  80.8341064  22.5326080  10.2584019  86.3227081  16.4933968  32.8040314
  86.0862198  15.8037224  32.1838264  85.5583344  17.0691833  32.8248672
  70.1911545  33.4311371  51.9303169  70.9544220  33.3597908  51.3571129
  69.6463470  32.6790390  51.6984367  31.1625938  21.7688293   1.5539877
  30.3331242  22.1300106   1.2413223  30.9086437  21.0324326   2.1102774
  53.5849380  10.7360477  43.7020798  53.5969658  11.3423319  42.9614677
  52.8985062  10.1054821  43.4842911  83.2695312   4.7347293  83.0928955
  82.8344345   5.3471313  82.4996948  83.2952118   5.1925101  83.9331360
  80.6859512  47.9287987  43.9515381  79.9858704  47.6301765  44.5320015
  80.9448853  47.1456070  43.4659500  72.6381149  66.6561279   7.0556431
  72.9599075  66.6022263   6.1557655  71.9615021  67.3326263   7.0279393
  86.2325745  62.8404236  60.4563408  86.9874878  62.4360123  60.0287971
  86.5877914  63.2213821  61.2594147  40.4380989   0.7966850  14.9246483
  40.5776215   0.9656331  15.8564320  41.2538452   0.3918543  14.6298571
  83.0433578  53.8871307  63.9093513  82.9916153  54.3175964  64.7627258
  83.2607956  54.5913887  63.2986374   9.7829018  43.6355095   0.3130347
  10.5087900  43.0408173   0.1242008  10.0444050  44.0850487   1.1166281
  83.4351578  64.5056381  63.1663322  82.9079666  65.1046066  63.6950569
  83.7375183  65.0383148  62.4307632  85.4619751   7.3735480  48.1821251
  84.7544708   8.0115480  48.0892601  85.3096542   6.7428551  47.4783821
  63.0829124  39.6212425  28.2921677  63.2726097  38.9558296  27.6307487
  63.9392891  39.8521919  28.6520519  51.8495140   7.8342257  73.0229721
  52.5694160   8.3917122  73.3182297  52.0505829   7.6491976  72.1055984
   5.8233943  40.8970909  84.4153214   6.5039625  40.2244682  84.4406204
   5.9897895  41.3757591  83.6032791  77.4358826   8.2691383  37.8932571
  77.5615692   8.2219172  36.9455223  78.2635574   7.9586673  38.2603989
  11.8557472  41.1782341  85.4276581  11.6911879  41.6023674  86.2698364
  12.7431211  41.4492188  85.1923523  11.6481113  66.9101486  40.4699402
  11.7927551  66.4251022  41.2823677  11.1602297  66.3038483  39.9126244
   4.0384231  32.6690254  18.0553856   4.7570062  32.2344246  18.5147228
   4.4187641  33.4869728  17.7351685  48.0376778  63.1687775  85.8325043
  47.3874779  62.5681496  85.4682083  48.2021141  62.8370819  86.7152100
  67.9206619  67.8068390  67.1302032  68.3761520  67.2471161  66.5013351
  67.4809952  68.4643326  66.5911102  76.7926025  52.4146652  81.7130280
  75.9865723  52.7687225  82.0887909  76.5444641  52.1386299  80.8307266
  68.4981689   4.7467437  34.3723679  67.8576126   4.7635455  33.6612930
  67.9816589   4.8993087  35.1636772  75.9031219  50.4936600  17.8030605
  75.2943954  49.7555504  17.8325596  75.8901825  50.8504295  18.6911945
   9.3759327  62.5523071  41.0418739   8.7321444  62.5109367  40.3347244
   9.5981760  61.6379280  41.2172432  67.6879578  59.6967659   0.9967132
  67.5391617  58.8593483   1.4358265  68.0809631  60.2532730   1.6690824
  52.1800117  62.8617821  34.2355194  51.5184708  62.5590248  33.6134758
  53.0110245  62.7535095  33.7729988  56.2122841  69.4831314  59.3137703
  55.6541328  69.0700226  59.9725838  55.6044350  69.7779007  58.6356392
  64.8706360  43.1830940  27.7437630  65.3994217  43.5201721  28.4669476
  65.3738251  42.4432526  27.4036598  43.1911659  19.2591400  64.3856125
  42.6664314  18.8192921  63.7167206  44.0776024  18.9226990  64.2542038
  86.8436432  29.1477737  41.2972908  86.2691269  29.7147522  40.7827988
  86.3268127  28.9213638  42.0705070  18.1192646  48.9237785  84.5665359
  17.2386837  49.2307472  84.7823639  17.9825459  48.2600098  83.8905563
  79.1789322  17.5133324   9.9732151  78.5925446  17.5592880   9.2180548
  79.8808365  18.1314068   9.7693834  69.0343475   9.0452309  80.7774582
  69.5691528   8.2956877  81.0389938  68.3141937   8.6624260  80.2763977
  11.2274694  62.7940826  73.2635422  10.5327053  63.4271355  73.4445877
  11.7398806  63.1950798  72.5614929  51.2670517  29.0495338  76.5604019
  52.1008720  29.5149822  76.4945526  51.3281670  28.5638561  77.3829651
  64.4388885  55.8503952  29.8590508  63.9803505  56.1299667  29.0667038
  65.3203583  56.2116928  29.7657547  29.6828728   1.8800302  40.9701004
  29.2761784   2.4776323  41.5975571  29.7268734   1.0423098  41.4310989
  24.4148026  12.0665579   6.2277279  23.5271797  12.3367910   6.4629536
  24.4753361  11.1585779   6.5246119  23.0389366   7.4151950  48.8552437
  22.5917397   6.8614030  48.2152710  23.8443470   7.6872082  48.4152946
  85.0768433  68.0145416   0.2483747  85.9400330  68.1981735  -0.1223200
  84.8318634  68.8237152   0.6972238  17.0927849  63.4965782  72.4097595
  16.5492477  62.9845276  71.8109207  17.9204712  63.6116638  71.9429398
  41.7949333  11.3175259   8.6366215  41.7387276  11.7837925   9.4706879
  42.4159203  10.6077461   8.8003864  21.3853970  41.7654762  34.8745918
  21.7174244  41.3075142  35.6467705  20.9296818  41.0896263  34.3728104
  26.9649639  25.3632679  86.3131027  27.8221111  25.0679436  86.6202087
  26.6931362  24.6956806  85.6832886  41.6095734  64.4562531  42.9666214
  42.4524727  64.1284790  42.6530647  41.8368034  65.1703873  43.5621109
   7.4940658   8.2843161  20.4099274   7.2763457   8.1078234  19.4946785
   8.4484243   8.2199335  20.4458103  53.9920387   3.8288467  58.0019608
  54.6014137   4.2892852  58.5789261  53.9654465   2.9357738  58.3453941
  65.6228638  11.5791845  79.0820084  65.7485428  11.0396748  79.8626251
  66.4118500  11.4328613  78.5601578  39.5082207  26.8366814  73.8900299
  40.1304970  27.5564938  73.7857437  39.8450203  26.1445789  73.3209991
  39.6224556  55.1832466  71.0395813  38.8778954  55.2241936  70.4394302
  39.3438454  54.5769386  71.7258759  59.6898079  69.0740967  64.3588638
  58.9447441  68.7483826  63.8538666  60.2969131  69.4108963  63.6999130
  78.3466187  67.3616867  31.1522846  77.8847961  67.8419647  31.8395138
  78.3465271  66.4531403  31.4535694  19.6692047  40.6098137  62.8363152
  20.1869411  41.3891220  63.0384521  19.9657001  40.3444672  61.9657326
  76.6511688   0.7230085  13.5405703  75.7185364   0.5123933  13.5860548
  76.7805939   1.0458336  12.6487932  17.2657242  59.4563789   9.3790112
  17.5362797  59.8661499   8.5573559  17.7643337  59.9186440  10.0527554
  74.6945419  12.3395815  65.4577637  73.9224167  12.6164885  65.9510880
  75.1964417  11.8089485  66.0764389  24.7938671  31.4116573   5.9504313
  24.8389931  30.5035400   5.6512299  25.0775547  31.3772202   6.8639784
  59.1283188  56.2530632  20.6180668  58.9039154  56.4941673  19.7193222
  58.3389435  55.8308754  20.9569950  50.6938820  55.8066559  49.7373810
  50.2550507  54.9782333  49.9307175  51.0157013  56.1109619  50.5859451
   5.8136044  53.0699883  14.5721626   6.4845505  53.7474213  14.4876175
   5.1845012  53.4324837  15.1959066   7.1324244  70.8568573  56.3719215
   7.7737684  71.1288300  55.7154617   7.4683323  71.2101288  57.1956902
  86.1310120  41.8763580  52.7354126  85.5563202  41.1186676  52.8443565
  86.9500351  41.6185493  53.1584587  57.6941643  27.2673645  83.4238281
  56.7693939  27.0863819  83.2556686  58.0998344  26.4026737  83.4868774
  63.8180695  58.4363213  36.2265320  64.5173874  58.6437950  36.8463211
  63.1653824  57.9702911  36.7490730  33.4770889  24.6135654  74.2603836
  33.3242226  25.5560856  74.3276062  34.4228821  24.5158558  74.3706436
  61.1929855   7.8388739  38.7604103  60.7293053   8.6226683  38.4656258
  62.0363007   8.1638603  39.0757370  13.3205061  61.0323524  66.4920502
  12.5791454  61.2264900  67.0655746  13.2591000  61.6830101  65.7926941
  61.6420403  14.6855078  38.9354210  62.0687828  15.5231056  38.7549973
  62.1014671  14.3428688  39.7020760  17.6252327  66.6181870  75.0309525
  16.8964863  67.1619034  74.7317276  18.2880039  66.7079926  74.3461914
  61.7401886  15.9134054  48.7300758  61.5370560  16.7536068  49.1412086
  61.1815033  15.8855524  47.9533310  40.1351280  17.6504841  75.5414734
  39.7991142  16.8097839  75.8521957  40.6582298  17.4293270  74.7709656
  79.8223724  51.7439728  83.4870605  80.2561798  50.9395866  83.7716827
  79.8760300  52.3261108  84.2450027  79.4396744  11.0614233  79.6961212
  79.9323349  11.5757856  79.0566330  78.5302048  11.1238985  79.4042206
  84.9156189  57.0361023  40.0854950  85.8381271  57.2703705  40.1871147
  84.7513351  57.1121368  39.1455688  15.0004473  54.9842453  75.2950592
  14.7889547  54.1407394  75.6950531  15.8390942  54.8382072  74.8573608
  52.8822556  65.0747681  87.7610626  52.5356712  64.4080582  88.3540344
  52.4790573  65.8910599  88.0565720  58.1395187  22.4047413  25.5747280
  58.4247551  22.8637104  26.3648033  58.7049599  21.6338005  25.5282669
  29.8269005  35.6725006  16.0591640  29.7703915  36.3688469  15.4048386
  29.1044006  35.0825920  15.8441486  58.2074318  37.8522263   0.0389978
  58.0992508  38.0871506   0.9605937  59.0620575  38.2104950  -0.2007726
  68.4380417  39.8587608   5.4483643  67.5145950  39.8420677   5.6997766
  68.8780518  40.2894630   6.1812477  48.0216179  34.6354218  81.3502426
  48.7868156  34.5791512  80.7779312  48.0291061  35.5368156  81.6722183
  51.7793465  60.1250801  48.7550468  52.7114410  59.9209480  48.6791573
  51.4745636  60.1928864  47.8502045  25.6444550  42.2486725  64.7961807
  25.5292358  43.1844330  64.9614334  25.2406712  42.1051140  63.9402657
  43.7600784  57.3488541  81.0830688  44.1960258  57.6989326  81.8600006
  42.8363609  57.5663185  81.2083054  59.4243660  12.7440882  65.4075470
  58.8154564  13.4069757  65.0819092  59.0216942  11.9098721  65.1663589
   2.5364242  64.0118027  46.0063324   2.4758024  63.7500496  45.0876160
   3.4351072  63.7983360  46.2573967  30.3610096  23.0419388  16.3028622
  30.1992970  23.9795284  16.4077835  31.2927685  22.9366093  16.4951172
  37.7028732  43.7017174  88.5962067  37.6472626  42.8411942  89.0117035
  38.3327827  43.5840912  87.8851395  50.3395081  34.7708435  85.4256363
  50.2861443  34.6259842  86.3703079  50.8369675  34.0223274  85.0962677
   4.0538516  11.1091318  83.6287308   3.4200578  10.4403343  83.3694077
   4.7923717  10.9830599  83.0329742  40.3356781  10.3597784   2.5614507
  40.3463593   9.9707870   3.4359813  40.0332146   9.6545238   1.9892944
  82.4321747  19.0041981  12.9656048  82.2662201  18.7746830  13.8799419
  83.3531647  18.7835140  12.8266354  61.1724968  48.2762222  34.6664581
  60.3548088  48.3320312  34.1719856  60.9175949  47.9007683  35.5092468
  62.2369118  12.1731510  17.9080238  61.9168282  11.5490961  18.5594349
  63.1460152  11.9151945  17.7556572  14.7587147  34.8594131  70.2095566
  14.4479237  34.6776619  71.0964661  14.8336248  33.9972076  69.8006287
  25.0681820   5.2093768  22.0278721  24.1955338   5.6003489  22.0709667
  25.1709881   4.9534831  21.1112576  19.9128380  41.1212616  27.9615536
  20.1897583  40.2059441  27.9198418  19.8691692  41.3158569  28.8977470
  36.4956436  39.6729889  13.0892515  35.6838684  39.1874084  13.2357559
  36.2078400  40.5403290  12.8044281  27.1532345  52.8317528  23.5930424
  26.4313755  53.2642746  24.0491943  26.9968262  51.8972588  23.7290173
  40.6446838  43.7928734  50.7215881  40.0283165  44.5076065  50.8812027
  40.8687553  43.8724022  49.7943878  61.3081779  56.4931641  53.5301208
  61.6163788  57.1135864  54.1906700  61.4710503  56.9317932  52.6950684
  73.7545624   8.1180201  63.8089714  73.1247787   7.3989358  63.8592682
  73.3384018   8.7611742  63.2350426  32.2519379   4.5849152   7.3257284
  32.5727158   4.1996427   6.5103159  32.5621223   5.4901314   7.3012085
  65.0856171  19.8547764  68.7967529  64.7881775  19.6665001  67.9066315
  65.9719772  19.4953442  68.8341599  10.3164663  35.1252708  59.0325851
  11.1307154  34.6459427  59.1858025  10.1522741  35.0249252  58.0949249
  25.5743294  50.7556992  85.2968292  24.6538925  50.9988861  85.3962708
  25.6070728  49.8332520  85.5503006  74.4676590   4.6987662  27.0005264
  73.9983521   5.3189340  26.4425163  74.6086273   3.9338169  26.4426613
  24.9380894  15.7015905   8.6784945  25.3084431  15.2696009   7.9087834
  24.1440697  16.1274071   8.3553143   1.7158072  57.5414238  71.2500763
   1.2670969  57.0585251  71.9441223   1.3072922  58.4070396  71.2579117
  55.9621315  23.9689102  11.8990431  56.0781403  23.1275711  12.3405437
  56.3291397  24.6109276  12.5067844  63.5275955  22.0612946  85.7787857
  63.6977844  22.6706238  86.4971008  64.2154312  22.2466373  85.1394348
  68.2227249  67.2282028  46.3610649  69.0104828  67.3092422  46.8987465
  67.7354584  68.0352249  46.5269279  85.0706329  10.0678005  59.0134392
  84.5515823   9.8465910  58.2402077  85.8681412   9.5460854  58.9238510
  32.1085663  40.7338181  11.3214560  31.8223190  40.6263885  10.4143982
  32.0010033  41.6685295  11.4974518   1.1459409  19.0226936  66.6901321
   1.3756175  19.1899548  65.7760696   0.3370231  18.5129929  66.6444244
  23.8778934  43.9176178  20.1911964  23.3906384  43.5480957  19.4548073
  23.2043533  44.2829971  20.7648468  51.3546524  16.9044743  74.2762451
  52.0195847  17.2799110  73.6990585  51.0505028  16.1229801  73.8147278
   4.6151853  29.5718212  23.2456017   4.9945421  30.4228897  23.4646912
   4.8395443  29.4395466  22.3245163  57.3092308  11.7080479  85.2167511
  58.0638466  11.1555367  85.4205093  56.8639717  11.2515841  84.5028763
  11.4483309  22.6621094  19.4853783  11.5311708  22.9385624  20.3980370
  12.0488882  23.2333832  19.0066223   4.9925284  32.1609421  78.0314636
   5.0809517  33.1076355  77.9210968   4.0624228  32.0268745  78.2135696
  15.2548723  37.2409744  83.2197952  14.5960665  37.0921631  83.8980789
  15.5475550  36.3635139  82.9735641  82.5276184  20.0785408   7.7755909
  82.5429611  20.9851933   8.0821476  82.4666061  19.5562687   8.5754290
  60.8384399  19.3360119  77.9831772  61.5029755  19.7502670  77.4327087
  60.8628731  18.4121609  77.7339096   9.2770157  19.2824478  76.9642334
   9.3098545  18.6102142  76.2836075   8.4472713  19.1263409  77.4152222
  14.0551367  16.6754074  29.6938095  13.2344084  16.3572388  30.0698471
  13.9367447  17.6229362  29.6274452  73.3801575  13.0850239   8.7970552
  73.6197281  13.9821081   9.0296087  73.1117020  12.6865425   9.6249285
  40.5621872  56.6284561  13.7181396  40.8793221  55.7641144  13.4562740
  41.0134888  57.2366371  13.1327562  25.7165012  32.7955551   8.3892050
  26.2031689  32.1587296   8.9125023  26.3810711  33.4139328   8.0855799
   5.0481529   7.4601755  53.1491852   4.2521825   7.9287539  52.8979950
   5.1567435   6.7923827  52.4720650  61.5377197  16.4530201  77.7135162
  60.7476082  15.9147272  77.6666565  62.0978165  16.1177559  77.0134354
  77.6207962  22.7507000  19.4652557  77.4723129  23.5622101  18.9798317
  77.5101624  22.0582256  18.8137417  78.4663010   1.0770941  42.1968002
  78.3426361   1.1484495  41.2503090  79.3919067   1.2792037  42.3333244
  76.0097809  41.3930511  12.7931137  75.6030884  42.2056541  13.0939665
  75.3946915  40.7070389  13.0525093   6.2811627   7.5752964  43.9701309
   7.1178722   8.0401268  43.9610596   5.6229305   8.2680111  44.0258827
  84.4457321   3.7085602  55.1303139  85.0471115   4.2700529  54.6411324
  84.1154556   3.0880013  54.4806557  72.8489838  69.3372498  83.2226181
  72.9879608  69.4578857  84.1619644  73.1162415  68.4335098  83.0550842
  79.8766785  20.1281548  17.9120216  80.0603333  19.5765705  18.6724529
  79.2075729  19.6481934  17.4239902  75.8268051  65.3629303   2.7271118
  76.0127640  64.6224823   2.1497138  76.0394669  66.1349182   2.2026689
  80.3463821  32.4535942  56.5371323  80.8607788  32.2239189  57.3110008
  80.7202606  33.2825661  56.2383842  80.7611847  58.7342567  25.6727619
  81.2198563  58.9483337  26.4851818  81.0816193  57.8630447  25.4392262
  50.5056114  70.3711700  59.1605453  50.1643906  71.2545853  59.0213432
  51.1268539  70.2387695  58.4444733  10.1272306   9.3548565  87.6091003
  10.8917723   9.9294062  87.5691071  10.2469196   8.8526697  88.4151535
  77.0662537  55.3885498  82.6091385  77.0919418  54.6955414  83.2689209
  76.2115479  55.2886009  82.1899567  46.1620636  60.1163635  40.4216728
  46.6317062  60.3301544  39.6154709  45.6189156  59.3630409  40.1898727
  41.9930878  64.7316971  84.3719940  41.9893837  64.2467270  85.1972351
  41.9722786  64.0543137  83.6960144  75.9469223  39.9489250  34.4717178
  75.5422897  39.0948448  34.6235390  76.7866898  39.9007072  34.9285545
  78.7800980  36.8730392  72.6355209  78.7388916  37.1983109  73.5348129
  79.3061752  37.5229645  72.1696167  64.6755295  21.4005432  11.8548689
  64.2024155  20.6096935  11.5961103  64.1330261  21.7907448  12.5401907
  19.8024406  41.9239769  16.5198936  19.8574505  40.9739647  16.4165096
  20.4002285  42.2719193  15.8582172   7.2030835  30.2623177  71.9256592
   7.6582241  29.4215107  71.9717560   6.3581266  30.0556946  71.5261765
  37.3109970  42.5988922  60.7661667  36.5810165  43.1283684  60.4451981
  37.0949593  42.4232101  61.6819687  13.0798264  59.0817757  75.3209686
  13.9981232  59.2200584  75.0889359  12.9892349  59.4789276  76.1871643
  56.4177094  18.7625046  51.0114822  57.2729797  19.0880814  50.7308693
  55.7959175  19.4163475  50.6919594   2.5648100  68.7083817  21.9150887
   3.3987260  68.6533051  22.3817596   2.1922066  67.8295288  21.9859219
  84.4063339  16.1976147   5.3687544  85.0513000  16.3180828   4.6718106
  83.5604782  16.2463379   4.9233479  64.3148346  21.0877666  57.7589073
  64.9161987  20.8429489  58.4622231  64.5683670  20.5313473  57.0224648
  26.1840115  38.1453514  18.4419918  26.3153820  38.3596802  19.3655910
  26.8881302  38.6068611  17.9865170   7.5681171  48.1812706  68.4188766
   7.9604158  48.8126144  67.8157654   8.3152552  47.7550659  68.8388367
  29.9189377  48.2473679  31.6323452  30.6422443  48.8491898  31.4566422
  29.3112774  48.3845749  30.9056034   0.7902588  17.8809719  53.6933594
   1.4054272  18.5859585  53.8953362   1.3212810  17.0849953  53.7192230
  75.7296753   5.9877973  29.3316059  75.2557907   5.4871540  28.6675110
  75.2741470   6.8288770  29.3678169  57.8640366  39.2921715  35.5348434
  56.9868889  38.9530411  35.7132683  58.4399872  38.5352859  35.6427269
  30.3128605  10.5301991  74.5716705  30.1071510  11.0627871  75.3399582
  30.0024433   9.6534538  74.7979279  24.9107761  17.2973804  32.6724777
  25.0952587  16.4214096  33.0114059  25.4047241  17.3464642  31.8540401
  62.1758385  11.3024559  72.5946503  61.8692093  11.5460234  71.7212219
  62.6146545  12.0876255  72.9220352  72.8444824  15.0973816  58.4904022
  72.9014435  14.1476765  58.5955048  73.6522827  15.4304848  58.8812103
  68.9373550  32.9247017  22.1649265  68.2095642  32.3193245  22.3065643
  68.6691895  33.7295341  22.6082840  85.6276703  64.1043625  53.9853821
  85.9588699  64.3033905  53.1096382  86.2976837  63.5409431  54.3725166
  54.9966888  23.6697826  26.0372581  54.3564720  24.0735378  25.4513092
  55.3438416  22.9297066  25.5392590  75.1184082  12.1098423  27.4263248
  75.9581375  11.7269287  27.6802216  75.1491928  12.1420784  26.4701633
  28.1051979  27.4003239  12.2051058  27.7823009  28.2768745  11.9962339
  29.0437527  27.4407597  12.0214901  38.8021698   0.2696133   3.5600309
  38.1962814   0.6794982   4.1773820  38.2385139  -0.0960786   2.8782740
  77.9437637   4.2284303  29.8423786  77.1842957   4.8038430  29.9337025
  77.7505569   3.6976416  29.0696125  65.7301865  67.1154480  25.3974037
  65.9265671  67.2489090  24.4701214  66.5481110  67.3254623  25.8480911
  60.2094231  12.2156763  37.7753258  59.8789253  13.1126308  37.8250656
  61.0396690  12.2920723  37.3051262   2.3629434  19.5077915  32.3765182
   3.2036970  19.7689075  32.0007744   1.9968725  18.8932323  31.7404804
  55.1109123  58.9197388  83.2436142  55.3408127  59.2779617  84.1009674
  55.9526634  58.7680931  82.8138580  42.8969154  40.2601585  84.2560730
  42.7497253  40.7172127  85.0841217  43.8494720  40.2144241  84.1737747
  38.7565117  59.3585701  16.9428082  38.3862915  60.2402878  16.9011288
  38.2249260  58.8465347  16.3333244  53.8773270  68.3713074  10.5277376
  54.0589485  68.7754211   9.6792459  54.6055565  67.7655029  10.6652861
  25.4849434  17.8151989  84.9275894  25.8342915  18.3866711  84.2437744
  25.8078136  18.1946430  85.7449036  52.0098114  33.6975288  18.9369469
  51.5652695  34.4718246  18.5918636  51.3911476  32.9816551  18.7920074
  25.6450462  55.7975922  41.6346436  25.8745461  55.3798943  42.4647598
  24.6890125  55.7612419  41.6044846  31.8220825  62.8635101  31.1703644
  32.3993759  63.6256332  31.1241913  31.8743801  62.4702988  30.2992268
  21.4234428  22.4387894  12.8820324  21.7064133  22.9129658  12.1001644
  21.6425400  21.5248947  12.7003040  28.2037640  27.6114349  20.4848442
  28.9561691  28.2029877  20.4713726  27.7649040  27.8009548  21.3141308
  48.8343773  45.0131111  58.8156853  48.7541199  45.5303230  59.6171112
  49.1613846  45.6321068  58.1628914  71.9068909  31.4991760  88.2883530
  72.2809982  32.0108490  89.0056152  72.6230011  30.9341221  87.9983063
  44.8135567  21.2847443  65.4491348  45.3039627  20.5494194  65.0816650
  44.4990997  20.9643383  66.2945251  72.0558243   9.1673203  49.1224861
  71.8549576   9.9339371  49.6593132  72.5969162   8.6149492  49.6867027
  58.4747734  11.9442949  54.4123688  58.7194138  12.4719706  53.6521454
  59.0021248  11.1495171  54.3319817  67.8141708  26.7576752  47.7787781
  67.3158798  25.9482021  47.6661072  68.6670914  26.4704838  48.1047707
   3.3017843  38.6771011  17.6572418   3.5802572  38.3396606  16.8058796
   2.3457923  38.6865273  17.6100960  70.0325851  57.9822540  78.5858231
  69.2286758  58.1888237  78.1090775  70.7054367  57.9252167  77.9074097
  29.8794289  38.3510666  15.0708799  29.4700089  39.1111183  15.4843168
  29.5820503  38.3838310  14.1616354  81.0813904  28.8954372  24.6845951
  80.8890991  28.5763569  25.5663223  80.7366409  28.2170715  24.1039085
  58.2304573  12.1473036  71.6912537  58.2475510  12.0573530  72.6440659
  58.4906464  11.2859850  71.3646545   5.0803142   6.6491594  60.5410728
   4.9001126   6.2299118  61.3824959   6.0177183   6.8413243  60.5651093
  30.6725903  40.4707756  76.3089294  31.1169701  40.1862450  75.5102997
  31.1517620  40.0392876  77.0163498  25.7362461  39.3061218  63.1281929
  25.1775684  39.8103485  63.7196884  25.4646378  38.3975716  63.2585678
  67.9049911  27.3948975  80.0702667  68.6028061  28.0481606  80.0198898
  67.1043854  27.8846416  79.8820724  66.2638168  13.0571194  56.8926773
  66.4041519  13.6049643  57.6649475  66.2864532  13.6694574  56.1573105
  62.1437416   2.0549195  85.1074677  61.5692863   1.6173866  85.7357941
  62.3955574   2.8704629  85.5407181   9.0276651  21.3042774  18.6965904
   8.4831905  21.4869900  17.9308262   9.7593393  21.9169006  18.6219158
  83.2604523  35.5686340  31.0060635  83.1220016  36.4235649  30.5984402
  84.1146393  35.6417809  31.4317894  50.8231087  11.3067322  23.3581676
  51.1279755  12.1887646  23.1453152  50.8151855  11.2804461  24.3149738
   2.8109829  35.5447044  24.0003433   3.0062971  36.3943367  24.3955746
   3.0788171  35.6385460  23.0861835  20.6203861  53.3701782  48.6280975
  21.4242458  53.5475693  49.1165390  20.5552235  54.0926514  48.0035858
   9.7867537  51.4625969   1.8748057  10.3153419  51.6251831   1.0935302
  10.3696671  51.6687241   2.6055281  85.0935822  55.0677681  24.9365940
  85.9914551  54.8692818  25.2024345  84.6905975  54.2110558  24.7956085
  54.7134476  65.8837891  60.5964394  55.3678932  65.6101990  61.2391510
  54.7805481  65.2354736  59.8954315  50.7746086  50.0827904  83.6536865
  51.5327110  49.8910027  84.2057037  50.0191536  49.9001541  84.2124023
  49.8124619  44.2798500  74.6234665  49.7646942  44.5172272  75.5495300
  50.4454918  43.5625343  74.5924225  87.0548859  55.0247765  50.7103348
  87.0491943  54.7995644  51.6406479  86.1421661  55.2303543  50.5080795
  36.9331207  70.3177338  68.8010178  37.4116745  70.3574905  69.6290436
  37.1912041  69.4806290  68.4151764  32.0730171  63.8327332   5.6955724
  32.1519814  64.7823029   5.6043673  31.3315639  63.7098923   6.2883554
  53.8276291  11.0778713   0.1129957  53.4197731  11.8127470  -0.3450900
  53.1148415  10.4528761   0.2454630  29.5938282  18.3015118  79.5173416
  29.3878975  17.6460247  80.1837921  29.7271690  19.1109104  80.0106201
  31.8173962  47.1275635  75.9931870  31.1913548  46.9224052  76.6875992
  31.8903141  46.3169975  75.4893036  32.4694366  63.9511108   0.6587925
  33.3182831  63.8026657   1.0755103  31.8633938  64.0787964   1.3886158
  19.8865662  55.4938011  86.9560013  20.4946022  54.9467316  86.4587708
  19.0194893  55.1657066  86.7177505  41.7322235  41.1445999  80.3966599
  41.1683426  41.0319939  79.6314163  41.6292114  42.0654831  80.6366425
  27.9297504  69.8589859   2.3744233  28.8129959  70.2268295   2.4027233
  27.4897556  70.2335052   3.1375556  52.0457344  33.7452202  33.2482338
  51.6062431  34.5789986  33.0812340  52.8241997  33.9816055  33.7525635
  47.1265259   8.4231701  70.6542053  48.0303993   8.5871639  70.9231796
  47.1736526   7.6226139  70.1315918  35.5270500  31.5591335  81.7430191
  36.2804337  31.8009624  82.2816925  35.8032646  30.7633972  81.2883301
  71.0733261  56.4602699  22.0304260  71.3321075  56.6600189  22.9300728
  71.2855606  57.2534485  21.5384350  69.9282455  16.9829769  85.4210205
  69.7403107  16.1478081  84.9927673  70.8636551  16.9447136  85.6204834
  24.2520733   4.0262532  65.0502625  24.0638180   4.6767688  65.7267380
  25.0618134   4.3326836  64.6420288  79.1235733  60.4020309   5.6874437
  78.8225327  60.1455727   4.8157597  78.5765762  61.1527901   5.9184842
  69.6098175  60.7799683  68.6599045  69.0694275  60.1218910  68.2227020
  70.1747665  60.2755470  69.2452469  77.8395462  40.1581192   8.4155388
  77.4034576  40.2857666   7.5730643  77.1657181  40.3548965   9.0662775
  27.1473026  36.1559181  58.3158951  27.4308395  35.5496559  57.6315842
  27.8991699  36.2211113  58.9046898   6.8846331  22.7801437  16.6340580
   6.5668664  21.8773117  16.6463547   6.0902038  23.3138962  16.6489887
  86.2283096  67.2852478  27.0791168  85.8214645  67.9912720  26.5768795
  85.8033829  67.3251419  27.9358997  40.3021126  66.7078171  20.4728355
  41.0591011  66.1523209  20.6589012  40.0280228  66.4520187  19.5921116
  39.8349686  17.8755856   4.1011763  39.2446213  17.1854630   3.7987652
  40.1332054  17.5762978   4.9600792  77.8001633  65.3342133  55.7735748
  76.8979492  65.6539764  55.7750969  77.7258987  64.4066238  55.9978447
  76.7403412  16.6065083  14.7835941  77.0563049  15.7473021  14.5040178
  76.0837402  16.8448315  14.1291399  27.4473648  71.5434341  19.2672577
  27.5573769  70.9501572  18.5241890  26.5375614  71.4213791  19.5385399
  58.8297081  48.6004868   8.8421412  57.9073524  48.5141907   9.0830622
  59.2288513  47.7773247   9.1237850  53.2057991  52.5974960  45.4721756
  52.9999695  53.1455650  46.2294655  53.3786392  53.2200050  44.7658882
   8.9256363   1.2732123  34.6542320   8.9972773   2.1252625  34.2239876
   8.3705750   1.4359237  35.4169006  61.6104317  25.2477722  31.7571259
  60.8748550  25.6703682  31.3137589  62.3441048  25.8493462  31.6303883
  75.4913483  71.1774902  66.9902954  74.6769104  70.6820450  66.9039536
  75.7270737  71.0917511  67.9140472  32.6540184  33.8167381  10.6397171
  33.4981613  33.7505722  10.1933117  32.8771324  34.0520363  11.5403194
  61.2718201  27.3558979  23.9808044  62.1030655  27.6142521  23.5826588
  60.9727554  28.1400719  24.4410896  83.2465057  30.6265564  33.3283501
  83.8139648  30.9902573  32.6486855  82.9687347  31.3861885  33.8402405
  79.8646698   0.1257047  57.4544373  80.6182632   0.4331588  57.9582253
  79.1518631   0.7122164  57.7076874  10.2337713  25.4773769   2.7574377
  10.6901712  24.7436771   2.3455942  10.5488729  26.2495537   2.2876656
  59.8656006  40.5229416  73.0749741  60.5005341  41.1856117  72.8030167
  60.0196686  40.4145088  74.0134506  76.4580460  41.2938194  57.1664810
  76.6970825  40.5997925  57.7808228  75.6923447  41.7104454  57.5618973
  17.1196995  49.2047768  13.5184345  16.9796429  49.1652679  14.4645081
  16.7957916  48.3648605  13.1930790  57.3121834  35.1477470  32.2639885
  56.6287575  35.6154823  32.7439728  57.3716278  35.6051559  31.4252548
   7.0817523   8.7969484  77.3351669   6.6332135   9.0726061  76.5357590
   7.9467211   9.2026873  77.2765427  60.1087761   6.2918787  78.6673889
  59.8933258   6.6165681  77.7930984  60.2434654   7.0824223  79.1900101
  59.2917595  28.7302971  53.9584694  59.2298813  29.2873611  53.1825294
  60.2234764  28.5232105  54.0309601  33.0496101   4.1278963  19.8319302
  32.3481369   4.0213819  19.1894188  33.0337601   3.3171113  20.3404655
  24.9207764  64.7693481  84.4413681  24.7849045  63.8648109  84.1592484
  24.7392178  65.2933960  83.6612167  69.0014038  65.4335175  30.6405411
  69.2879791  65.8265457  31.4649410  69.7831345  65.4388046  30.0881824
  35.9680481   3.2748499  76.4827728  35.3061714   3.7440698  76.9906921
  36.0735703   2.4404254  76.9397507  79.8071671  52.7552490  40.7045021
  78.8728714  52.6279602  40.8692169  79.9552383  53.6860123  40.8717995
  81.9671097  14.9795246  60.3092346  81.3744583  14.4518127  60.8445129
  82.1761246  14.4202995  59.5610275  43.0240746  29.4683342  61.8708687
  42.8898125  29.2406330  60.9508934  43.7700844  28.9340916  62.1434288
  77.6586914  32.3667908  56.0731964  77.4677658  33.0485992  55.4290619
  78.5859451  32.4849129  56.2793083   9.4044600  30.7237034  35.2083969
   9.9357357  30.9924011  34.4588776   9.2345028  31.5361843  35.6850739
  77.5152283  28.3202744  88.7862015  77.6852798  29.2349567  89.0113068
  77.7156601  28.2622700  87.8520203  21.9723816  34.8879890   4.3693614
  22.3489246  34.2686348   3.7441819  21.0346813  34.8820038   4.1772304
  61.3247681  68.0129013  73.9198074  60.5585175  68.5628738  73.7566223
  61.9318085  68.5821381  74.3927689  14.3164644  64.3692093  67.2819977
  13.4920502  63.8996887  67.4089584  14.4496107  64.3674011  66.3341064
  17.1610336  53.4879265  74.6346207  17.7404404  52.7957268  74.9530106
  17.4986019  53.7015877  73.7647781  20.5812626   0.4673290  83.7430038
  20.7958393   0.8856235  84.5767975  21.4274960   0.1997582  83.3844986
  80.7511139  64.1292343   9.9471254  81.5087280  63.5449600   9.9768696
  80.0413361  63.6212654  10.3400869  71.1432571  62.0493927  50.4849052
  71.1736145  62.2547607  51.4193230  71.6385345  61.2344398  50.4025726
  81.2350006  70.1277313  28.1713104  80.7252045  70.8603821  28.5170937
  81.4504318  69.6013489  28.9412079  55.7054977  55.4694328  37.1059647
  55.4106216  54.6272202  37.4523125  55.0955925  55.6623650  36.3939095
  21.5105400  62.3436356  28.8451633  21.2101288  63.2082214  29.1253033
  22.4431877  62.4610481  28.6645622   4.1394734  63.6964417  79.1893082
   4.5111079  63.0743408  78.5639191   3.8823588  63.1585503  79.9381714
  28.1829395   8.1444988   3.9890614  27.8313446   7.5432858   4.6456876
  27.5273190   8.8389425   3.9246972  41.9203377  15.6703691   2.6329570
  41.7516556  16.5212955   2.2283552  42.7411385  15.7907162   3.1104901
  32.1728439  46.3323593  44.7671432  31.7567368  47.1865845  44.8828316
  31.4462528  45.7332420  44.5958138  67.9820328  13.7608252  15.4507923
  68.6941376  14.3771601  15.6218653  68.2251587  12.9729843  15.9370327
  86.8256912  45.0094147  15.4045696  87.2168045  44.3879242  16.0185795
  85.9027634  45.0456963  15.6558018  50.3284683  27.5090923  49.8085823
  50.7744370  28.1795597  49.2910690  49.4001503  27.6310787  49.6096458
  35.8376465  44.8669014   4.1309571  35.8150520  43.9465828   4.3931346
  35.2527618  44.9149475   3.3747587   4.1206608  39.5090256  62.9982071
   3.9204881  39.7712097  63.8967743   4.4813113  38.6262398  63.0809898
  75.9568024  11.5135031  24.9410706  75.2601929  11.7066126  24.3136349
  76.7574234  11.8115234  24.5092983  23.9659061  63.6860123  53.4438362
  23.1631355  63.1827774  53.3076439  23.9532623  64.3486633  52.7532120
  35.0483398  36.3387680  77.0765228  34.3286438  36.5754967  76.4915161
  35.8375778  36.6070023  76.6060028  57.8092728  57.2462883   1.3070436
  57.9793129  56.7630615   2.1156301  58.6195831  57.1643410   0.8041368
  84.0731125  31.8691559  11.4223261  84.2167053  32.6913300  11.8909826
  83.3204956  32.0438423  10.8572769  57.3502617  59.2920074   8.7267351
  57.2983665  59.9594994   8.0426359  56.4561729  58.9592857   8.8050442
  41.5374031   1.0940511  47.2447624  41.1218338   0.7154697  46.4700317
  41.7256279   0.3425526  47.8069496  81.9208221  51.8969536  50.0184441
  82.3603516  51.6418114  49.2073021  81.1929245  52.4491386  49.7329750
   9.9574022  37.1637688  19.0833817  10.1705570  37.6724815  19.8656921
   9.0588293  37.4161682  18.8710308   8.7213354   0.5373150  84.4032440
   8.2883692   0.2681737  83.5930939   8.0342932   0.4926826  85.0682297
  39.1534767  45.8210526   0.7671882  39.8949738  45.3515854   0.3850685
  38.4248924  45.2026062   0.7131600  62.7624512  10.1071415  49.6173477
  63.0160065   9.8660545  50.5083122  61.9797249   9.5849857  49.4414940
  57.3313675  40.3335152  25.4382343  56.7111473  40.7107658  24.8143406
  57.9301529  39.8174896  24.8984146  69.2395859   8.4818678  16.7429371
  69.8215637   7.8726583  17.1972466  68.3581848   8.1844406  16.9685497
  52.3281212  68.0288239   6.9719553  51.8171043  67.4806213   7.5674109
  52.8984909  68.5394745   7.5465469  83.0335312   7.3731937  28.6945229
  82.7590561   6.4575672  28.7447548  83.9007034   7.3858533  29.0995941
  83.6912689  33.5074768  71.3203430  83.8086777  33.3476372  72.2567749
  83.3896484  32.6692085  70.9702530  32.6857643  56.3131638  54.2584496
  33.1128502  57.0935173  54.6118317  32.5708809  56.5038300  53.3274918
  29.3368912  71.3680344  69.4202881  30.2364655  71.2060623  69.1360931
  29.2889309  70.9823074  70.2950134   9.7003403   0.7647604  13.4767485
  10.1130676   0.4114351  12.6886816  10.1150513   0.2905893  14.1974478
  31.7251968   0.1911718  44.0598221  30.9190063  -0.2682841  43.8248978
  31.4315929   1.0503020  44.3630142  79.9042511  54.3083801  45.5604935
  80.6735458  54.6768188  45.1261330  80.2588120  53.6491356  46.1570778
  14.1510897   5.5834703  62.9858742  13.9232826   6.5126553  63.0167122
  13.4193821   5.1726270  62.5253944  83.8644562  51.0832863  83.1785660
  84.5106049  50.7907486  83.8213272  84.1958618  50.7590256  82.3411484
  70.0383606   2.6824243  68.5387650  69.3046951   2.8951173  67.9619370
  69.8667221   1.7848341  68.8235474  72.6253510  41.3156853   6.1787181
  73.5505219  41.2368698   6.4112639  72.4048386  40.4719124   5.7841907
  73.6676941  68.3931198  64.2182312  72.9226685  68.2409821  63.6368332
  73.3348236  68.9985886  64.8806763  27.1333656  14.4300385  86.4949036
  26.2167130  14.1569223  86.4576645  27.6227379  13.6134319  86.5943985
  40.1028900  56.7015533  79.3918228  40.1793404  57.4112511  80.0295715
  39.4423294  57.0079727  78.7705383  27.1767292  10.1840458   1.1205052
  27.3428631  10.5593567   1.9852439  26.3926411   9.6478891   1.2387238
  31.7146416  28.6179066  39.4133301  30.7641010  28.5326061  39.4869995
  31.9584332  27.9964466  38.7273369  24.6029396   9.4412699  54.3411217
  25.0579796   8.6364851  54.5890999  24.5667648   9.4111061  53.3850822
  11.8648081  54.2028770  27.6560745  11.8250618  55.0096550  28.1696491
  11.8754797  53.5033607  28.3093719  33.4507256   0.7757380  47.8654976
  33.1704483   1.4199731  47.2153893  34.0802841   0.2246118  47.4005852
  11.7388487  31.9750290  16.0464001  11.2238588  31.7977238  15.2592669
  12.2259464  31.1657200  16.2012730   5.6446338  60.5442047  17.9640503
   6.5350046  60.2215919  17.8247967   5.6088500  60.7531776  18.8974743
   6.5108538  64.5061264   0.2829370   6.8877702  65.1206360   0.9126610
   7.1151896  63.7638321   0.2815087  23.1462746  10.5941372  21.6417885
  23.7446976   9.8570309  21.7634258  23.1994743  11.0837975  22.4625397
  66.4965515  60.9817162  44.4832840  67.2445450  61.5341988  44.2563477
  66.8447723  60.3563538  45.1188126  33.2830734  43.2167397  58.7800102
  32.5473213  42.6231689  58.9302673  33.7224197  43.2731934  59.6285515
  69.3553085  37.4625473   6.6053257  68.9937439  38.1726151   6.0749459
  69.8494339  36.9274025   5.9842844  19.0998726  61.2111282  10.7663107
  18.3164883  61.7609024  10.7833014  19.7046795  61.6738434  10.1863670
  19.7234402  49.3513680  19.6086426  19.9493809  48.4789658  19.9312801
  20.1129799  49.9505424  20.2454166  44.9657631  66.5214996  15.9379025
  45.4802399  65.7406387  15.7334356  45.3049583  66.8173828  16.7826691
  35.2443314  15.4946747  87.5602798  34.5777550  15.5849962  88.2412720
  35.2129593  16.3237724  87.0829468  31.4235764  65.7568665  74.7853928
  31.8319340  65.8614502  73.9260101  32.1518517  65.5587463  75.3741150
  80.4025116  46.5351486  65.4261017  80.7578125  46.9983521  64.6675339
  80.0492249  45.7216263  65.0660934  66.6162872  40.1953812  38.5141373
  67.5156403  39.9050026  38.6660461  66.1552353  39.9812279  39.3251801
  23.6485271  67.8896866  11.5885506  22.8794727  67.3199158  11.6009026
  24.3420639  67.3646011  11.9879637  78.9457855  20.8243332  20.9863510
  78.5641327  21.4783936  20.4008808  78.9045868  21.2264481  21.8540134
  37.4839516  31.8228893   2.8878789  38.1462440  31.1657639   3.1018574
  37.5805626  31.9623871   1.9458390   5.5668454  48.8389778  52.9848900
   6.3623857  48.6257362  52.4971619   4.8758340  48.3447304  52.5439186
   2.5201635  62.9617691  31.0709324   2.4098644  63.7129097  31.6539001
   2.9712505  63.3171387  30.3051243  65.7394409  26.3730164  36.2317276
  66.3467636  25.9880886  35.5998878  66.2068329  26.3362217  37.0662460
   1.9494361  13.3559580   5.5564818   2.1680722  12.7225504   4.8729439
   1.0857813  13.6864939   5.3093419  64.0382233  58.2283669  71.5876999
  64.3881302  59.0000038  71.1423035  64.4289017  58.2582016  72.4610367
  55.8881340  35.0850677  37.1952286  56.3727455  34.4650459  36.6502914
  55.8307419  35.8782234  36.6624603  52.8314705  69.4763336  12.5700665
  52.7926102  68.8205414  13.2662439  53.2383461  69.0199661  11.8335762
  58.0837212   8.9317589  60.2140999  57.3170433   8.9681396  60.7860413
  58.6008911   8.2010641  60.5529976  51.4035645  49.9680519  61.3965645
  50.9980545  50.8328705  61.4588699  50.9335632  49.4362946  62.0388794
   4.1431613  33.0097733  87.6512451   3.2093670  33.1292305  87.4780655
   4.5590177  33.7801170  87.2641220  45.4471169  40.5001183   3.4034805
  44.9455185  39.6876907   3.4712734  45.6573715  40.5748215   2.4726515
  86.7324371  21.6950569  16.5233078  86.0054398  22.3088017  16.6282654
  86.3550720  20.9561367  16.0459976  40.7159195  65.2021027  28.6608944
  41.2258644  64.4780502  28.2976627  41.0509720  65.3080521  29.5512562
  33.9264374  65.1422958  53.5355911  33.0745506  65.1424637  53.0991058
  34.3999901  65.8723831  53.1368980  55.9538994  22.4719334   3.6017976
  55.5497932  22.1179447   4.3940239  55.9264450  23.4210930   3.7225180
  75.5134354  56.8242188  47.8194504  75.3886185  55.9402161  48.1646919
  76.3632660  56.7920036  47.3801460  73.7883530  18.4413776   5.2398582
  73.5682831  18.1061020   6.1089911  74.2484360  17.7182732   4.8136263
  40.6684036  70.8511353  72.5343552  41.4027252  71.3837433  72.2288437
  40.3801804  71.2801971  73.3400040   0.5705361  69.6977997  20.3514919
   0.6637899  69.5578461  19.4091816   1.2771385  69.1829376  20.7411842
  58.9254837  66.2111511  74.6040115  58.4668503  66.0327835  73.7829895
  59.7722664  66.5658722  74.3331604  45.6594429   9.0454597  11.3679886
  45.7118263   9.9869795  11.2035837  46.4285583   8.6824703  10.9287453
  37.6748352  48.6576271  50.4064484  36.7218170  48.5800514  50.4508438
  37.8289070  49.5598640  50.1263351  34.5588570  68.6685181  22.5941200
  34.8036461  68.5506058  21.6762924  34.8704796  67.8747864  23.0289879
  57.4094315  17.5166187  47.5181885  57.6613007  17.0032616  46.7505569
  56.4655380  17.6435108  47.4222870  65.8085251   3.5162580  42.7052574
  65.9506760   2.6608820  42.2998466  65.2364960   3.9793024  42.0932083
  48.9087944  48.1727180  32.1264000  49.3551559  48.8587303  32.6227646
  47.9850693  48.2731781  32.3563499  71.1212692  29.2660847  52.2742653
  71.7346268  28.6441650  52.6657295  70.7611465  28.8033314  51.5176926
  63.3151703  33.1898270  22.4991875  62.8282127  32.3847275  22.6750259
  63.0847321  33.7720795  23.2231407  48.7055969  37.1214752  69.2031097
  48.8262939  37.0621452  68.2554016  48.6635399  36.2113647  69.4966354
  68.5086975  10.4341650  31.3575592  68.0323944  10.9389553  32.0167656
  69.3805618  10.8287354  31.3375874  34.2268562   9.8026047  41.6067162
  34.0663605   9.8614531  40.6649017  34.7347527  10.5873804  41.8126259
  14.0140915  14.6193771  63.2883224  13.9103918  14.7067823  64.2358704
  14.7723875  15.1647444  63.0790520   4.6601930  24.2450008  41.7937546
   5.3819065  24.3870201  41.1812248   4.2018452  23.4781189  41.4501839
  84.7351761   7.7862210  88.6848373  84.3165131   6.9331374  88.5699387
  85.1637344   7.7296224  89.5388718  41.9268608  51.5630913  64.9627762
  42.6749382  51.9203033  65.4413223  41.4116173  51.1079979  65.6288452
  59.2891464  48.0647240   4.3724294  59.8707008  48.5620651   3.7973800
  59.5053825  47.1487999   4.1976395  39.3081856  40.8281898   7.7918119
  40.0475159  41.3345032   8.1283674  39.0936928  41.2437553   6.9566283
  41.1059303   5.4125562  38.8130531  40.2983856   5.7560039  39.1953468
  41.7363472   6.1272006  38.9029961  21.8284950   9.9626589   9.4773216
  22.1291256   9.7941656   8.5843134  21.2133274   9.2526627   9.6609163
  48.0269814  31.2546158  83.4595184  48.9313812  31.2646084  83.7728806
  48.1033630  31.1544228  82.5106506  82.4020462  27.2970200  66.1705399
  82.9329147  26.9235229  66.8740387  82.8584290  28.1027050  65.9280090
  84.1252518  57.0397034  54.1553688  83.1688919  56.9996758  54.1518288
  84.3938599  56.3012733  54.7019958  36.2617950  48.2953377  71.4975815
  36.4981232  49.1577644  71.8390503  35.3882141  48.4162254  71.1254654
  10.5399866  43.0899506  16.1398144  10.4370537  42.6648750  15.2883759
  10.2452660  42.4344063  16.7719822  27.4723492  31.4616833  82.2660828
  27.4198284  31.2953835  83.2072601  27.6487083  32.4000397  82.1981354
  10.7964802  13.0102320  80.2526398  11.4440403  13.3014908  80.8945618
  10.0212860  12.7994909  80.7731171  74.5996857  10.1818638  59.7659416
  74.0174484   9.6220913  60.2796326  75.4312592   9.7082300  59.7460594
  83.5355530  10.2341051  87.6578598  83.9854279  10.9905863  88.0341263
  84.1400375   9.5043354  87.7930069  62.6608925  57.6159058  43.9585266
  63.1678047  58.2493477  43.4505692  63.0136986  56.7644386  43.7001381
  70.0430527  48.2725220  78.2456818  69.1720428  48.4299393  77.8812637
  70.4597855  47.6779747  77.6219254  47.5128555  43.2277222  79.6337051
  48.3281746  43.6162071  79.9508209  47.0833206  43.9335442  79.1504364
  30.2989483  14.2444420  88.6880188  30.0669575  13.9778500  87.7984467
  30.4762955  13.4226999  89.1457520  14.7213993  18.0010414  74.6402206
  14.0160627  18.1378098  74.0077438  14.2861633  18.0215015  75.4925003
  22.9707489  58.0162926  34.0764389  22.8724842  57.3551254  33.3912888
  23.9148235  58.0680885  34.2256699  84.9138412  40.5680122  71.4988098
  85.6308365  40.1387825  71.0319977  84.2090759  40.6264153  70.8537369
  13.9203691   5.9371510  72.2869110  14.3529797   6.7721429  72.1083984
  14.5909300   5.4073396  72.7180481  21.5850754  28.6974182  82.2926331
  22.2977829  29.2518578  82.6102371  21.0959568  28.4611683  83.0807800
  42.0071716  15.0845938  67.6027222  42.8733749  15.2575760  67.9715042
  41.4059601  15.2015867  68.3383179  73.6679916  36.9221230  70.4960556
  72.7640381  36.6835060  70.7013931  73.8018494  37.7588806  70.9412003
  70.3216400  22.5557747  64.6962357  70.7047043  22.5987530  63.8200798
  70.6292191  21.7218437  65.0514679   2.0760243  11.5617523  65.2192764
   1.4845148  12.2377853  64.8886337   2.7242858  11.4497633  64.5239792
   2.2565548  27.2001629  26.3616581   2.6172669  26.3135452  26.3668785
   2.3776267  27.5132771  27.2580585  51.7411537  27.9271336   4.0159020
  52.2781067  28.3432999   3.3415723  52.1352348  28.2066841   4.8422089
  59.6469040  24.3841133  55.1673317  60.4765739  23.9239941  55.2944984
  59.5498276  24.4446907  54.2169991  80.7063599   5.4365506  86.7420044
  79.8121490   5.1056581  86.8265076  80.8671799   5.4538794  85.7985687
  41.6019478  13.0933275  10.7073479  40.9052124  12.7629452  11.2744780
  42.2829094  13.3886786  11.3117399  82.5125427  18.5028076  77.9567871
  82.6067810  17.5957260  77.6660004  82.5288620  18.4508972  78.9124374
  61.3469086   8.8609285   4.6127758  61.9541626   8.1291723   4.7223611
  61.8000069   9.6086063   5.0025339  56.3054543  55.8959084  23.9283314
  55.4059334  55.5708199  23.8907967  56.8228035  55.2202187  23.4901257
  43.7646370  16.3999557  62.8577538  44.2188644  15.5804005  62.6621971
  43.1870728  16.1848335  63.5901299  83.5705948  22.4121304  87.0239639
  83.1541061  23.2350941  87.2798843  83.7099228  22.4973621  86.0807953
  53.2139473  29.0678043  87.3557510  53.3129997  28.3779449  86.6996155
  53.6791687  29.8183365  86.9862823  70.1353607  26.5868969  68.6394958
  69.5893250  27.2840977  68.2761993  70.3735886  26.0505981  67.8832779
  22.4708462  16.5507030   6.8620639  21.9400921  16.0588436   7.4886475
  22.1092739  16.3176632   6.0069675  67.1978531  16.0238991  50.3296127
  67.5965347  16.6936474  50.8852425  67.8359985  15.8817196  49.6304855
  23.4751091  11.0992298  85.3183975  22.9459457  10.6328745  84.6713028
  23.5538006  10.4867353  86.0497589  77.1966705  41.0473518  22.7494507
  77.2956390  40.6276932  21.8948631  76.2807770  40.8987961  22.9846039
  74.1143265  53.1204987  68.8862228  74.7745285  52.4873047  68.6043854
  74.4428940  53.9638252  68.5746460  83.6678543  10.7997446  81.9343262
  83.9603119  10.7995071  82.8457489  82.7123489  10.8142576  81.9893875
  60.2178650   5.4688287  62.1709290  59.4098663   4.9556336  62.1725655
  60.8940811   4.8500195  61.8951721  15.5967093  38.9531326   2.3379345
  15.5678930  38.1989861   2.9267178  16.3540058  38.7893753   1.7758677
  29.2009964  13.0223331  69.6832352  28.8392010  12.9645538  68.7989273
  28.6787128  13.7003641  70.1118698  69.0942993   8.3277578  67.1460648
  69.9531631   7.9747543  67.3784027  68.8213501   7.8131857  66.3864975
  50.5049667  66.5896378  19.6413002  50.5561981  67.1707840  18.8824387
  51.1967392  65.9442444  19.4958649  52.2896805  27.7660046  18.5271912
  52.0188408  28.5613327  18.0685749  53.0454063  28.0359669  19.0489521
   4.5965219  15.1894207  52.5632973   4.8644695  14.7683601  53.3800850
   5.3580418  15.7055569  52.2988663  11.0351830  19.2787418  65.2147217
  11.1968307  18.3669987  64.9721832  10.2335176  19.2491512  65.7369156
  82.3134766  48.3185196  40.9733505  82.9015808  48.0519867  41.6799774
  82.0543823  49.2113419  41.2013092  67.3718109  20.6102657  71.7448959
  68.0649109  20.2511959  72.2988968  67.8127975  21.2653809  71.2039795
  79.3714371  44.3781586  36.9693756  79.8784256  44.0029068  37.6893616
  79.3495255  45.3168144  37.1556053  41.3410492   5.7795973  66.8303757
  40.3914185   5.6626573  66.8579483  41.4770660   6.4869123  66.1999512
  86.6681900  66.6943130  53.7953644  86.2464981  65.9060287  54.1374435
  86.0823975  67.4080276  54.0477142  65.9469757  67.7755508  38.9493370
  66.6675034  67.1462708  38.9165421  65.6063309  67.7964554  38.0550461
   2.2134960   7.0383878  74.0294113   1.7095872   6.3926373  74.5247040
   2.4793451   6.5762258  73.2344513  35.4622192  59.1050682  19.3662663
  35.3304138  58.4381447  18.6924152  36.4042664  59.2743111  19.3547211
   4.5279016  30.1856766  69.5912018   4.9810095  29.5552006  70.1510468
   3.6015091  30.0722313  69.8037109  17.6499577  39.7713051  19.3246136
  17.3499031  39.5468521  20.2054214  17.4521961  40.7035065  19.2345085
  21.0467339  11.8028183  20.4375000  21.8122826  11.3127451  20.7374878
  20.3160172  11.4320402  20.9322815  19.1904640  43.3554192  72.7499619
  18.4913845  43.7047501  73.3026733  18.7357464  42.8271332  72.0939255
  19.5058994  21.5023594  74.9568634  19.9871750  20.6938877  75.1328735
  20.1434402  22.0716362  74.5259323  79.4673538  38.1712608  69.0487442
  78.7080154  37.6042290  68.9141693  79.1895752  39.0258408  68.7189484
  69.8521118  67.0577545  32.4759865  69.6679306  67.9944992  32.5453644
  70.3345108  66.8486252  33.2758522  47.2056770  68.2159271  18.4085102
  46.3084564  68.5411224  18.3345032  47.4630775  68.4254379  19.3063316
   3.0072634  48.4496727  41.3785973   3.1070075  48.3472481  40.4321327
   3.1974397  47.5818062  41.7347870  73.5896301  37.7455635  17.8439560
  73.3547287  37.1432228  18.5498161  73.3746567  38.6127052  18.1875877
  52.6566658   4.8942928  14.2018852  52.6920357   4.5860581  13.2963619
  52.4079742   5.8159475  14.1316252  56.1940079   5.6269379  29.8429165
  55.8498840   5.8685031  30.7028332  55.5113907   5.8950920  29.2278061
  13.1403799   9.3570499  55.5602417  13.8260040   9.1414785  54.9280396
  13.6146860   9.6695051  56.3307228  36.1078987  49.5658188  55.9212723
  35.5565071  49.8175621  56.6620979  35.7467804  50.0497818  55.1785698
  16.8498001  71.1231995  24.9695625  16.5540142  71.3356857  24.0843544
  16.9058266  71.9696350  25.4130077  50.3140793   3.8334568  49.2543106
  49.6629868   3.1826527  49.5165405  50.3652267   3.7508621  48.3020515
  52.9228477  40.3932610  23.3820820  53.1861115  39.4885674  23.5507755
  52.2102470  40.5546150  24.0004635  17.7327213  51.8035355  16.9617577
  17.6683025  52.6634140  17.3773155  18.2280521  51.9623489  16.1582279
  84.2835083  31.3668633   4.1579852  84.3866043  32.0702591   4.7989511
  84.6339874  30.5909481   4.5954180  38.2421989  58.7285995  42.4901237
  38.7084961  58.3635979  43.2421684  37.8121071  59.5122833  42.8323059
  59.8877945  58.3077965  22.2202301  59.1891212  57.8646584  22.7015972
  60.0523605  57.7443619  21.4641304   1.0494112  69.8145142  78.6446915
   0.1411749  69.5143585  78.6800232   0.9914196  70.7168274  78.3305435
  39.6491318  45.3019142  68.2591019  39.1429825  44.5030670  68.4070435
  40.5570335  45.0428352  68.4166565  11.0682116  37.2087173  76.8673782
  11.9641914  37.0217476  76.5872116  11.0742607  37.0495720  77.8112335
  50.9121666  67.0351257   2.0436652  49.9703560  67.1929321   1.9779105
  50.9828339  66.1280823   2.3411818  59.7948570  40.8225746  58.1590233
  59.1440353  40.1583481  58.3858681  59.5462723  41.1114311  57.2809601
  17.6063118  56.8688507  74.1831284  17.4883938  56.4318275  73.3397217
  18.4890728  57.2365379  74.1410141   0.9956589  70.2493591   7.5039043
   1.6841733  69.5920868   7.6048069   0.5951573  70.3117447   8.3710480
  86.6016464   8.4687233  54.8270340  86.0654831   9.2576275  54.7471161
  86.6999893   8.1539230  53.9284439  56.4066391  65.6091919  62.5606651
  56.2401924  65.0537949  63.3222809  57.2025490  65.2481308  62.1702881
  46.8016739  13.1460657  70.2640762  47.1223602  13.9717035  69.9011459
  47.0038109  13.2004471  71.1981049  75.2903671  43.8006630  32.4067116
  75.4211197  44.0270233  31.4858971  76.1431198  43.4771843  32.6972504
  65.5153122  35.7500916  39.1841202  65.7989273  35.9744797  40.0703735
  66.2729416  35.9467926  38.6331787  36.2884674  52.4862976  32.7605362
  36.9217262  52.1211090  33.3784752  36.6864967  52.3495636  31.9008198
  18.9900208  44.1843872  68.7327576  19.8536377  44.0236740  69.1129837
  19.0741081  43.9055367  67.8209457  55.7198792  48.0127373  85.2433243
  55.4898643  48.1884880  84.3309479  56.6761246  48.0515709  85.2610092
  55.2607651  71.9360580  56.0586281  54.9373627  71.4818802  56.8366814
  55.5773964  71.2364578  55.4871941  49.7376900   7.4780059  11.0687056
  49.1038361   7.7884388  10.4221067  49.2043915   7.0643544  11.7474661
   5.4517641   2.8290830  10.8281641   4.5616393   3.0720661  10.5734692
   5.8496504   3.6492326  11.1201782  42.7448730  70.9598465   5.0766826
  42.0723572  71.6408997   5.0876889  42.6018181  70.4952850   4.2520914
  47.9902649  25.7138519  20.7994976  48.6699028  25.4347820  21.4130478
  48.4677124  26.1590824  20.0994663  69.4520111  54.6516991  58.4887695
  68.9141388  55.3857155  58.1918869  69.7195435  54.8939781  59.3753128
  81.2715836  53.0392914  35.3905983  81.3911514  52.2541924  34.8562202
  81.4136963  52.7413902  36.2890930   8.7805157  33.3749275   5.6933270
   9.1344347  34.2530937   5.8340306   8.1883392  33.2341576   6.4320707
  46.6092339   2.5887308  54.1259918  46.4681053   3.5353799  54.1390572
  47.5223503   2.4790163  54.3913422   6.8141627  15.2432318  34.6016045
   7.1318569  14.3776360  34.8585968   5.9669518  15.3270493  35.0391426
  52.6133308  56.0240250  45.6345367  52.6412849  55.4553680  44.8650703
  53.3114433  56.6619339  45.4864159  15.1491480  17.3654442  67.5406418
  15.3549376  16.9165764  68.3606415  15.8238373  18.0397263  67.4608383
  31.7635326  26.3766575   8.0438156  32.2344742  27.1765404   7.8100729
  31.1759892  26.2199440   7.3045840  32.3866997  24.7921448  68.3867798
  32.5430145  24.4172955  69.2535400  32.8889503  24.2360325  67.7911987
  68.2229691   6.5503688  61.5135345  68.5390549   7.3669467  61.1268501
  67.2993393   6.7164378  61.7021217   2.7044754  17.9986706  39.6225204
   2.1897724  17.8226204  38.8349152   2.4829676  18.8999062  39.8569145
  79.4154434  10.6126547  36.1463242  80.1614456  10.3501205  35.6070824
  78.7681122   9.9202471  36.0130424   9.0874443  43.4291534  40.6585388
   8.3557653  43.7710876  40.1447716   9.8677015  43.7096634  40.1802673
  70.8490448  37.1410942  27.2868290  71.1613159  36.7191658  26.4863987
  71.1765289  38.0385971  27.2279186  47.7343254   1.1241593  10.9591627
  47.8376350   0.6609138  10.1279211  48.6070480   1.1087266  11.3520336
  32.6785011  70.5555115  79.3669357  32.7138557  71.5118561  79.3866043
  32.9260101  70.3250504  78.4714661  41.7744675  67.5178757  86.7059937
  42.1988297  67.7312927  87.5370178  42.4529152  67.6626892  86.0464783
  43.5083389  49.9403839  37.4522285  44.0493279  50.6949310  37.6850891
  43.2136269  49.5886116  38.2922478  40.8754845  65.3085938  87.6730881
  41.0768051  66.1870499  87.3505783  41.6185303  64.7743378  87.3925781
  47.7831306  68.5676270  30.4834976  47.7170181  67.6142120  30.4300137
  48.6253319  68.7724762  30.0773392  18.8801079  10.3962440  24.4320183
  18.1234913  10.9568701  24.6036682  18.6127911   9.5313301  24.7429829
  11.0994806  18.0246010  17.9061718  11.3992472  18.8605900  18.2632389
  11.8729782  17.6548100  17.4805126  71.4559860  24.8447762  44.1385765
  71.7586136  25.0154419  43.2466545  71.0566711  23.9759922  44.0938911
  51.8465271  14.9883127  78.1631927  52.6033020  15.0979309  77.5874176
  51.2903519  15.7440901  77.9742355  69.2404785  19.0162487  10.5565157
  69.1110764  18.5071907   9.7562990  69.7507629  18.4409370  11.1264811
  23.4206905  54.6616592  66.3238754  24.2599945  54.8652649  65.9111481
  23.5900650  53.8687401  66.8326187  37.7084465  55.4347725  17.2954254
  38.3156433  56.0435524  16.8747978  37.0067863  55.3157425  16.6553154
  12.9017286  51.0105095   9.5342627  12.8253126  51.8420105  10.0022335
  13.1945553  50.3874245  10.1992826  60.8603287  19.3521023  22.9578476
  60.5905075  20.2590103  22.8131294  60.5637245  18.8863010  22.1759987
  56.8872871  67.9067459  35.9645920  56.6217690  66.9916229  36.0555534
  57.3015137  67.9514236  35.1028175  81.2950439   5.7159872   1.7314714
  81.9484329   5.4240236   2.3671408  81.7142410   6.4454598   1.2749844
  10.8075638  12.1647263  73.1716995  11.5964956  12.7000618  73.2567596
  10.0882530  12.7962494  73.1734619   1.6343589  27.9969711  58.4919434
   1.3261344  27.3087807  57.9023476   2.2464309  27.5530796  59.0789337
   5.7546949  39.4044991   1.2473979   5.6797061  39.0660362   0.3551804
   5.6293335  40.3490982   1.1565580  83.7273483  36.5537453  83.7927094
  84.5606842  36.1342545  83.5786819  83.1438904  36.3073997  83.0749817
  86.7248688  40.2313461  87.6663818  86.3117752  41.0813789  87.5146484
  86.8989182  39.8896637  86.7893448  59.8288803  70.2026443  76.7761002
  60.6344070  70.3538055  77.2705765  59.1388626  70.5814438  77.3207245
  27.9003506  39.9974747  10.2097187  28.4187565  40.7890129  10.3544817
  27.1999073  40.2745934   9.6191120  55.5653572  62.5194473  36.8880157
  55.3373260  63.4463310  36.9595947  56.3122864  62.5020676  36.2896614
  47.5580826  35.6252174  29.3560658  47.3671608  34.7771454  29.7567558
  46.9658470  35.6743393  28.6056805  55.4515457  18.6262207  57.3433914
  55.4733086  19.4390030  57.8485107  55.6304436  17.9398880  57.9861794
  67.3878403  33.8061142  56.3305702  67.1482010  34.1188660  55.4582253
  68.2836075  33.4835587  56.2316628  46.5921288   2.2069154  88.9190445
  45.7384377   1.8333286  89.1378479  46.4864159   2.5403130  88.0280380
  85.8306732  63.6522064   4.9223771  86.0675354  64.5007172   4.5479984
  84.9523849  63.7846146   5.2791810  22.9825401  20.8185596  83.7504654
  22.3583450  21.3757286  83.2855225  23.8355980  21.2150116  83.5734100
  40.4800148  43.8514709  38.2192459  41.4331627  43.8408012  38.1319237
  40.1692810  43.2717705  37.5238190  57.6350555  37.9539948  15.7194490
  57.5867577  38.7721062  15.2248850  57.6849937  37.2718811  15.0497780
  26.8895206  65.5378876  18.0145149  26.5661640  65.5148315  17.1138802
  27.8171959  65.3134842  17.9417477   9.7462797   2.7959654  44.5521660
  10.2060328   2.2538686  43.9110794  10.1538019   3.6584320  44.4727364
  74.6653595  60.8568764  36.1131439  74.2431183  61.1889381  36.9054070
  74.9940720  61.6395683  35.6709061  78.5029984  66.9418716  42.2404022
  78.9672394  66.1610489  41.9386826  77.5779266  66.7394409  42.1007805
  81.9329758  45.9660416  61.9814034  81.1270905  46.4448547  61.7877159
  82.4197006  46.5441055  62.5689163   3.8241410  19.0158691  78.0300903
   3.6250460  18.0904293  78.1720581   3.9931257  19.3616924  78.9064941
  72.6316910  71.6990280  81.3786392  73.4399185  72.1988297  81.4934845
  72.8194275  70.8465042  81.7713089  46.6142616  50.7475700  84.7657623
  46.6710396  50.0626907  84.0994720  46.2394180  50.3084717  85.5292511
  37.8479309  66.1980286   6.3060904  38.7656021  65.9486694   6.1968699
  37.6212502  65.8977051   7.1862369  14.6177177  66.2140503  83.8741989
  14.3884544  65.3102951  84.0907440  14.6054573  66.2416077  82.9174805
  39.3672638  53.5180092   3.9023795  39.0367050  54.3281822   4.2904296
  38.5849113  52.9867554   3.7542892  12.3212337  59.3817673  41.4591942
  13.0148916  58.7775574  41.7237663  12.5214720  59.5916595  40.5470085
  20.1711845  22.2394218  79.1935654  19.2793560  21.9110947  79.3079147
  20.0578976  23.1462498  78.9088516  12.3282776   1.4961301  43.4654007
  12.9094172   0.7664288  43.6799812  12.0501194   1.3242410  42.5657806
   2.3129647  27.9386654  29.3545227   3.2138925  28.0096874  29.6699848
   1.7775502  28.2372837  30.0896339  46.2676086   3.9206054  62.1078415
  47.0382004   3.3926370  62.3168144  46.0628815   4.3786726  62.9230080
  53.9644356  13.6895409  85.3471146  54.8184891  13.7212782  85.7781754
  53.4845810  14.4334469  85.7112274  20.0185814  59.8756371  37.8889580
  20.1758404  59.8167801  36.9466019  20.7807446  60.3434868  38.2302132
  22.2905502  43.2121849  81.9154510  22.1439495  43.7687073  81.1505890
  22.8923607  42.5347748  81.6069565  50.6372108   4.4114485  68.3010635
  50.2683868   5.1416478  68.7980652  49.8854866   3.8533559  68.1018753
  22.8837891  59.8640976  27.9213924  23.7485332  60.1874657  28.1741409
  22.6081161  60.4459343  27.2130833  68.5560913  24.6354961  31.3944721
  69.1412201  24.6887913  30.6388149  69.1107178  24.8557854  32.1428642
  17.2210236   3.4056022   9.5708036  17.2491093   2.9514804   8.7286539
  16.5407219   4.0701218   9.4620132  47.0971527  29.8930988  66.0287094
  47.2181358  29.8865986  66.9782104  46.4092712  30.5417461  65.8793411
  13.0006685  61.6601944  10.3971510  13.7899065  61.3205299   9.9752951
  13.2220116  61.6936111  11.3278084  16.4657230   9.7878761   8.8593206
  15.7437630   9.3544636   9.3144665  16.3614883   9.5289555   7.9437184
  57.9187622  48.9809837  -0.1888521  58.5323410  48.2849236  -0.4239154
  57.5005608  48.6704979   0.6142288  42.1804237  29.9065056  81.4538422
  42.9011612  29.2775860  81.4187698  41.4235954  29.3884430  81.7277985
  54.1922569  30.8752232  15.9941607  54.2533722  31.0564823  16.9320526
  55.0933189  30.9418488  15.6781254   6.6601472   9.1969614  84.8122101
   6.5426393  10.1029787  85.0977859   5.7738533   8.8361301  84.7894897
  68.9500504  34.6080742  71.9652710  68.3574066  34.2933197  71.2826767
  69.5841141  33.8997879  72.0772247  80.2933350  37.6333923  64.0372772
  79.4790573  37.4151764  64.4906693  80.3853531  38.5792160  64.1520920
   2.2432854  22.6624527  74.4590149   1.9862286  22.6066055  73.5386658
   2.1271713  21.7735176  74.7944870   9.5979662  43.0077324  65.2716751
  10.0166779  43.2709694  64.4521484  10.0656261  43.4979782  65.9478302
  57.2905083   0.2693220  50.0270195  57.0445366   0.8561975  49.3119621
  56.4763107  -0.1753671  50.2627411  11.3538561  65.5854492  35.2192154
  11.9334621  65.2700577  34.5258064  11.8459816  66.2899704  35.6407547
  35.0492477  49.2090759  68.8793564  34.3559113  48.9990005  69.5049667
  35.8542175  49.1843262  69.3967056  56.6723557   1.8794305  47.1551552
  56.4105263   2.0852799  48.0525436  56.1789246   2.4960320  46.6142693
  85.9681854  54.5170250  64.2291794  85.2209015  54.9879723  64.5979691
  85.9875107  54.7811890  63.3093529  26.3314342  54.6354713   4.2115536
  26.6601677  55.1675110   4.9361892  26.8107014  54.9515877   3.4456522
  43.8020706  60.7606544  20.1282120  44.4556160  60.1470490  20.4637775
  43.5746193  61.3044624  20.8823814  16.9975319  71.2117767  61.4913712
  16.4111271  71.6993179  62.0698738  17.8669643  71.5661697  61.6777077
  22.3220825  55.4147873  59.5423355  21.9622669  55.0267448  60.3399506
  22.3604298  54.6892052  58.9192047  71.7549667  18.1654530  45.5894661
  71.2872086  17.4492493  46.0189819  71.6595535  17.9868202  44.6539345
  70.2484589  70.1938477  82.7187119  70.4598465  71.0172348  83.1586838
  71.0644989  69.6940231  82.7409515  83.5944901  66.8417511  19.8667336
  83.0508652  66.0943069  19.6176720  84.2380905  66.9152069  19.1620178
  70.5838623  67.9740143  71.1180725  70.5911713  68.7673874  71.6535492
  69.8468475  67.4645004  71.4548798   9.6840591  14.6033258  33.3251419
   9.3386593  15.4542665  33.5950127  10.0893650  14.2476082  34.1159782
  43.9603767  53.7915573  67.6252823  44.0383873  53.6289368  66.6852341
  44.8610001  53.9247360  67.9208679  27.5022907  11.2004747  16.9908924
  27.4637260  11.9959354  17.5219154  26.5977917  11.0528307  16.7146397
  13.8459320  19.7383347  12.3416595  13.4678469  19.0761833  12.9203110
  14.6718531  19.9795132  12.7610884   0.7955869  66.8551712  57.3263359
   0.8126221  66.0588913  57.8572655   0.9977304  67.5586777  57.9431381
  15.6519222   7.4742713  30.5729675  16.0885925   8.2330370  30.9600410
  14.7952337   7.4477458  30.9991283  67.1456680  46.8297424  43.0508881
  66.5466766  47.3836555  43.5515175  66.5803299  46.1752434  42.6406975
  64.4294205  27.8320370  84.3152084  64.4992142  27.9112453  85.2665710
  64.8647995  27.0043564  84.1111984   7.9937420  49.1760979  22.2311478
   8.1759176  48.5066643  22.8906174   8.8493958  49.3789978  21.8531017
  69.4169922  33.2873192  19.4735317  69.6173477  32.3838654  19.2288589
  69.2670212  33.2519722  20.4182491  10.2309256   1.8721268  26.0107670
  11.1783991   1.7776313  26.1087284  10.0804749   2.8170621  26.0370998
  86.0633850  50.6078529  25.5571041  85.6078796  51.2039604  24.9626274
  85.8853302  49.7358437  25.2047863  30.9208698  44.7251892  47.3892784
  30.5682869  44.8260193  46.5051117  30.9394073  43.7790680  47.5332870
  18.3064041  42.1610641  46.2986259  17.5332069  42.2801514  46.8501854
  18.0105209  41.5869942  45.5921364   4.2656498  54.0858841  28.7136288
   4.2096777  54.0278358  27.7598324   3.4526308  53.6887283  29.0258770
  14.4780054  40.7970276  71.8812027  13.6793442  40.2694435  71.8756714
  14.3611879  41.4007225  72.6147842   3.6792274   1.4149144  88.1764450
   4.1295400   2.1231577  88.6367035   2.7523451   1.6489056  88.2251205
  33.3230095  43.9840736  12.7647839  32.5670662  44.4580078  13.1114321
  34.0395966  44.6177254  12.7997665  41.6703720  16.3858833  73.2831955
  42.1100540  16.2755890  74.1262512  42.3833008  16.4911461  72.6532135
   6.5378828  63.8602371  86.6191254   6.3965659  63.9168816  87.5641403
   6.0234604  64.5813599  86.2563782   6.7180533  15.8529091  60.2792473
   7.1573853  16.6114769  59.8948097   6.9027114  15.1361399  59.6723099
  57.3026505  37.0283890  86.6719894  57.6715050  37.8392410  86.3217087
  57.3235817  37.1463737  87.6216583  31.0603008  52.4366798  27.8980389
  30.9136639  51.8825798  28.6646557  31.0535259  51.8290253  27.1584835
   5.6728258  16.6603298  45.3863564   5.9654698  17.5176086  45.0770569
   6.2862687  16.4359360  46.0860481  37.6661911   5.8826046  14.0562525
  36.9157829   5.9397254  13.4647617  37.9386253   4.9661732  14.0097218
   3.3905916  12.7954826  33.0263367   3.9328697  12.0374517  32.8082657
   3.0534284  12.6049061  33.9016838  66.9762573  22.6216640  54.6750145
  67.2999802  23.5158901  54.7836227  66.4317093  22.6579285  53.8886414
   6.5820408  47.5820312  58.6107941   6.3553557  47.4817467  57.6862450
   7.3052807  48.2090454  58.6134262   8.2590485  41.7582397  36.9979591
   8.5976229  41.2094841  37.7053947   7.3885469  41.4042397  36.8159065
  33.6278725  64.5862885  41.9757347  33.5499229  65.3050156  41.3483658
  32.7244568  64.3741913  42.2104301   3.1795602   0.4027131  60.0022850
   3.4583859  -0.0416252  59.2016258   3.3360887   1.3308183  59.8280678
  29.4528351  56.4675674  66.6272049  29.5616264  55.8141861  67.3182068
  29.5484772  55.9733467  65.8130569  39.1595879  48.5813370  80.8501511
  38.7262611  48.8212242  81.6692429  39.8364334  49.2479744  80.7330933
  43.7963333   3.1081121  16.0396538  43.8481598   2.1560469  16.1240215
  43.2306328   3.3820918  16.7615623  29.7584076  63.3484650   7.4636273
  28.8367958  63.3842506   7.7197213  30.2162151  63.0660667   8.2553949
  16.4545555  51.2241669  76.6598587  15.8949995  51.8805008  76.2446976
  17.3197594  51.3706284  76.2774887   6.0887747  20.2520790  13.5520906
   6.4482293  19.9658604  12.7123861   5.7568412  21.1337223  13.3825121
  82.2212524  50.0704155  61.8416138  82.8342743  50.5064354  62.4334946
  81.4497757  49.8970108  62.3810425  25.7272930   5.5886292  69.9640274
  26.2985592   4.8339682  69.8212967  26.2155972   6.1477757  70.5682983
  79.8208008  61.5369453  55.0253105  79.8277206  61.0330925  55.8391380
  79.3120346  62.3206558  55.2331390  83.0043945   3.6623735  61.9188385
  82.8994904   2.8268003  62.3738594  83.5817261   4.1732435  62.4862251
   5.9509692   1.7279526  18.2542973   5.8455544   1.6565225  19.2029896
   6.8945193   1.8235806  18.1246815  11.1345053  69.8700562  36.6248665
  11.6046696  70.6023178  36.2261620  10.3617229  69.7523575  36.0724297
  24.3784752  48.7281914   0.9239077  24.0463791  49.4649391   0.4109293
  23.5923882  48.2808914   1.2373095  80.0540237  65.3694000  21.4284515
  80.6282654  65.8555832  22.0201473  80.5909348  65.2078629  20.6526508
  20.6213627  38.0345001  -0.1221762  20.7681427  37.2171593   0.3538948
  19.7023640  38.2457504   0.0422846  42.4284401  69.4763718  29.7150021
  41.8263741  70.0805130  29.2805386  42.1607056  69.4908829  30.6338806
   0.5626985  35.2157860  29.2146358   0.5141338  36.1234283  28.9145298
   0.5921372  34.6986275  28.4097080   7.6208272  40.3216095  53.6059151
   6.9897127  39.6497726  53.8639145   8.1205301  40.4994316  54.4027290
  22.2052727  33.3383675  76.4238892  21.5601597  33.8103294  75.8972855
  21.7968178  32.4907913  76.5999908  62.6277046  60.4685745  60.8542747
  62.7082405  59.5157623  60.8978729  62.0798149  60.6277122  60.0856895
  31.7477131  11.6096001   8.3440475  31.9246979  10.8564863   8.9077215
  32.5532761  12.1257391   8.3739891  31.2357559  54.9131737  50.2557106
  31.0169449  55.6087456  50.8758163  31.9934807  54.4757767  50.6439972
  75.9797440  71.5048828   9.0568228  76.0249786  72.1490250   9.7634087
  76.8496552  71.1058655   9.0404215   8.0354595  63.6491127  82.0261383
   7.2853308  63.1389313  81.7207565   8.0984678  63.4470711  82.9596481
  59.9074478  62.1185303  68.7787476  59.7779465  61.1831474  68.6221542
  60.7423286  62.3188820  68.3555908  12.2147856  53.3392029  11.1132088
  11.6674242  52.6375198  11.4657259  11.7193365  54.1396027  11.2867575
   4.2623777  46.2254868  71.2243652   3.6243653  45.7388687  71.7462540
   4.9456706  45.5858154  71.0239563  44.5732651  61.2424202   4.9660978
  43.9623566  60.6645737   5.4233923  45.0841675  60.6568108   4.4072866
  49.2527695  62.1229820  63.4175301  49.4044914  62.7338829  62.6964111
  49.7327461  61.3334389  63.1675758   8.3629141  14.5958834  68.9959869
   7.6294045  14.0401087  68.7327194   8.0316277  15.4892015  68.9039841
   1.8960435  14.9787636   9.7297421   1.3972261  14.7706842  10.5197515
   2.1480317  15.8955784   9.8401279  79.0377121  54.2969475  88.7027969
  79.8123703  53.8121758  88.9876404  78.3653641  53.6259804  88.5845261
  29.8098049  70.9439392  23.7390251  30.5312691  70.3517075  23.5269489
  30.2038536  71.6088943  24.3036480  23.8271389  51.4649086  80.3666916
  24.7541866  51.3848228  80.1421967  23.8253307  51.8494415  81.2432556
  70.5621338  64.3803711  72.9361801  70.3257370  64.8677444  72.1469955
  69.9075317  63.6842995  72.9928970  25.8983841  57.9123688  34.1992416
  26.8025074  57.6024590  34.1468353  25.6348915  58.0376015  33.2875862
   6.2816992  10.1332684  66.4124298   6.8751974   9.9649372  67.1443100
   6.5101066  11.0145025  66.1166382  55.8899307   9.8120604  36.5862694
  56.0069046  10.0509033  35.6667557  55.4275894   8.9743614  36.5591888
  20.6053143  65.0319595  34.5086327  20.0537319  65.3475494  35.2244492
  20.7793446  64.1162033  34.7261925   8.9683905  54.3669281   3.0695705
   8.3398085  53.8429756   3.5661495   8.6630316  54.3125801   2.1640134
  53.1100121  52.9849701  65.7920227  53.8991928  53.1384048  65.2725220
  53.3645287  52.3092499  66.4203949  84.3388901  20.5780907  46.8379707
  83.4437790  20.8105412  46.5910225  84.5563889  19.8335285  46.2771187
  68.3121719  27.7928314   5.5874972  68.2688675  26.9133072   5.9627194
  68.0664215  28.3730087   6.3080764  23.8796234  41.6309319  16.3238564
  23.3487053  41.4822426  17.1063213  24.3845081  40.8243523  16.2201614
  50.3189430  65.0845108  49.3786583  50.2028999  64.2148056  49.7612419
  49.7188835  65.6447296  49.8709183  37.8802605   2.1345801  55.6706924
  37.1538849   1.5374368  55.8496742  37.4820976   2.8575232  55.1858711
  60.1994286  11.3738871  22.7915077  59.3085175  11.3289051  23.1386108
  60.6173744  10.5697269  23.0995369  48.2197800  29.3790207  68.7813721
  48.8151817  29.8743591  69.3438339  47.4731178  29.1744652  69.3442917
  58.2640877  26.9115562  41.1217995  58.7511177  26.9563351  40.2989845
  58.5524101  26.0934715  41.5265694  30.4482403  48.4763069  44.0288315
  30.4658718  49.1297646  44.7280579  29.5324898  48.4466095  43.7517967
  23.1357384  52.4922562  29.1444969  23.6766872  53.0655022  29.6876335
  23.1739674  52.8832588  28.2716370  43.3468475  43.9171371  59.8541260
  42.7493286  44.5214157  59.4136086  42.7723541  43.2961578  60.3019791
  56.9733505  24.2833862  69.0240555  56.4057350  25.0054207  68.7544098
  57.5943108  24.6817760  69.6339035  68.0067749  30.5670185   4.0521693
  67.6181107  29.7029762   4.1885676  68.5594559  30.4615040   3.2778051
  81.8068695  40.3076248  10.4613638  81.1402206  40.9633369  10.2567768
  81.7692413  39.6914787   9.7298050  35.9765244   9.8016491  75.7074051
  36.6337776   9.6614714  75.0257950  36.4449310   9.6457701  76.5274887
  79.7347565  42.7605515  50.3628731  80.3168182  43.4693871  50.6367149
  80.2973251  42.1676178  49.8647003  74.7325821  20.8933430  23.1037445
  75.3921661  21.0620594  23.7765827  74.8664398  21.5869808  22.4578495
  43.1022186  60.2097092   2.4100726  42.1992378  59.9665184   2.6143184
  43.1437912  61.1489754   2.5897496  41.4934616  23.3820915   0.5177211
  41.6457481  22.4558678   0.7052073  42.1740990  23.8411465   1.0098937
  42.7844429  23.9735718  14.6993742  43.1512070  23.3564892  14.0661888
  42.9476471  23.5682316  15.5510159  77.7375565  47.4433098  72.3920212
  78.0940475  46.8864861  71.6998596  78.4811859  47.6118164  72.9706879
  60.9732552  16.4061279  60.4268379  60.6517639  16.0171700  59.6134567
  61.4979019  17.1548462  60.1432915   4.8217463   1.4830151  29.7764874
   4.3156505   1.5465615  28.9665108   5.4625845   2.1913512  29.7146912
  35.9637604  14.9060678  64.5586472  35.0417557  14.8892574  64.3020172
  36.3039207  14.0539980  64.2856979  33.5237923   6.8719158  37.4240570
  33.5739670   7.6083369  36.8146324  32.9169998   7.1646390  38.1040154
  52.1087494  38.6061058  82.2572403  52.2976570  39.4862556  82.5826340
  51.9666100  38.0841827  83.0469437  16.4840450  -0.0525135  69.4997864
  16.4191933  -0.3219663  68.5835876  16.9774990   0.7672842  69.4739838
  46.5494156  22.6765327  82.3736496  47.2789001  22.8336296  81.7741394
  45.8652916  22.2948780  81.8236008  85.1444702  64.2517242  40.9994965
  85.7103729  64.3101501  41.7692833  84.3259964  64.6666183  41.2718773
  67.5818634  60.7426453   3.5374830  66.8079224  60.4827995   4.0372081
  68.2313385  60.9700584   4.2028327  34.3715439  39.3011475  78.9643936
  34.1567574  38.7065506  79.6831131  33.9462166  38.9149284  78.1987839
  53.9596634  70.9078522   5.0712018  54.5430794  70.4173355   4.4921956
  53.0797844  70.6991959   4.7573423   1.1139108  58.0427704  56.5945358
   0.5017503  58.7645226  56.4511299   1.2739217  57.6871529  55.7203712
  76.7377243   9.2508583   7.7540255  76.0187073   8.7641258   7.3511248
  77.5050964   9.0225925   7.2293587  41.6758728   2.9558895  85.1887360
  41.9946785   2.0588071  85.2879181  40.9328957   2.8812017  84.5898666
  85.3488007  18.8107510  39.2640953  85.1229553  18.2213306  38.5445023
  86.2248688  19.1293430  39.0467834  77.0224380  43.7396049  64.4073868
  76.5735474  44.5558128  64.1870880  76.7127609  43.1121178  63.7542496
  10.4727306  16.5651226  64.4977264  10.4355574  16.8411865  63.5819511
  10.4948444  15.6089649  64.4589310  31.3384838  61.9464455  57.7870865
  31.9766121  62.3193703  57.1788483  30.9194374  62.7066460  58.1904755
  57.3842850  71.5137024  20.5609760  57.5929756  71.2835007  19.6556091
  56.4555740  71.3014450  20.6540985   3.7626848  29.8184185  51.9958153
   3.7193646  30.6528225  51.5287743   4.5034537  29.9169216  52.5939713
  27.2457619  37.2340813   9.9489145  28.1124306  36.8433380  10.0604382
  27.3926525  38.1747818  10.0475960  13.0228004  38.8850746  14.5452652
  12.3313484  38.3138123  14.2109213  13.5897903  38.3036118  15.0518761
  13.7388659  46.4651108  37.0035934  13.7556782  46.0505638  36.1409798
  14.6455069  46.4223709  37.3075790  70.3046417  49.6645927  51.3911171
  69.5057983  50.0807686  51.0672836  70.1724625  48.7311363  51.2255211
  11.3291445  56.6205788  34.9913940  10.3913269  56.5092506  34.8353996
  11.4685287  56.2719727  35.8718948  34.2344551  67.1494751  68.4436646
  34.7698898  67.0895920  67.6524887  34.8681488  67.1692276  69.1607971
  85.0749359  49.0006523  62.1670952  85.9900360  49.2789383  62.1300545
  84.6319427  49.5471535  61.5179977  78.6396103  24.7455730  21.8566036
  78.6593094  24.8146362  20.9021015  79.0334473  25.5620537  22.1639957
  12.1265621  50.5217209  26.2882214  11.7696905  50.4156265  27.1700478
  11.7486115  49.7982559  25.7882404  36.2444077  55.5078278  76.2039108
  36.6555786  54.8225174  76.7307129  36.1281357  56.2389908  76.8106308
  49.5510788  70.7066956  23.3517704  49.4961166  69.8623734  23.7993469
  49.3673363  71.3520508  24.0344048  37.2835503  39.3504868  54.0661888
  37.5449409  39.2824135  53.1478920  36.4312782  39.7854958  54.0410042
  85.0289764  27.1644592  13.5236397  84.4675980  27.0710793  14.2932940
  85.8850174  26.8475342  13.8116999  71.2207184  70.0909805  45.6341782
  71.7017441  70.9129181  45.7304840  71.3997498  69.8125153  44.7360458
  22.6344490  31.6730690  86.3350067  21.8201256  31.7633553  86.8299408
  22.5118484  30.8788776  85.8149490  56.6457863  17.5863342  24.5154381
  56.0239067  17.6338253  23.7893219  57.2835388  16.9270496  24.2418537
   3.3042495  33.1271324  66.0755844   4.2056623  32.9618645  65.7992249
   3.0196884  32.3027115  66.4700241  36.9017563  50.9510078  70.1248398
  36.4110451  51.7238731  70.4043198  37.8021202  51.2611122  70.0278320
  50.0798988  65.3143082  55.1553535  49.3580589  65.2538147  54.5296402
  49.7172928  64.9734726  55.9730186  68.4278030  50.0492630   2.4640758
  67.6251678  49.5641670   2.2725308  68.8939972  50.0803795   1.6286587
  53.9992676  37.1304436  31.9153080  54.0390511  38.0783920  31.7886581
  53.3634682  36.8286018  31.2665558   9.8136778  17.4847317  72.4257507
   9.6364908  18.1602802  71.7711716   9.9554958  16.6876869  71.9150238
  61.0293617  67.4247360  20.9625702  61.3531265  66.5773926  20.6569252
  60.7477570  67.2629166  21.8629837   2.9113617  63.8204155  35.0866852
   3.3886130  63.0005417  34.9591370   2.1499321  63.5750465  35.6122818
   6.8813248  58.1824760  21.2505016   6.1902165  57.5675087  21.0047073
   7.5769567  58.0290680  20.6111317  23.2632961  64.7772369  31.8726063
  22.8933945  64.2638702  32.5908432  22.8270302  65.6268692  31.9360065
  39.0457649  36.5141373  14.3338051  38.7804947  37.3285942  14.7610283
  39.8549232  36.2626381  14.7790537   6.7598262  41.2040901  87.2412033
   6.3366237  41.3264389  86.3914032   7.5349340  40.6763611  87.0489960
  36.5781136  38.0978165  62.0106049  37.0566864  37.2793007  61.8793144
  36.9160843  38.6841011  61.3336449  13.0348940   3.5628369  81.2611542
  13.5887842   4.0584044  81.8643570  13.4896679   2.7280262  81.1493301
  85.7225037  39.6347198   4.6333890  86.2489929  39.9836845   5.3526020
  85.8244629  40.2750854   3.9292805  62.6785316  13.8808680  50.0467262
  62.3229256  14.6830931  49.6643524  63.6170959  14.0501070  50.1285019
  46.2265053   3.5179541  57.3087234  46.8701096   4.0616522  57.7630310
  45.4296112   4.0481358  57.2985229  81.4334717  47.1036491   1.2642785
  80.7515488  46.4567719   1.0832744  81.9446182  46.7198563   1.9767836
  27.7876568  30.7139683  65.4399872  27.5601292  29.8551464  65.0837708
  27.4846020  31.3356667  64.7782593  46.8061409  19.0559673  80.8627319
  46.5013046  18.3813457  81.4695206  46.5939255  18.7114468  79.9952621
   4.2079854  32.8165321  68.9738770   4.2164369  31.8622456  69.0479965
   4.9894104  33.0238991  68.4614258  41.5428810  28.7195625  73.6598358
  41.1710625  29.1663837  74.4203186  42.4517365  28.5457973  73.9048309
  64.0673447  38.9884529  76.5756302  64.0693283  38.1109428  76.1932678
  63.4948082  39.4981995  76.0024033  38.0978889  38.1068535  79.3229599
  38.6553192  37.7764091  78.6184616  38.4622803  37.7190552  80.1186066
  49.1214981  45.1849937  30.4882870  49.7734680  45.8304558  30.7613182
  49.6210403  44.3781128  30.3632565  81.0766068  35.1553192  64.6629333
  80.7129745  36.0258408  64.5010681  80.5451584  34.8026810  65.3766861
  82.5621567  57.1532745  63.3103218  83.2685242  57.6918716  62.9536896
  81.9144516  57.1112404  62.6068001  55.9769249  18.2180042   5.0263891
  55.9023247  17.8521709   4.1450076  55.5214577  17.5891056   5.5860910
  39.1519089  55.4184837  64.9242096  38.5650978  54.8475761  64.4282837
  38.5977783  56.1475182  65.2029266  21.5675068  58.6639900   1.5224769
  22.4679298  58.6816483   1.8467541  21.5202007  57.8699150   0.9900859
   7.1438642  35.9317551  56.0880966   7.9842925  35.4897308  56.2086220
   6.9656663  36.3423119  56.9342155  30.8664951  71.4296951  62.0165901
  31.2841377  70.6284637  62.3325729  30.5525150  71.8647766  62.8092728
  11.1402407  37.6498337  26.7350273  10.9570999  37.1358337  25.9485817
  11.1025991  38.5598335  26.4405556  74.4791260  12.4053011  22.8783722
  74.4952698  13.3224602  22.6048946  73.5896835  12.2682161  23.2044563
  70.7840042  59.5431786  55.7677307  70.7926178  58.7313271  56.2747345
  69.9595337  59.9663963  56.0072441  81.7818146  16.6324902  80.6970673
  82.1545410  15.9615469  80.1251068  81.9987640  16.3400574  81.5823135
  51.0344734  60.5875053  46.1268768  51.1501732  60.6646805  45.1798325
  50.7142029  61.4472275  46.3998871  39.1575203  64.5068665  32.8604202
  38.7470360  63.9653816  32.1862297  38.6348228  65.3086243  32.8747787
  83.2870712  15.4020424  72.1245193  83.4023666  16.1719265  71.5675430
  82.3382263  15.3021021  72.2015762  35.6685257  26.9767971  87.6843872
  35.9770775  26.5432091  88.4800186  35.0296860  26.3686333  87.3125687
   5.9659534   6.9835563   2.6799433   6.5835299   7.0363312   1.9505286
   5.1992288   6.5432343   2.3132262  36.0446777  57.1854973  42.0733261
  36.8951378  57.5568962  42.3078728  36.2034187  56.7251396  41.2492485
  82.0214233  61.4342651  15.4168625  81.9517670  60.5593987  15.7989416
  81.6061707  61.3543510  14.5581360   0.3024097   9.5452785  69.5543747
   0.9152878  10.1890411  69.9095917   0.5026718   8.7375336  70.0273132
  69.1734085  10.6593657  86.8232727  68.3287430  10.5472097  86.3871613
  69.5191345  11.4785004  86.4686966   1.5480789  33.8958244   4.2640381
   1.7522221  32.9671631   4.3742433   0.6272706  33.9700279   4.5147133
   1.2078238  19.9309578  18.3894196   0.5234568  20.4938183  18.0273952
   0.7447461  19.1422920  18.6719074  70.7528610  55.3227730   3.6045752
  71.4859467  55.6587639   3.0889001  70.0966949  55.0733528   2.9538319
  75.1617355  20.7693291   0.4741964  76.1049118  20.8235397   0.6282024
  74.7717209  20.8543358   1.3441919   3.4808135  46.6915550  81.1689606
   4.0095472  47.4652138  80.9737015   3.7643228  46.0396805  80.5279312
  78.5529099  51.5635834  20.5279617  78.5393066  50.6538963  20.8254833
  77.6356583  51.7708969  20.3493462  44.7328224  43.5869598  18.8209972
  44.2698250  43.6708946  19.6545563  44.9597778  42.6587105  18.7654896
  51.4659843  46.5183411  45.4555130  51.3242340  47.4649811  45.4516640
  50.9673080  46.2045555  46.2098961  37.0837021  10.7574787   2.9218915
  37.9854507  11.0781803   2.9068425  37.0956764  10.0385790   3.5537703
   5.9581823  15.7816257  84.1045761   6.0797405  15.1851921  83.3658447
   6.3713183  16.5981140  83.8236847  26.6043129  20.0317211  57.2589607
  25.8825150  19.9107151  57.8758850  26.1776123  20.2571602  56.4323235
  52.4741402  42.1049728  49.3380432  52.4293594  41.6762810  50.1927109
  52.2831116  41.4081116  48.7102509  47.8017426  58.6037407  69.7106400
  46.8785439  58.4362717  69.5211945  47.9267159  59.5278854  69.4948502
  12.0197153  29.0570126  18.5872402  12.4348469  28.8038254  19.4117355
  11.5035839  29.8325500  18.8072033  -0.2857163  11.9067001  46.7038269
   0.0891500  12.1949816  47.5360527   0.2961139  12.2747126  46.0387917
  37.0751572  43.7027283  34.5969620  36.4178314  43.5260201  33.9239616
  37.6311989  42.9235954  34.5991020  84.9829788  36.8958931  19.3503056
  85.8630600  37.1019707  19.6653080  84.7976761  37.5716171  18.6981602
  12.0605316  44.5503883  65.7094727  12.2949381  43.6792870  65.3893585
  12.7951813  44.8063202  66.2671661  53.5809898  40.1336479  73.6582031
  54.0856171  40.6171379  74.3122787  52.9754295  39.5980988  74.1707535
  42.4509659  34.6503944  22.3812752  42.1297340  33.7957802  22.0937366
  43.3190918  34.7256317  21.9851341  72.2659912  17.9712734  50.7211075
  72.2878571  17.4310513  49.9312248  72.1432114  17.3461361  51.4355011
  22.4566936  44.9546432  10.8016567  22.7618179  44.0753250  11.0251122
  21.7642555  44.8111534  10.1565437  61.0286369  10.2316885   8.3571987
  61.2087250  10.6238832   9.2115898  60.3110085  10.7548037   8.0000010
  84.8977051  57.3789444  73.2940445  84.5894775  56.7439156  72.6475372
  85.8449173  57.2453156  73.3283157  15.9759521   0.5675979  17.2588501
  15.0958233   0.3890067  17.5900745  16.5480652   0.4330969  18.0143814
  48.8011856  69.3349457  13.8042812  49.3166924  68.5358124  13.6953735
  48.0760231  69.2381668  13.1870260   2.1677656  52.7646446  44.5002403
   1.3178982  52.7662163  44.0598373   2.5475097  51.9127769  44.2849579
  81.4501953  71.0644760  67.5445709  80.5587540  70.9860229  67.2048416
  81.6600876  71.9939728  67.4539948  42.9176941  68.5193787  43.0004272
  43.7121735  68.7615280  42.5246124  43.0989838  67.6424942  43.3387070
  71.6704559   8.7992783  31.9841537  71.5343781   9.7428398  32.0702133
  71.1803284   8.4191256  32.7131882  12.0481453  25.0353241  74.4680786
  12.1236506  24.1524601  74.1060257  12.3145723  24.9426880  75.3827744
  13.1773720  46.9620628  63.1957893  13.8516407  46.5650558  63.7471352
  13.5982428  47.0698280  62.3428612  10.5890274  20.0538025  21.2267513
   9.9876032  19.4079342  21.5973949  10.1192608  20.4147472  20.4749069
  81.9656219  71.4525986  88.7629700  81.1095047  71.7651215  89.0555954
  81.8763733  70.4999542  88.7358170   5.2739191  49.8575783  44.8208809
   5.7684522  50.3524094  45.4741898   5.9335866  49.3309975  44.3694572
  12.4245253  67.3020935  48.7516098  13.1641235  67.8729477  48.5433960
  12.1711359  67.5528030  49.6399651  30.7716599  62.0592613  33.4576187
  31.2900639  62.0554657  32.6529617  30.5622883  62.9818535  33.6032944
   6.7302828   1.0527028  32.3429604   6.9569106   1.8486339  32.8239670
   6.0745001   1.3363278  31.7059860  42.9841385  67.3224258  28.2349377
  42.9224358  68.1710510  28.6734066  43.5837479  66.8138046  28.7808437
  24.0000725  55.2652588  32.9482307  23.2562332  55.2568665  32.3458481
  23.6104031  55.1293144  33.8118896  24.5043869  39.8183441  51.8165779
  24.4233723  40.5429611  52.4367371  23.6178646  39.6923637  51.4782867
  27.1756821  12.7028961  83.9684372  27.6423035  12.2549515  84.6740189
  26.4558525  13.1561699  84.4073257  68.5787735  26.9765663  40.9749146
  67.7302780  27.4192123  40.9939575  68.8677368  26.9732800  41.8874474
  37.4134064   0.3346744  24.7310467  37.4776344   0.9649196  24.0134830
  37.7871819   0.7910653  25.4848557  45.7231331   2.5511088   9.3073015
  46.3423882   2.1393397   8.7046404  45.7229919   1.9816302  10.0766687
   4.6218319   4.4587507  36.7857018   4.2086072   5.3121004  36.9171257
   4.3198934   3.9301209  37.5243607  72.8343277  50.8706970  14.0914059
  73.6878967  50.8844566  14.5243759  72.9943008  51.2650108  13.2339926
  81.2008896  54.3848152  24.0083733  81.6312485  53.8465614  24.6726856
  81.2728043  55.2793121  24.3414364  64.9674683  68.5042343  22.6804180
  65.3844757  69.3218231  22.9522457  64.0457840  68.7334976  22.5614128
  26.1777096  14.1981182  77.4435196  26.7736416  13.9588985  76.7336807
  26.3514862  15.1263895  77.5995560  27.8539925  51.3047943  32.9313126
  27.1616364  51.9172173  32.6826897  27.5962811  50.4755859  32.5285378
  56.3923492  64.9860382  27.6659832  56.6971703  64.4437256  28.3934536
  55.6999435  65.5276566  28.0447311   2.6874561   6.1998415  27.9967308
   2.1891093   5.5144219  27.5516663   2.5236957   6.9888430  27.4801140
  37.8331375  48.9200974  38.2033081  38.0872917  48.7857895  39.1163254
  36.9451065  48.5672264  38.1474953  77.6547546  26.8332062   7.1003170
  77.5512848  27.7775822   6.9833460  77.1738586  26.4470844   6.3682761
  83.0211334  22.1643524  76.1250839  83.4235687  21.6728058  76.8410873
  82.7231216  22.9782982  76.5311813  70.7456741   0.7967533  11.4529591
  70.1611099   1.5519571  11.5176630  70.2984772   0.1982963  10.8545494
  70.8830948  53.9704094  50.2084274  70.7135773  54.7661552  50.7126961
  71.0793304  54.2836380  49.3254738   0.1861907  30.5345879  29.0998116
   0.5969554  30.3499680  28.2551708   0.6685679  31.2875595  29.4412460
  85.0429688  46.6869164  60.0929222  84.6446381  46.9674377  60.9168587
  85.9375839  47.0251083  60.1320305  11.3434362  66.0071869  46.6137352
  10.8072224  65.3994675  47.1230278  11.8273783  66.5078506  47.2705269
  61.2488289  56.4664230  80.1933594  61.1655121  57.2011833  80.8011627
  60.4593468  56.5110817  79.6539612  83.3589859  16.9010696   0.1609843
  83.1780396  17.8374329   0.2429391  82.6360474  16.4761314   0.6225227
  53.1638718  40.5991516  66.4313812  53.5811958  41.0953636  65.7272186
  53.8933487  40.2559128  66.9474106  35.6225700  52.1555557  84.6980972
  34.7981949  52.5168152  84.3723221  35.3963585  51.7665901  85.5429382
  20.4209442  50.0308876  69.3193512  20.9295616  49.2200241  69.3132935
  19.5419693  49.7603035  69.5847168  75.2505875  48.6439629  70.2337494
  75.3017731  47.8490906  70.7645874  74.4127731  49.0392914  70.4746323
  54.8297806  57.2437935   1.6232411  55.6169090  56.8222694   1.2783014
  55.1584663  57.8900108   2.2482188  29.0318222  41.7951889  66.7485657
  29.5858898  41.0187798  66.6683578  29.6421108  42.5310020  66.7000656
  21.3017311  68.6490402  24.3134499  22.0705471  68.3088989  24.7711163
  21.3187218  68.2142715  23.4608536  25.5494270  15.4964952  13.0703869
  26.3558693  15.1994734  13.4918842  25.2543182  14.7425461  12.5597944
  57.4809418  36.0867157  50.7559280  57.6321564  35.7384605  49.8772430
  56.6690521  35.6686707  51.0428047  53.4177818  25.4141045  18.8937187
  53.8462906  25.0815353  18.1050453  52.8756027  26.1395645  18.5839138
  26.2167015   5.7971849  86.9603348  25.7418003   5.9253230  86.1391830
  25.8426571   6.4454813  87.5570145  71.3096161  16.8960514  78.2005615
  71.0007782  17.7926579  78.0703735  72.2482681  16.9874458  78.3642883
  14.1907969  63.6995697  44.3250542  14.1309624  63.9527969  43.4039001
  14.8755941  63.0310936  44.3456955  78.5605927  58.0469933  40.4305725
  79.2901688  58.2230721  39.8364792  78.9050827  58.2510681  41.3000031
  76.4231033   6.0136528  70.1078033  76.4264450   5.9426923  71.0623703
  76.9629517   6.7821546  69.9228745  61.3210564  14.3556833   5.9576359
  60.8955994  14.9395342   5.3296742  61.4889870  14.9072132   6.7217340
  50.0354996  35.9520149  14.3213120  49.2059631  35.5527420  14.5833864
  49.7810364  36.7023125  13.7841597  85.1583786  34.4015121  68.0298157
  85.2317123  33.9747925  67.1761398  84.6775055  35.2100258  67.8529205
  19.4190636   3.2924359  80.2700729  20.2704983   3.0658827  79.8959579
  19.1908684   2.5416267  80.8181992  61.6990166  59.9860497   1.4337966
  61.1301804  60.0053711   0.6641954  61.4949646  60.7951279   1.9028251
  12.2663183  68.2374725  63.8351059  12.3481083  68.9286728  63.1780090
  11.3967791  68.3682175  64.2133102  61.4390793  12.1788263  70.1858673
  62.0481186  12.9042549  70.3239136  60.7436218  12.5499954  69.6429062
  10.5925541   4.4483871  55.6875801  10.1149035   4.3463879  56.5107918
  11.4542332   4.7728353  55.9492569  51.8531418  14.9761276   7.2727957
  52.7283707  15.1070480   6.9080067  52.0029716  14.5014210   8.0903759
  33.0256271  44.4932327   6.0426917  33.9167328  44.2185364   5.8265800
  32.4833069  43.7325096   5.8343101  63.8265114   7.1800718  37.4177437
  63.3913841   6.9273796  38.2320213  63.2815323   6.8019514  36.7276306
  75.9671707  39.5902061  15.5507708  75.8270264  38.9854736  16.2793922
  75.9313202  39.0372353  14.7702780   0.0732184  63.6314888  42.9874878
  -0.5157301  63.4335976  43.7156410   0.7167492  62.9230194  43.0005951
  53.1429825  29.3032207   1.6588577  53.8778305  28.6998291   1.7690592
  52.5480499  28.8495789   1.0617827  77.7833862  55.9396629  68.9715042
  77.9521103  56.8787193  69.0485687  77.5687408  55.6610298  69.8617401
  17.9382076  63.9918327  21.6497517  17.2177505  64.2700272  22.2152462
  18.3103981  64.8084335  21.3167877  60.4312401   3.5638022  55.4681358
  60.2636452   3.8923903  56.3514099  60.3402748   2.6140113  55.5446510
  27.9314613  35.1751404   1.0926421  27.7290287  34.2767410   1.3536667
  28.6087971  35.0830269   0.4225939  72.3565826  45.1867943  19.7891159
  72.7275391  44.4677467  20.3005753  71.7953033  45.6554451  20.4068241
  78.0843048  40.3459969   5.1988959  78.7220612  40.8532524   5.7010884
  78.0591965  39.4941368   5.6347136  59.1655388  15.7379503  12.0152597
  59.5264282  16.0372715  11.1807556  59.7324753  16.1338177  12.6771536
   2.0260990   3.0362523  63.5836411   1.2958999   3.6533999  63.5370674
   1.9029503   2.5819650  64.4171219  32.2412567  62.0497093  22.4426613
  33.0786476  61.9767609  22.9005775  32.3429832  62.8159180  21.8780327
  12.4639435  16.0720921  80.8014755  12.2886753  15.7174358  79.9298477
  11.7085705  15.8048391  81.3251343   4.8331857  56.8722382  32.4252548
   5.1343479  56.7391624  31.5264645   4.1565561  56.2071648  32.5520821
  84.3900146  47.1395226  12.2200832  84.8170013  47.8230400  11.7036304
  83.4841843  47.4361954  12.3077221   6.4691763  16.9470043   9.9094477
   6.7557859  16.0802059  10.1971083   6.5955696  17.5073833  10.6751060
  55.6120415  65.2916107  37.4098511  54.6787758  65.5036926  37.3932838
  55.8917999  65.5110931  38.2985535   0.8900148  27.8745518  32.3191032
   0.2192589  28.0937080  31.6723518   1.6217779  28.4556599  32.1115761
  44.3132858  39.3424644  63.6343498  44.3777733  39.1067123  62.7088814
  43.8853912  40.1987000  63.6341400   2.7762918   9.3032761  53.5417595
   2.2128954   9.0798225  52.8008957   2.2360976   9.8718681  54.0905113
  54.4149017  50.9939117  53.3878021  54.1849556  50.4864044  54.1661301
  54.8710709  50.3710938  52.8219070  83.9506226   7.6535583  77.6501160
  83.3165207   7.5075898  78.3521423  83.4397964   7.5705166  76.8448868
  29.6836948  15.6326160   8.2739105  29.8196945  16.3049889   8.9414816
  30.4349403  15.0468540   8.3674135  33.4674377  67.1201706  85.1541290
  34.2036552  67.2386017  84.5539780  32.6959610  67.1093369  84.5876160
  82.1543808  44.8207130  80.0925980  81.7998810  44.9588394  80.9709396
  83.0948029  44.9718933  80.1873627  74.1171417  42.3833923  57.8102455
  73.3808746  41.7929077  57.9698639  73.7178802  43.1677780  57.4340019
  65.0141983  62.8304291  65.0452271  64.9812546  62.5786362  64.1223297
  65.8770523  62.5410156  65.3417969  54.2350960  21.6533279  16.1911011
  53.5663910  21.4141140  16.8328495  54.9072037  20.9779320  16.2824402
  14.2804918  55.9078751  13.6889534  13.5583076  56.2276573  13.1481934
  14.3881464  56.5770493  14.3648615  48.9128799  40.7853432   0.7160707
  48.4312782  39.9823456   0.5173606  48.5753174  41.0625343   1.5678020
  72.7731323  44.4772835  50.8135338  72.9911118  43.5472984  50.7515602
  71.9328842  44.5569496  50.3620148  73.4583588   4.4967847  58.1731148
  72.8318100   3.9908419  58.6905022  73.5612335   5.3166447  58.6563110
  10.3847408  46.7829285  66.0131531  11.0263224  46.0801163  65.9099045
   9.6009750  46.3449059  66.3449402  84.4339294  56.9362297  28.2711086
  84.2389374  57.0803413  29.1970901  84.3585587  55.9890823  28.1550579
  54.7544899  67.6549759  53.5520897  54.4355049  66.9767227  54.1474495
  54.2414207  68.4312744  53.7765007  78.1007309  66.8590088  18.9833889
  77.4905319  66.8861008  18.2463989  78.9673309  66.8578033  18.5769081
  73.6287308  67.9437714  68.5488586  73.5726624  68.8951263  68.6384048
  73.6705551  67.6205444  69.4488602   2.1203754  56.0070763  88.5107193
   2.8335462  56.6408653  88.4337158   1.4542900  56.3205261  87.8989105
  31.4602356  54.2782936  32.5408249  30.5514774  54.5256805  32.7116814
  31.9133911  55.1103439  32.4045219  84.1425934  17.2088165   8.1668234
  84.2071304  16.8145943   7.2969642  84.0030136  18.1405697   7.9977536
  41.2431870  70.2350616  69.4524536  40.3267212  70.0590363  69.6653748
  41.2474098  71.1407089  69.1425934  17.8774948  70.2704849  65.3147964
  17.2451191  70.9795914  65.4309692  17.3788090  69.5718613  64.8911667
  36.6023941  56.0055542  73.6072006  36.8430557  56.9038696  73.3806076
  36.8338852  55.9216537  74.5321884  64.0253677  13.2657051  73.2599716
  64.6603470  13.8467932  73.6787567  64.0915604  13.4709435  72.3273773
  37.9725380  42.4120102  22.7605553  37.0310898  42.5255814  22.8909531
  38.3110466  43.3028145  22.6704807  54.3506775  53.1162453  49.1383057
  53.7532654  53.4700966  48.4794273  53.7845840  52.6324005  49.7396927
  67.2864380  58.0753784  30.4397793  67.3493195  57.5074234  29.6718559
  67.7373886  58.8790207  30.1808777  58.6453476   8.4222746  33.1528740
  57.8442688   8.1480103  33.5992851  58.5256348   9.3596354  33.0003777
  54.2513809   2.1524386  34.2048531  53.3891068   1.7559074  34.3292694
  54.2083893   2.9763651  34.6901665  52.2381210  16.8429832  13.2674055
  52.1320915  17.0965462  12.3505116  53.1579819  16.5885983  13.3407240
  15.6678219  59.3258858  34.6070709  14.7604284  59.1211967  34.3813019
  16.1767426  59.0162582  33.8578300  18.4881382  71.4012070  31.9965496
  19.0437775  72.1398163  32.2454529  18.0714073  71.1288071  32.8140869
  13.8750143  46.4986992   2.7632062  14.2142658  46.8992462   3.5636444
  13.9535275  45.5568504   2.9148221  34.8980980  58.1126785  34.3309593
  34.1815720  58.7248535  34.1634407  35.6216469  58.6657104  34.6256866
  36.5253143  54.1251945  48.6842804  36.2440224  53.6035500  47.9326210
  37.1865692  53.5849037  49.1167831  82.1511536  49.0009918  68.8654861
  82.2328110  48.0864182  68.5950775  81.9262161  49.4692841  68.0615311
  22.1362896  43.1588135  18.4597321  21.6837845  42.3498459  18.6985722
  21.6418648  43.4985580  17.7138443  56.5365524  62.1376381  86.4210739
  56.2512627  63.0091591  86.1466827  55.9554749  61.5373001  85.9539795
  31.8007164  32.7163582  82.4994812  31.1929817  32.9014320  81.7834930
  31.4205494  31.9604073  82.9469681   7.7002268  34.8714371  20.3801384
   8.0747004  35.7366180  20.5458527   7.5613770  34.4997101  21.2512131
  30.0695362  54.3037033   2.7631574  29.1702785  54.5558319   2.5534000
  30.4149818  55.0428886   3.2636628  12.8955069   7.1180549  59.3484612
  12.7207432   6.9062471  58.4314957  13.4278917   7.9127693  59.3134460
  64.2108231  19.7403545  16.4769211  64.5633316  20.3985863  15.8780050
  63.9490662  19.0155849  15.9090967  66.1378479   3.5479603  13.8508759
  66.6159744   2.7455204  13.6417923  66.5764771   4.2281718  13.3398495
  19.9782391  44.3703575  30.3875103  19.6237965  45.1016808  30.8932476
  20.1428719  44.7373276  29.5189133  59.0976257  30.7357140  52.1244049
  59.8791161  30.6691418  51.5757065  58.4707069  31.2233582  51.5901680
  45.7977524   5.3248248  53.2851372  45.9893570   5.4289422  52.3531075
  46.4172096   5.9081192  53.7236252  29.6142082  32.7451668  14.7098093
  30.0786743  32.1261063  14.1465454  30.3081875  33.2211571  15.1659460
  83.5757370  13.6990957  29.2815495  83.2241898  13.6931915  28.3912640
  83.1094971  14.4118223  29.7184410  64.6746674   6.7353172  10.5062971
  64.1499634   6.6175728   9.7144308  64.1285248   6.3846283  11.2098446
  41.3051796  38.0743904  85.3072205  40.4907684  38.5657043  85.1996384
  41.9681320  38.6117516  84.8736649  22.7224064  33.6833725  84.4494781
  22.5323811  34.5331459  84.8469772  22.6002140  33.0538445  85.1601105
  48.4363213   2.7588096  83.4821167  49.0190010   3.2584364  82.9102020
  47.5853386   3.1873469  83.3903580  73.1179886   1.5079654  33.3922691
  73.0078735   2.2698724  33.9611320  72.8554688   0.7641978  33.9346046
   5.1680818  36.7956238  42.1126480   4.3338723  36.7272530  41.6482620
   5.7406154  36.1690559  41.6700935  10.3573265  66.8447266  80.8889771
  11.0357609  67.2004547  80.3150253  10.7276096  66.0259094  81.2186203
  53.4199104  18.7271557  74.0049515  53.1173096  19.6298504  73.9059296
  54.3343201  18.8094120  74.2757263  36.8854942  31.7048187  68.1087494
  36.7447433  31.0558701  67.4193344  37.1908913  31.1948299  68.8590012
  15.4375839  28.5134792  11.8408918  15.3549824  27.5785084  11.6531734
  16.2755547  28.7628860  11.4512329  31.4118729  49.3375702  49.2025490
  30.8271656  49.0643654  48.4956474  30.8581238  49.3416939  49.9833031
  68.3764114   4.8006625  50.1097641  67.8920364   5.6088634  50.2783737
  69.2788773   5.0871472  49.9693832  65.2192230   9.3962679  54.4619675
  64.9119720  10.2721987  54.2283554  65.9789276   9.2506485  53.8981628
  59.6606255  70.1858826  73.5334167  59.8053284  70.4149857  74.4514618
  58.7110672  70.0927658  73.4566040  66.8325195  56.4891510  21.4595356
  65.8941879  56.3407860  21.3422585  66.9595032  57.4104233  21.2328892
  35.2879181  70.0279236  79.9214249  34.3602943  70.2166595  79.7795792
  35.5715294  70.6849289  80.5571518  34.5921326  45.8673553  79.7480850
  34.1522980  46.6557884  79.4300461  33.9911346  45.5035553  80.3982239
  11.8260231  15.2136765  30.4509506  11.0125132  14.7191219  30.3517036
  12.5177650  14.5604773  30.3458042  34.1771469   1.3739436  54.8812370
  34.8886719   0.9435238  54.4072075  34.0189629   0.8107159  55.6388550
  77.3861618  14.8072271   2.3891983  77.1224976  14.3397446   1.5966246
  77.2465515  14.1774311   3.0963743  26.6890221   4.0482717  40.3038063
  27.2798882   4.1818371  41.0449333  25.8165684   4.0144610  40.6961212
  17.1183701  70.2448730  78.4937820  16.8376675  70.9631424  79.0608139
  16.5386467  70.2989197  77.7340240  28.9348392   8.7922897   7.8502512
  28.1155701   9.1908045   8.1438761  29.4923382   9.5347090   7.6173539
  48.1935387  28.1066113  61.3532829  48.3903923  28.9900398  61.0417786
  48.0393600  28.2124691  62.2920380  31.2532101  64.7739182  43.1593666
  30.7330780  63.9959869  42.9580917  30.6617355  65.3340378  43.6620178
  28.7785034  57.1356354  17.4485664  28.7494354  57.4582100  18.3493080
  29.6966972  56.9058037  17.3059807  26.0120659  17.8449078  64.5597229
  25.3171101  17.8637924  63.9017639  25.9111576  18.6676788  65.0383682
  23.0615215  71.1501160  82.6764297  23.9062424  71.4135056  83.0415421
  23.0640755  70.1945267  82.7319565  75.9993668  14.7647934  57.7732735
  75.8056641  14.4276752  56.8985939  76.2338181  13.9889326  58.2824898
  12.6549978  24.3949852  21.4890499  13.3506956  25.0150528  21.2705231
  12.8642483  24.1031837  22.3763485  33.5403786   0.1557965  57.1099358
  34.3583832  -0.1137381  57.5276070  32.9332809   0.2912931  57.8374710
  29.9953403  64.9868469  67.1963959  29.3442173  65.6832428  67.1108932
  29.7964287  64.3837204  66.4802246  71.9249725  16.6739635   0.8114151
  70.9849548  16.5455265   0.6844979  72.1256027  17.4726887   0.3235440
   4.6877780  66.4737244  17.9806652   3.9027207  65.9268646  18.0100441
   5.0475993  66.4239807  18.8662643  83.9779129   8.6338253  41.8502655
  84.3384094   9.2311010  41.1948776  83.0688782   8.9144545  41.9558067
   3.3117449  67.9280624  44.3579712   3.3833535  67.3655167  45.1291046
   3.0253024  67.3405609  43.6586723  26.7086201  30.1325340  72.9241867
  27.1954269  30.4508991  72.1639938  25.7895756  30.1986446  72.6649246
  46.0108948  70.3666077  58.2650719  45.9935341  71.3210831  58.3351097
  45.2233543  70.0782394  58.7264328  25.3537655  41.3502235  58.0442352
  25.7428951  41.2099419  57.1810226  25.5591755  42.2612038  58.2543755
  58.3173752   2.9308167  52.9166222  57.4170532   3.0365820  52.6092644
  58.4254150   3.6119249  53.5804367   7.5590835  15.0757446  62.8915863
   6.9334826  14.3675089  63.0440903   7.1603074  15.6025658  62.1990051
  38.5274010  68.6725693  20.3232517  39.3669891  68.2134857  20.3469944
  38.7442474  69.5796738  20.5385799   0.6948766  37.9218597  44.2041855
   1.5537698  38.1552811  44.5563889   0.7662559  36.9901581  43.9966698
  30.4560204  19.1353722  71.1724091  30.5441570  18.4146271  71.7961044
  29.8506794  19.7448559  71.5946960  22.8540401   9.5632792   6.9565167
  22.3303509   9.7032032   6.1675911  23.4325123   8.8339090   6.7337642
  62.8368568  31.1391354  10.6515408  62.4966736  31.7663937  11.2895517
  63.7679138  31.0654030  10.8611231  36.7597008  59.9416161  68.1151276
  37.5694046  60.3941040  68.3514938  36.4016113  59.6396751  68.9498901
  47.4527016  40.6020966  49.2631493  48.0925140  39.8902168  49.2532120
  47.4701881  40.9522934  48.3724785  53.9300957  56.5603409  59.3513794
  54.3001480  56.3953514  60.2186012  54.6921654  56.6610756  58.7809982
  63.9289360  58.8026123  63.9717216  64.2293320  59.7114525  63.9736176
  64.7180710  58.2898941  63.7967300  32.1295738  38.2569923  12.8372049
  31.4961033  38.2351112  13.5544701  31.7724895  38.8972435  12.2217369
   2.5807412  41.6335869   1.6341937   3.0856669  41.6388092   0.8210179
   3.1872621  41.2906799   2.2905312  62.5552864  63.8194466  29.2102985
  62.4686508  64.5872116  28.6452694  62.2915421  64.1288223  30.0768757
  73.5259094  69.5532684  57.3812332  73.7814255  68.7376862  57.8122444
  73.4745636  69.3274536  56.4524689  71.4786301  21.7664967  49.3867340
  70.6228027  22.0047321  49.0303154  71.9626923  22.5916405  49.4191895
  39.5753670  68.2668304   8.3465939  39.7863045  69.1985626   8.2864780
  39.3941574  68.0035858   7.4443212  39.7510262  31.5977440  72.3138657
  40.4984665  31.9008484  71.7984085  39.5591202  32.3238335  72.9073257
  48.3865700   1.8340299  49.5219727  48.8548241   1.1913066  48.9891739
  48.0643082   1.3341948  50.2720032  77.5472412  32.0018539  73.2194595
  77.7673340  31.4622326  72.4601135  78.0815659  32.7893486  73.1166229
  58.2061272  15.7166662   0.4889790  57.3852615  15.2283697   0.5520616
  57.9574242  16.5535736   0.0965949  35.1754379  41.4809418  75.6089172
  35.1025162  41.7636108  74.6973190  34.2696304  41.3914909  75.9051285
  10.2993755  63.0028229  20.6916561   9.5961809  62.4772339  21.0731106
  10.9983234  62.9781914  21.3451843  53.4025459  40.0991631  56.6474304
  53.1789474  40.8663902  57.1743088  52.7846603  40.1220627  55.9167328
  11.6538191  66.3810043  66.2526474  11.6819658  66.8241272  65.4046631
  10.8424368  65.8736420  66.2309494  57.0262146   2.6451683  23.3258705
  56.3952599   3.3627040  23.3830719  56.5469093   1.8790381  23.6413784
  68.5475616   1.0378640  28.7775078  68.8122101   0.5048915  29.5272617
  68.3821030   1.9053285  29.1467781  42.1791649  60.5101662  70.1441956
  42.3427162  60.1068535  70.9967346  42.9959297  60.9621277  69.9324036
  38.5025406   1.2173707  27.3943081  38.0323639   1.9489622  27.7942333
  39.2730331   1.0958849  27.9491196   3.0300970  23.6043644  59.1418762
   3.1953998  22.6668377  59.0421257   3.6500647  24.0218372  58.5438881
  33.9423943  54.9034920  69.6016159  33.7671471  55.8297234  69.4354324
  34.0810776  54.8518906  70.5473099  55.9651337  48.6356621  45.3774529
  55.1900406  48.7953339  45.9159355  55.6352272  48.1517944  44.6203079
  41.8059731   3.2110777  71.0304031  41.1609230   2.9519033  71.6884155
  41.3702660   3.8975167  70.5252380  35.3022270  57.2632065  26.8740406
  35.3224525  57.5929031  27.7724419  35.5039062  58.0272865  26.3339100
  48.7570419   5.3649178  72.0782852  49.0531769   4.4547019  72.0718231
  49.1542320   5.7515559  71.2979126  50.6286659  61.5060349   1.3785083
  50.5507736  61.7793198   2.2925539  51.5705414  61.5061760   1.2079099
  70.4875946   5.0967650  24.8417702  70.5295181   6.0428061  24.7021980
  69.5525818   4.8928766  24.8214989  52.8077126  70.7948151  87.4155426
  53.4652634  70.4050293  86.8394165  53.1443787  71.6705475  87.6052322
  81.7959442  14.0662222  75.6266022  82.0474930  13.8188457  76.5164108
  81.2123718  14.8160648  75.7423935  79.3042068  40.8930740  12.7294102
  79.9235764  40.8409767  12.0014668  78.5641479  41.3889465  12.3791885
  26.8921623  32.3633194  78.4164581  26.1269855  32.9083557  78.2329559
  27.4644718  32.9228897  78.9414062  74.2907791  17.3150673  84.6762009
  74.9377289  16.6108875  84.7188950  73.9248505  17.2509575  83.7940369
  13.4089499  39.6989517  76.2128448  13.0358620  38.9424133  75.7604218
  13.9157085  39.3219643  76.9320831   4.7531533  61.5254135  33.6009941
   5.1802359  60.6696815  33.5615196   4.7532535  61.8351555  32.6952934
  60.2195168  43.5733681  87.8175659  59.4168129  43.1111145  88.0588379
  59.9221878  44.2995033  87.2693405  67.0491333  11.9920874   0.1857166
  66.3768005  12.6488390   0.3670399  66.5982895  11.3240557  -0.3307242
   5.6742339  30.9024315  29.2292767   6.5169539  31.2013073  28.8876209
   5.0506845  31.0921917  28.5282707  38.5081177   4.3046560  24.8226280
  37.8910637   4.6263056  25.4799080  39.1405602   3.7869859  25.3208923
  60.4709396  61.5989952   6.4427657  59.7112045  61.0278053   6.3297238
  60.9637451  61.2026825   7.1613135  49.7498245  12.5191469  78.0989227
  50.1168747  13.3810415  77.9023438  48.8025093  12.6432066  78.0402985
  82.6499557  32.8588066  59.5838966  83.1043701  32.0753212  59.2742348
  82.9938583  33.5663834  59.0386505  12.9115343  23.4034996  76.6232071
  12.8065805  23.1256332  77.5331573  12.9006014  22.5886021  76.1211624
  62.6732903  51.3410568  62.7074585  62.8361130  50.5501518  62.1934586
  63.3814545  51.9363632  62.4618111   3.9597101  71.0358353   9.1794863
   4.0411801  70.4334335   8.4400902   4.5671334  70.6935730   9.8353271
  17.4528046  10.6509476  88.6210480  18.2870255  10.6795816  88.1525574
  17.6079884  11.1583233  89.4177475   9.7580700   1.4760733  63.8232803
   8.8990011   1.8974769  63.7977562   9.6918449   0.8401750  64.5356598
  81.7687836  28.2073517  33.1876640  81.7653122  27.6516361  32.4083023
  82.4151840  28.8864479  32.9947319  77.2749176  33.8255615   2.9116106
  77.5241699  34.4780617   2.2571261  77.7801285  33.0468483   2.6779530
  62.3943634  16.2821999   7.6949334  63.2872467  16.3856773   8.0239925
  62.2763596  17.0133286   7.0885019  10.5724545  54.2283554  62.6670990
  11.3434820  54.5211411  62.1812744  10.6300116  53.2729683  62.6545753
  70.8805771   6.2150087  60.2343979  70.4810944   6.2102861  61.1042366
  70.8386002   5.3030643  59.9465981   8.9297333  43.1398468  27.9633255
   8.1681843  43.4458694  28.4558964   8.5860977  42.9353371  27.0936584
   9.0704622  70.3054199  34.1003532   8.9237156  71.2482758  34.0246773
   8.4352913  70.0159760  34.7553444  75.2701035  59.3360367  48.8311729
  75.7154236  59.1671562  49.6614761  75.3614883  58.5195808  48.3399773
  39.0663719  19.0739365  83.2673264  39.1436806  20.0263920  83.2117767
  39.1304855  18.8826027  84.2030182   1.1357528  31.5063000  61.9483414
   1.0353967  31.9204350  62.8054581   0.7432661  32.1273994  61.3348083
  35.1503448   5.1323934  40.8279648  34.6120033   5.8719931  40.5461655
  35.9519768   5.2087393  40.3104858  52.1304703  36.7895050   8.5106153
  51.4267540  36.7038383   7.8674374  52.8950386  36.4051590   8.0817251
   7.1353397  38.1262932  40.6005440   6.5512867  37.7947617  41.2826004
   7.3122139  39.0316734  40.8559532  86.6536026  55.8729019   0.7285398
  86.1330414  55.3578987   0.1120829  87.4466705  56.0984344   0.2423249
  18.4603901  70.4999237  15.6716194  18.2548904  69.5970154  15.4292221
  18.0406704  70.6206970  16.5233688   1.4578636  27.4849815  75.7626114
   1.4748722  28.4251614  75.9415054   2.0584760  27.1079369  76.4055252
  25.5876083  22.3984032   7.8890305  25.5969238  22.0879841   8.7944508
  25.3585606  23.3253803   7.9559879  34.1997490  62.4664650  79.0537262
  33.4334793  62.7238884  79.5663605  34.7613564  62.0059509  79.6772308
  82.9532471  24.5438557   3.4832182  82.3731613  24.8453083   4.1824026
  83.3346176  23.7335320   3.8210995  69.0746307   0.2928949  88.8157425
  69.5560608   1.1116679  88.9343338  68.6009445   0.1722092  89.6387177
  81.6585236  30.2882423   6.1430521  81.0221786  30.5971947   6.7879109
  81.7946701  31.0373783   5.5629716  26.3765697  30.4084301  88.0381851
  26.6758022  31.0697308  87.4141922  25.4271564  30.5249519  88.0737991
  81.2466278  63.0782967  38.9826088  81.8389130  63.5438538  38.3921127
  81.0594559  62.2540894  38.5332985  68.9055176  64.8111877   9.2980070
  69.1671066  64.1757431   9.9643478  69.1298218  65.6612625   9.6765499
  82.1398544  37.6705132  67.6313019  81.8487625  36.7669563  67.7541199
  81.3624878  38.1991692  67.8114700  44.7699051  29.9504356  14.2130985
  45.3158340  30.7349129  14.2659435  44.1765862  30.0207100  14.9609404
   6.4953828  49.6793098  34.0107498   6.0932336  48.8324852  34.2041321
   6.4006648  49.7786942  33.0634499  14.6746321  65.0289764  81.1902313
  15.4799318  64.5190201  81.2778015  14.4314880  64.9364014  80.2690659
  34.3034401  17.7311897  79.8449173  35.0697517  17.1708508  79.9674759
  34.0163345  17.5518570  78.9495697  46.3270416   1.2725177  30.7829628
  47.1383438   1.6464251  31.1267910  45.7314796   2.0183527  30.7103825
   6.4090781  11.9197969  56.2025146   7.2663922  12.0551596  55.7988777
   6.0775952  11.1182795  55.7976456  57.2382431  60.8206863   2.2101662
  57.2847366  60.8504105   1.2545582  56.5320702  60.2019501   2.3964739
  39.5632706  52.3657150  85.2051620  39.2722130  51.9706116  86.0269928
  40.2519379  51.7809219  84.8889542  50.7847366  57.9605522  69.7230530
  51.0973244  57.5258904  68.9295883  49.8553848  57.7359848  69.7688828
  48.8355026  13.4147778  42.0451431  49.2692528  12.9138880  41.3543434
  49.3906822  13.2914152  42.8150673  47.5439949  28.1832333  63.9148140
  47.4109764  27.3660526  64.3951874  47.6236115  28.8511505  64.5958252
  62.4454651  19.8473606  43.8030205  62.8264771  19.4649429  44.5934753
  61.8067474  19.1987591  43.5070686  68.8157730  57.5146103  58.9784393
  69.3432693  58.1779823  59.4233246  68.5599976  56.9069862  59.6724167
  20.4941559  53.8990135  29.8543015  20.8259163  53.0018044  29.8887672
  20.1029797  53.9764671  28.9841213  29.9560127  24.9411774  72.9135513
  29.5121822  25.7892570  72.9162292  30.8553181  25.1423054  72.6546478
  12.6153450  23.5658741  67.8279877  12.4865627  22.6191063  67.7707443
  12.6595860  23.7452202  68.7671967  69.1386108  46.2231636  86.8665771
  69.0218277  45.9191437  85.9664841  68.6837769  45.5716705  87.4003525
  31.7423954  40.1954880  42.8788910  31.0405788  40.1328735  43.5267868
  31.5067921  40.9528275  42.3430176  80.1320953  49.6795273  64.0416870
  80.3848724  50.5678368  63.7902107  79.3049927  49.5273819  63.5845375
   5.2899289   4.1170516  85.1898880   4.5831628   4.6468449  84.8210678
   5.8114934   4.7359109  85.7009811  12.5914974   1.4502943   8.7446308
  12.9000463   0.8791900   8.0411615  11.7213135   1.1152474   8.9608641
  65.8535690  50.6933899  55.9296341  66.4804916  51.3854790  56.1398964
  65.1859436  51.1280937  55.3990288  66.8659363  70.8877411  10.6414022
  66.1140289  70.9886856  10.0577250  66.4838867  70.8369904  11.5175819
  42.7495804  58.0693626  56.9879951  42.4723816  58.8012123  57.5391617
  43.5591698  58.3723450  56.5769005   7.0276890  37.0869942  85.7403259
   7.8412452  36.7732124  86.1351700   7.3106837  37.7148895  85.0755768
  65.3757248  32.9369621  66.7229614  64.8309937  33.6605873  67.0325699
  64.9339142  32.6255417  65.9329910  86.6339417  56.0072365  10.5191050
  87.3706284  55.4110985  10.3843880  86.0588531  55.8503838   9.7701702
  80.1583252  41.0636444  78.3077774  79.7361755  41.8137817  77.8890839
  80.7270889  41.4498482  78.9738007  17.2914391  67.2998581  45.8352356
  16.6096401  66.9294434  46.3957443  18.0777588  67.2974014  46.3810616
  62.0950584  65.3725281  18.5602970  61.5837708  66.1789322  18.6275806
  61.5062027  64.7505264  18.1329861  26.2189713  67.9224701  52.6446571
  27.1478291  68.1029434  52.7891617  26.1316166  66.9812241  52.7951736
  29.7001686  46.9283218  73.2559662  29.5060654  46.1466026  72.7387848
  28.9817123  46.9831161  73.8860855  85.3490829  49.3874359  58.8246918
  86.2557526  49.2728119  59.1093636  85.4063110  49.9813080  58.0761795
  69.9601440  71.5933456  69.1637115  70.5412979  71.0553207  68.6260986
  69.5565186  70.9749374  69.7727051   0.7535998  21.1789455  87.2044601
   0.8036166  21.1571484  88.1601028   0.8226644  22.1073990  86.9821243
  83.8349838  16.4219456  17.2558651  83.9652634  15.8083677  17.9789009
  82.9364319  16.2637024  16.9664040  72.0262604  54.5682716  57.6624680
  71.8275375  55.2713966  58.2808189  71.2061005  54.4260139  57.1898804
  66.5356674  10.2100363  56.5867920  66.2862015  11.0976686  56.8439102
  66.0096359  10.0295868  55.8077126  44.7266121  40.9153137  67.8652115
  45.1628685  40.4508820  68.5794983  44.0568352  40.3050995  67.5565567
  72.5216599  30.3861237  84.8474731  72.3592987  29.8221493  84.0912933
  71.6506424  30.6660480  85.1289062   7.2850943  32.9956093  54.9497375
   7.8863587  33.7403908  54.9464149   7.1231203  32.8144188  54.0239067
  28.4076748  32.7330284  58.8405190  29.1099091  33.1872711  59.3060989
  28.2591591  33.2615891  58.0564270  56.1272545  52.5414505  74.3638916
  55.9456100  52.8018341  75.2669067  55.2892151  52.6420097  73.9124374
  11.1505995  25.3816586  86.3892059  11.1286564  26.1590977  86.9471817
  12.0636082  25.3128719  86.1100769  80.1628799  68.8430176  62.2891617
  79.6893311  68.9449234  61.4635735  80.9056473  68.2799301  62.0713081
  81.2045822  47.9526787  81.5519180  80.4859314  47.5373116  81.0752106
  81.7671432  47.2255211  81.8183594  72.8689194   9.7008543  85.8973770
  72.2429733   9.4764299  85.2088547  73.6047821   9.1053782  85.7554550
  40.5779266  50.9447212  42.5160980  39.7768707  51.4639359  42.5865173
  41.0584412  51.1352501  43.3217278  68.5676956  16.1188793   9.4149961
  69.0538788  15.9375753  10.2193499  67.7394104  15.6519938   9.5253868
  23.7736092  23.3134232  86.1841888  24.0119324  22.4107494  86.3954086
  24.4376984  23.5955544  85.5552063  35.3714638  18.6330929  89.1735992
  35.0182076  19.1617489  88.4580841  34.6130180  18.4371452  89.7236862
  50.6495514  69.2891006  52.6410828  49.8734474  68.9042435  53.0482445
  50.5183792  69.1561127  51.7022858  54.5504990   7.0636177  88.4926529
  54.5340958   6.3484454  87.8566513  54.0928345   6.7145476  89.2574539
  14.5004311  56.9645576  45.9297066  14.8927507  56.4079933  46.6024284
  15.2311583  57.4813766  45.5903435   7.5524449  58.5237732  72.2025986
   7.5331759  58.6040459  73.1562347   6.6972051  58.1586876  71.9756393
  17.5609818   2.6227851  87.7116013  17.9854164   2.8642101  86.8883209
  16.7949333   2.1140263  87.4459610  63.7955360  50.0750160  35.4342651
  63.2782440  49.8470650  34.6618118  64.3121033  49.2901039  35.6167526
  45.8577232  51.5665359  38.0987511  45.6519852  52.4883995  37.9436188
  46.7913017  51.4928627  37.9006844  65.5823212  55.1408806  67.2954178
  64.6458664  55.2906685  67.1655884  65.8804245  54.7586250  66.4700394
   0.5871738  28.5551586  66.9950027   0.4559834  28.9658852  66.1404114
  -0.2979608  28.4054985  67.3272247  80.1773376   9.3417339  16.4824848
  80.1363754  10.2699060  16.7128105  81.0539093   9.2242670  16.1163540
  19.3557835  51.0661926   5.7997227  19.8424053  50.2658691   5.9969854
  18.7660103  51.1778297   6.5453339  55.6325912  43.7058792  21.8581963
  55.1669464  43.2837486  21.1362476  56.5058479  43.8834076  21.5087128
  18.1074772  70.6872940  53.6133728  18.5338516  71.5433807  53.6527863
  18.8299999  70.0594635  53.6173248  67.6055374  48.5295792  22.2410774
  66.7541046  48.2539024  22.5806160  68.2224808  47.8868370  22.5910797
  51.4531593  24.0251274  66.2514191  51.3481216  24.2900887  65.3376389
  52.2600479  24.4553909  66.5343170  74.6821976  10.9953938  16.2178974
  74.1528015  11.7925158  16.1940937  75.5550308  11.2793503  15.9462996
  35.6740570  45.7205353  70.8386307  34.7533455  45.5721741  71.0542908
  35.8700600  46.5826569  71.2054520  20.4117641   7.1100717  87.9146652
  20.5773087   6.4284306  88.5659637  19.5073376   6.9625239  87.6381226
  65.6454697  52.3551483  33.7711983  64.6914368  52.4329681  33.7694626
  65.9172058  52.7216873  32.9297447  75.4760666  19.2858772  43.8673592
  75.7931595  19.3453732  44.7685471  76.2711487  19.2511387  43.3354988
  53.7390213  50.1701393  62.8524361  54.1328011  49.3191071  62.6603050
  52.8357887  50.0908585  62.5456429  24.2787189  57.1087189  60.7352486
  24.9647713  56.9883575  60.0786819  23.7021561  56.3533211  60.6204567
  71.4165573  36.8529854  33.6693306  71.9684677  37.6328545  33.6107521
  72.0356445  36.1253357  33.7284813  79.6247559  16.5511837  63.0545387
  79.5978088  15.8386173  62.4159813  78.7117538  16.6749058  63.3140373
  48.1475525  10.5905533  38.1891060  47.7163124  11.4443159  38.1523094
  47.7841911  10.1065283  37.4475403  46.2829208  68.1375504  49.1042519
  46.5028000  69.0614929  48.9850044  45.7571297  68.1177444  49.9038658
  48.9829597  65.6454544  38.4415283  48.6633339  66.4235992  37.9848480
  48.7618675  64.9184189  37.8594818  19.4333439  47.2151909  15.5627584
  18.5103931  47.4687500  15.5528107  19.8798466  47.9526062  15.9787970
  69.8997574  44.0316162  55.6734085  70.3978882  44.6106415  55.0964966
  69.1481705  43.7582321  55.1474724  33.5603752   9.9087963  69.7257462
  33.1800690   9.0365210  69.8293457  32.8051682  10.4910126  69.6425552
  63.2596054   7.6023245  71.6256943  62.9037094   8.3399048  71.1301727
  63.1083641   7.8341217  72.5420074  51.6276321   7.8328710  81.1241684
  50.9458542   7.5682039  81.7417068  51.1728935   7.9144535  80.2858429
  66.7867584  51.3736153  23.9681721  66.0681381  50.9224739  24.4112225
  67.5787582  50.9868126  24.3414650  18.3612156  32.9781189  61.5167694
  19.0184307  33.4285202  62.0472794  17.6376381  32.8129501  62.1212387
  18.4609680  25.2245197  87.7676010  19.2888050  24.7447624  87.7949600
  18.6625099  26.0222569  87.2784882  21.5872173  20.3010178  67.9935913
  21.5034409  19.3476887  68.0129852  22.1400146  20.4774361  67.2323227
  13.6959333  37.5883408  57.2260361  14.2901506  36.9554100  57.6291924
  13.7146873  38.3430252  57.8145370  51.9032516  60.8190689  65.6125641
  50.9608231  60.6515999  65.6155243  52.2368965  60.2975769  64.8825226
  13.4357462  56.4282303   8.5731821  13.2521477  55.5149803   8.7934084
  12.6513920  56.7257957   8.1122351  38.2336121  50.9445953  34.1983528
  37.7312355  50.8336906  35.0055428  39.0224075  50.4193535  34.3330917
  58.5400620  65.0140076  35.7201614  58.6741524  64.2648392  36.3006744
  57.8332405  64.7404785  35.1355057  25.6337280   3.1127670  59.4371452
  25.7942619   2.2301276  59.7709236  26.4984341   3.4323521  59.1795006
   3.8338575  35.9273338  21.5718632   3.9359798  36.8757591  21.4925594
   3.4845467  35.6523361  20.7241650  71.4248581  20.6184692   8.9723825
  70.8820343  20.1795101   9.6272840  70.9837723  21.4535503   8.8164482
  75.9737854  55.7554665  32.5236015  75.6783142  56.6516495  32.3630371
  76.1403046  55.3982620  31.6512985  41.0403862  63.2890930  76.5789871
  40.1736946  63.4205475  76.1945496  40.9731636  62.4535713  77.0411758
  68.6074905  10.1710835  43.4872932  67.6632919  10.1254435  43.3368149
  68.9828720  10.3001966  42.6162910  20.1403294  64.2629013  79.5574493
  19.2589741  63.8895493  79.5647964  20.1992569  64.7213593  78.7192459
  63.4217453  39.3854103   2.0931532  64.2456589  38.9040909   2.1687920
  62.7465973  38.7068977   2.0987141  62.7756081  10.2378893  24.5897141
  63.1744995  10.4203777  23.7389393  62.1786537   9.5084829  24.4228458
  85.0435181   0.1414401  58.4616966  85.1748199   1.0778357  58.6105347
  85.6010208  -0.2850170  59.1125069  67.6755524  51.5758286  63.1449699
  67.8514709  51.5097351  64.0835419  68.4712601  51.9617729  62.7787399
  23.2240944  32.6493340  26.0282288  24.1732140  32.6224861  25.9070606
  22.9841137  33.5565414  25.8395061  67.2536240   5.2706885  76.7023621
  66.4296646   5.7561121  76.7434540  66.9984589   4.3554525  76.8183899
  78.9962311  29.9867840  82.9893341  78.2843781  30.3704643  83.5014725
  79.5213394  30.7366734  82.7097702  80.4258881  40.8081589  67.8333893
  80.5548172  41.6615715  67.4195099  79.5154419  40.8202515  68.1286392
  42.3185196  51.7285957  19.3983421  42.4021912  51.0869102  18.6930256
  42.7915382  51.3391953  20.1337719  82.9517288  68.3600845  67.5587769
  83.8306732  68.2048264  67.2129593  82.8397446  69.3095016  67.5108490
  33.2446442   1.4747568  79.4296951  33.5367661   2.1382997  78.8047104
  33.8798332   1.5225655  80.1441727   2.4433892  39.0756035  12.3692198
   2.7825253  38.4547958  13.0140591   1.5338985  39.2195778  12.6306200
  63.3705673  54.4698906  73.8303833  63.7312469  54.7943764  74.6555176
  62.4900169  54.8431015  73.7906723   8.9480944  67.0664139  45.4038849
   9.7077265  66.5545273  45.6816673   9.1818409  67.3888168  44.5334549
  12.3625975  59.6952896  72.2845612  12.1779394  59.9474525  73.1892929
  12.5384789  58.7554398  72.3290024   3.6266851  58.2853241  69.0447006
   4.4392219  57.7947006  69.1684036   3.0651457  58.0048332  69.7673569
  16.7223244  48.3728485  15.9778156  16.3076153  47.5634651  16.2763824
  17.0261860  48.7965279  16.7805595   1.3817555  23.6392136  34.0936966
   0.6726882  24.1794186  33.7449379   2.1487582  23.8888378  33.5783081
  49.2019730  22.4174995  84.0626907  48.2721252  22.6359901  84.1249619
  49.3885384  21.9329967  84.8668594  67.5343933  52.9234467   2.5791235
  66.7254944  52.9995537   2.0730426  67.7204895  51.9846230   2.5935001
  45.6271133  58.1742439  43.9789009  44.8836098  58.7454948  43.7862854
  45.6669922  57.5738182  43.2345009  24.8029270  52.9149857  55.3263817
  24.4243698  52.2119064  54.7985497  25.2755241  53.4593620  54.6966705
   2.4350607  26.0346870  19.1094513   2.0582452  25.2069206  18.8110466
   1.6851982  26.6242390  19.1892414  24.7576027  64.6679306   1.9420744
  24.2354145  64.4680405   1.1651595  24.1550388  65.1329117   2.5225360
  67.8939743  23.4517365  73.5009155  68.4781189  23.7636757  72.8097534
  67.0709229  23.2610626  73.0509567  25.4751244   3.3098979  89.4058609
  26.2299805   3.7706211  89.0395889  25.3200207   2.5849977  88.8003082
  19.4584637  56.0202293  33.2441025  20.0713196  56.4492226  32.6469421
  18.5934830  56.2385750  32.8971634  32.4513283  15.7766132  77.4268036
  32.9275742  15.2906094  76.7535858  32.1737747  15.1083670  78.0534210
  30.2454739  47.4359970  58.6275063  30.9250317  47.5132523  59.2971840
  30.4275322  46.6008034  58.1967659  46.5861053  61.6921005  34.0574226
  46.0985832  61.4767876  34.8525314  46.1096573  61.2472382  33.3564796
   3.0123284  13.2642422  41.0250816   3.6287560  12.8487701  41.6281013
   2.1695163  12.8574829  41.2261963  69.8865585   3.5067871  64.3312378
  70.1491165   2.8803086  63.6568336  70.4917603   3.3468494  65.0553741
   1.4240297  45.9087105  29.9622307   1.6602778  46.4062653  29.1793785
   2.1123431  45.2484818  30.0431805  60.7925644  16.8690128  13.7592430
  61.5295753  16.6871986  14.3423300  60.0237389  16.8396950  14.3286982
  74.4273071  15.1609669  39.1298637  75.1003799  14.6235390  39.5474434
  73.6393890  15.0054007  39.6506424  29.7708626  52.9394341  49.1644592
  30.1808910  53.6822014  49.6076279  29.3572445  52.4393120  49.8680420
  25.3806248   4.1119184  73.4444656  26.1150246   4.3910356  72.8976746
  24.6723042   3.9392068  72.8242416  33.3042297  66.9632950  16.4009190
  34.0149727  67.5651855  16.6218376  33.0367050  67.2220001  15.5190239
  32.3977432  41.8493690  19.4683418  32.4763336  42.2567596  20.3309479
  32.0652122  40.9699860  19.6481743  36.5178185  71.2651672  45.2079468
  35.9834366  70.8885117  45.9070892  35.9216156  71.3359375  44.4624519
  82.8880768  19.8634129  35.4988174  83.2397461  20.4919014  36.1293449
  82.0322952  19.6219654  35.8531837  70.7672424  29.9390221  67.3186722
  70.3084030  30.2508144  68.0987320  70.3239059  30.3738041  66.5902176
  70.4145889  60.6714211  20.4684601  70.0730820  60.4884453  21.3437443
  70.2469025  61.6044846  20.3361607  74.4140167  29.5963192  22.9089375
  74.1786270  30.3775063  22.4083672  73.7656937  28.9414921  22.6498833
  35.6917000  68.4382477  43.8665504  34.8712769  68.7495804  44.2489204
  35.5202255  68.4058990  42.9253922  33.9506187  46.0278282  23.8469620
  33.9842987  46.6679916  24.5577965  33.0362740  46.0322342  23.5637932
  37.3364639  58.6567383   0.6367579  37.7555389  59.0523834  -0.1274888
  37.5205231  57.7211189   0.5533058  55.5764122   1.4181918  79.4947891
  56.3109093   1.7129864  80.0331573  54.9628716   2.1528478  79.5037231
  51.2066116  68.9997025  82.3759079  52.0496178  68.7073593  82.7224731
  50.8500748  68.2300186  81.9323959  82.7421875   4.7920980  76.3726730
  82.6408463   4.1366487  75.6824951  82.8577042   5.6182718  75.9032822
  66.3993530  44.2945786  72.8479767  66.2249680  45.2340851  72.9040985
  66.2909241  43.9768867  73.7443848  36.8677635  31.6742172  61.5651779
  37.5062866  32.3818474  61.6533775  37.1756134  30.9973278  62.1679077
  76.4955978  57.5364990   3.2491143  76.9015274  58.4032059   3.2655756
  77.0658875  56.9945221   3.7943299  76.6277466  28.9152203  24.5424500
  76.5748138  29.3722210  25.3818417  75.8621216  29.2197018  24.0552711
  18.8622799   9.7303886  65.8112946  19.2893009  10.1527948  66.5565872
  18.0681896  10.2450037  65.6669998  70.8873062  40.5474854  67.0038910
  71.6845551  40.6648979  67.5204544  71.1469574  40.7676773  66.1092758
   5.1209731   5.8809195  31.6030979   5.0633001   6.0824366  32.5370674
   5.9425716   6.2833257  31.3215370  32.3523445  69.3702393  58.8890190
  33.2408180  69.4825134  58.5510292  31.7895031  69.4715271  58.1214333
  43.2945480  16.4234962  13.0655823  42.4325638  16.7904987  12.8693008
  43.8734665  17.1842651  13.1137028  62.7309494  55.4235077  22.8210239
  63.4494781  55.1559105  23.3940372  61.9388618  55.1956100  23.3077354
  63.5416107   4.3365412  65.7755127  63.8336563   3.9182594  64.9655838
  62.6616325   3.9890096  65.9207535  69.1218262  44.3578377  89.1184464
  68.9324036  43.4310265  88.9722595  70.0432968  44.4547691  88.8781662
  52.4579353  31.9513168   2.3967905  53.1557999  32.0258522   3.0476840
  52.5362129  31.0576324   2.0629771   2.2646186  31.2717838   4.3494825
   3.2078929  31.2848530   4.5116396   2.1591439  30.6909065   3.5960312
  14.9443226  39.6288872  86.3150635  14.7735462  40.3251381  86.9493332
  15.0236816  40.0831871  85.4762878  75.4453430  22.4842682  16.6133842
  76.1015244  23.0016766  16.1465454  74.6110840  22.7504673  16.2268829
  69.3985443  41.6364365  54.0703392  68.5685730  41.2311440  54.3215485
  70.0476532  41.2277527  54.6429405   1.5045458   6.5132923  86.7437973
   2.4389384   6.6438375  86.9053574   1.3261729   7.0168080  85.9495163
  13.1123037  58.8833580  33.7604370  12.8691187  59.1249962  32.8667374
  12.2818308  58.8563271  34.2356377  54.5865021  40.2233810   8.6745110
  55.3371429  39.9722900   8.1362486  54.6449585  39.6588516   9.4453049
  15.4152145  60.5860786  31.3848667  15.0377388  60.5533600  30.5058498
  14.8466072  60.0236549  31.9107933  29.7787914  59.3787079  26.7630043
  29.5548553  58.9259338  25.9499378  30.3496037  60.0962563  26.4881802
  61.7485733  21.0464439  53.7101135  61.4368362  21.2485161  52.8279457
  61.5174255  20.1268444  53.8410339  81.1408920  46.2612991  85.0719376
  80.5590363  46.3783340  85.8229218  81.9083862  46.7948380  85.2781601
  81.0955276  51.6807289  13.9233675  81.7421417  51.1845589  14.4252996
  81.0336685  52.5212440  14.3771763  21.3884602  44.1285629  21.5724678
  21.1962776  44.1251831  22.5101700  20.8711338  43.4047470  21.2193432
  53.7381134  64.8960190  42.7304420  54.4306412  65.5162354  42.9584084
  54.0976868  64.0397186  42.9621353  86.1679306   3.2532232  48.9098091
  85.7141571   3.9827366  49.3318672  86.8099289   3.6705835  48.3354568
   7.7714534   5.1404028  59.9089737   8.1954317   5.5349174  59.1468506
   6.9144034   4.8600516  59.5878792  54.1687126  29.0915184  34.8364410
  54.8918762  28.8290939  34.2668762  54.5550308  29.7309875  35.4348297
   5.5596256   8.4630985  64.1884308   5.6467214   9.0325747  64.9528580
   6.4607248   8.2742529  63.9265366  38.0603561  29.4505615  62.9179039
  38.7136116  30.0257854  62.5196457  38.5323029  28.6360302  63.0912170
  63.0140228   4.8970675  88.5011215  63.5764732   5.6262097  88.7623291
  62.1243172   5.2112284  88.6622467  49.4038925  37.4453735  22.8270683
  49.5605202  36.9719658  22.0100117  48.7843857  38.1352043  22.5892124
  55.9308815  20.9925575  79.7585068  56.3811531  21.3696289  80.5143509
  56.5967026  20.9670143  79.0712891  76.3758087  65.7526703  34.1031418
  77.2914734  65.7649460  34.3817749  76.2977829  66.4951019  33.5040321
  37.6802101   5.3309588  18.7147980  36.7662811   5.1093745  18.5362816
  37.6366081   5.9789286  19.4179802   5.3289776  59.8366623  44.4935951
   6.0195704  59.2627754  44.8252068   5.7825933  60.4447136  43.9098663
   6.0780859  19.9137707  16.1930237   6.3000364  20.2341652  15.3187714
   5.1228285  19.8528709  16.1904259  15.9827061  52.4180794  71.6155243
  16.5420055  51.6932602  71.8948975  16.5939713  53.1201935  71.3927536
  66.5694962  19.9502392  35.2885399  65.6834641  20.0875607  35.6236954
  66.6707687  20.6095982  34.6020851  78.1782761  26.9595242  68.9548645
  78.2531052  27.1112118  69.8970032  77.2708969  26.6823063  68.8282242
  11.0848045  62.4618263  28.6360779  10.9225845  62.1999207  27.7298107
  10.7313671  63.3493767  28.6958179   8.0139961  43.4006882  17.9871330
   8.7191629  42.7639427  18.1034317   7.7521529  43.6334572  18.8779125
  23.5599480  69.9534149   5.2963562  23.7596436  69.0836716   4.9500918
  24.0468903  70.5536270   4.7316742  27.1659927  52.9829445  72.2533569
  26.3848915  52.7675018  72.7629623  26.8346958  53.4816284  71.5065079
  36.2387581   5.0640745  26.2373562  36.0362625   5.3536267  27.1269569
  35.4326515   4.6482987  25.9314861  25.1415386  69.3427277   9.5347767
  24.7190762  68.9592972  10.3033705  24.4193439  69.6986084   9.0170708
   0.0849384   5.0464516  53.8859100   0.7635783   4.5818377  53.3962021
   0.5652472   5.5435901  54.5480156  76.8734207  60.9902687  64.0155182
  76.2940216  61.6603966  64.3780975  77.0345917  60.3925095  64.7455444
  52.6762199  20.7702599   4.1551909  52.9515648  20.8603687   5.0674953
  52.0219612  20.0717278   4.1703486  39.9637642  61.9172363  80.2431107
  39.9194641  61.6097832  79.3377151  39.6141930  61.1913338  80.7599335
  53.4417381  56.8091469  82.2698212  53.0278549  56.2618446  82.9371948
  53.6918106  57.6070404  82.7357178  59.2457657  15.0792313  84.2939453
  58.5343704  14.4417124  84.2329559  60.0433311  14.5501366  84.2805481
   0.3065031  37.0316696  63.2932701   0.9616280  36.5434113  62.7946281
  -0.2250083  37.4680367  62.6274529  56.7249680  34.5697441  15.6219597
  57.1468658  34.9631729  14.8581209  55.8164482  34.4364853  15.3516550
  66.0331345  13.2504253  35.7122192  66.2671967  14.1767311  35.7705879
  65.1385345  13.2076883  36.0499840  12.9406328  55.4794502  53.7334175
  12.8853359  55.1010056  54.6108894  13.0076447  56.4225006  53.8830948
  52.7032852  21.0886822   6.8560729  51.8065948  21.4161491   6.9263811
  53.0159035  21.0505352   7.7599792  45.7500229  20.5737820  14.7060013
  46.0948944  20.5111523  15.5967159  44.8141327  20.7374115  14.8224812
   2.6198070  61.9310951  42.9736061   3.3890402  62.3315811  43.3787270
   2.7583897  60.9894676  43.0754128  49.9228325  52.8481712  20.8689289
  49.0248032  52.6490517  20.6041107  49.8361664  53.2270508  21.7436695
   2.6469188   5.1512547  25.0546112   3.2684340   5.8718963  24.9515285
   1.9180572   5.3791752  24.4775105  32.4266891  69.9449692  40.4091148
  32.8270187  69.8030319  39.5513115  32.7518463  70.8014832  40.6864052
  71.8771744  54.3643074  38.6744461  71.3438950  53.6888771  39.0935364
  72.7783432  54.0616264  38.7862968  42.3832703  23.7657833  71.5643311
  42.5384712  23.2175083  72.3334427  43.2236061  24.1945210  71.4023056
   7.7824936   7.3649144   0.4167052   8.7317390   7.4782090   0.4649647
   7.5247684   7.8377800  -0.3746276  23.6556873  48.4357414  49.7771301
  23.8969345  49.1020393  50.4206200  22.7806015  48.6907654  49.4848633
  49.2435951   2.3841195  30.8068600  49.8247528   1.7582852  31.2390842
  49.8342857   2.9890316  30.3580856   6.2468996  69.3055878   1.4174336
   7.0799084  69.3480377   1.8870357   6.1439786  70.1761780   1.0331004
  79.5817947   0.8847386  39.8157387  78.9775848   1.0048052  39.0831070
  80.3200226   1.4596978  39.6140671  19.2371864  67.8057785  28.0985222
  18.6497536  67.9443588  27.3555908  18.8462467  68.3119965  28.8106575
  10.1368580  66.4225235  11.4294834  10.9381504  66.7204666  10.9989147
  10.3886814  66.2981949  12.3445578  68.9329834   0.2282228  46.3775864
  69.8030777  -0.1015848  46.6020813  69.1011581   0.9832295  45.8137474
   4.5857277  63.2146568  43.9260178   4.9133515  62.7935257  44.7207108
   5.0615320  64.0439987  43.8808594  32.3524132  59.6307945  86.8574448
  32.6847572  60.5257950  86.9264145  31.4112606  59.7122269  87.0118179
  61.6040993  64.5243301  72.0382462  60.9045715  64.0930328  71.5474548
  61.4840431  65.4565659  71.8572617  66.0674286  22.7334137  80.9186020
  65.9350815  23.5812473  80.4944687  65.5299606  22.1252518  80.4111557
  45.1970444  18.8189621  12.5808744  45.3129120  19.3484554  13.3698263
  44.3479881  19.0908966  12.2324753  71.2951584  60.7903709  37.0839348
  71.8920212  61.5208397  37.2464409  71.2350311  60.3384132  37.9255714
  69.1952515   4.3716021  82.2047806  68.8206711   3.8803642  82.9359512
  68.8155441   3.9669499  81.4248352  29.4609337  26.2868805  83.2190857
  28.6843548  25.8705959  82.8451080  29.3498306  27.2178993  83.0264893
  52.8041039  34.1615982  76.7361603  53.6493874  34.1757660  76.2872391
  52.6499138  35.0728569  76.9852829  50.4622536  56.5069542   1.0453057
  50.6987114  56.5524712   0.1188891  50.8794594  57.2742729   1.4369632
  87.0850525  16.7903423  85.8383942  86.7519684  16.4576626  85.0049667
  86.3728943  16.6369743  86.4593124  48.6790619  18.6523571  86.2550201
  47.9944458  19.3105564  86.1354065  49.4904366  19.1067772  86.0282898
  32.4828186   5.0471168  71.0600967  31.6349640   4.6505666  71.2603989
  32.2824516   5.9674063  70.8893509   0.6300290  42.1104736  47.7767868
   0.4083457  41.7630920  48.6407394   0.8360859  43.0317879  47.9347458
  38.2372589  30.4908619  70.1012802  37.9842186  29.6677723  70.5192795
  38.5897560  31.0232029  70.8144379  71.6296082  11.7158098  69.5343704
  71.2157135  10.8536367  69.5741959  71.0121384  12.2985525  69.9763794
  22.0431728  66.4007034  22.6723537  22.9350300  66.6353683  22.9287777
  22.1256313  65.5263443  22.2916679  43.8545837  17.4267597  85.2854996
  43.8175240  18.0509243  86.0102615  42.9414291  17.3093586  85.0235901
   6.8961611  18.3064003  56.6515999   7.2821226  17.9886665  55.8353233
   6.2558818  17.6362057  56.8905907  68.2959213  15.8747559  69.0849533
  67.6420135  15.2026224  68.8929138  68.5089951  15.7445307  70.0090103
  62.8351097  49.9331131  45.6808090  62.7931900  49.0881271  46.1285515
  63.3369179  49.7577324  44.8847771  32.5243073  68.7490463  10.4620466
  32.7230301  69.3229065   9.7221661  32.6206818  69.3091812  11.2322397
  70.9706879  20.1840000  79.6097717  70.8662109  20.7002754  80.4090118
  70.9979019  19.2764206  79.9127426  65.0876312  40.0071449  43.6336823
  65.5743103  40.8010406  43.8552742  64.2436371  40.1132469  44.0726128
  38.8751106  19.1119366  18.2234077  38.3198090  18.7391167  17.5386639
  39.3578148  19.8127823  17.7851791  63.2913551  53.0577278  57.1594200
  63.6753769  53.8653526  57.5007439  63.4546432  53.0945206  56.2169685
  78.2207031  42.3184586  48.2959518  78.7347183  42.6424599  47.5563278
  78.7628479  42.5021019  49.0631447  74.1266708  26.5944557  13.1430864
  73.8348007  25.7346554  13.4460535  74.1014252  27.1453533  13.9254580
  11.8055172  26.7010517   6.4237132  10.9507227  26.9242725   6.7921305
  12.1852646  27.5429897   6.1723862  80.0602646  25.1654987  25.1756477
  79.5226746  24.6905003  25.8093681  79.4405823  25.7251930  24.7077084
  79.1687393  66.2504959  59.3507996  79.3136063  66.9563446  58.7206993
  78.3216629  65.8792648  59.1040344  71.5161438  60.5286942  62.9433899
  70.5710754  60.3861656  62.8908310  71.6095505  61.4737930  63.0629578
  85.6112366  59.1172447  53.3519707  84.8900223  58.6365967  53.7582397
  85.1939163  59.8765640  52.9451447  29.3116894   6.8552418   9.9620018
  29.4167900   7.3281374   9.1364384  28.5264359   7.2343063  10.3568687
  59.0339966  33.1983833  31.6645832  58.2415733  33.6545105  31.9478626
  58.7360306  32.3164291  31.4418659  16.6373024  70.2664413  86.5564041
  16.2257385  69.6604233  87.1725159  16.9996338  69.7033081  85.8724289
  14.5086975  13.8238735  78.6071854  14.4186029  12.8712234  78.5832748
  13.6542444  14.1523571  78.3274689  13.1609688  41.7887764  74.5412140
  12.2159824  41.9146614  74.6271515  13.3550529  41.0398102  75.1047821
  72.8471832  64.3737106  37.6131783  72.9507904  64.7026443  36.7202644
  72.2769470  65.0135117  38.0394592   9.8841543   6.1547799  66.4739914
  10.2041655   5.4169102  65.9549866  10.2700739   6.9255719  66.0578461
  64.9626236  58.4102173  48.1611404  64.6119537  57.7880898  48.7984924
  64.3790436  58.3342781  47.4062233  21.0201378  64.4532166  12.0506506
  21.2756557  64.3562317  12.9680033  21.1734047  65.3777542  11.8557863
  77.3573151   4.0582585  10.8630981  78.1760483   4.3063970  11.2924480
  76.9562149   4.8905897  10.6129465  72.7293396   6.7463574  87.1669693
  73.5715866   7.1949425  87.2419510  72.0786209   7.4440327  87.2447815
  23.3116646   6.3894353   8.6909084  23.5629063   6.1866241   9.5920057
  22.5345058   5.8535438   8.5325565  17.6581936  68.8292618  71.2903519
  16.9431000  68.6669388  70.6751099  17.2349625  69.2317505  72.0487137
  67.7065048  71.4077377   1.8736038  67.9463043  71.7713852   2.7259438
  67.7123718  70.4599457   2.0073512  32.8567467  70.3543777  29.4153900
  33.3146591  70.8257599  30.1113434  33.3709641  70.5314560  28.6276989
   2.9974232  14.2724771  26.4391918   3.8353603  14.0282259  26.0462112
   2.4269242  14.4551363  25.6926003  83.7652664  44.7781868  56.1135483
  83.6057892  45.7117462  55.9747581  84.3574219  44.5283165  55.4042168
  26.2610703  26.5626659  73.3597946  27.0718155  26.8717899  72.9556046
  26.3882828  25.6193409  73.4607162  73.9433517  11.7883663  12.4199076
  73.3492279  11.0648041  12.2206421  74.8154144  11.4404373  12.2336950
  42.1151314  17.9448032  15.8325768  42.3543777  17.6744576  16.7190895
  42.5758018  17.3295879  15.2620306   1.8292490  57.7900238  66.8140106
   1.9059795  56.9178734  67.2009277   2.4413991  58.3290062  67.3150101
   1.1199237   7.2325921  45.2580795   1.2918894   6.9525118  44.3590698
   0.1787671   7.4058385  45.2790909  25.2308426  34.3177338  34.5025597
  24.7448025  34.4093170  35.3220749  24.5612831  34.1195297  33.8478546
  48.9972649  55.1405563  76.1371689  48.8867874  54.9490051  75.2058640
  49.0253181  56.0962219  76.1834564  61.3303070  44.5117912  25.6704292
  61.8407669  43.7217712  25.4928627  60.4807358  44.1862068  25.9678421
  36.0874786  26.5354843  83.2467575  36.0074005  27.3266754  82.7139969
  36.6540413  25.9583168  82.7347870  63.5389671  13.0358953  36.5621490
  62.8161812  13.5615606  36.2193794  63.3976669  12.1643734  36.1924019
  42.9695168  60.0307007  38.0211372  42.3049088  60.6589050  37.7384949
  42.5516014  59.1760635  37.9154358  75.4782257  33.7198906  79.7858047
  74.7843552  34.3276672  79.5300980  75.2305527  33.4291992  80.6635208
  13.1157150  12.2557545  11.9905443  13.3442945  11.7977114  11.1817303
  13.5049667  11.7242804  12.6849861  69.8109131  33.3774185   5.4264469
  70.0446854  34.2795792   5.6448369  70.6210632  32.9949684   5.0893726
  64.9509583  44.6097527  78.6450119  64.2694626  45.2691383  78.7754364
  64.9278946  44.4239044  77.7063065  58.2458191  24.0895023  18.2071438
  57.4561577  23.5929260  18.4218140  58.9184990  23.4223862  18.0704365
  40.7113342  21.3221493  14.3223763  41.4978638  21.5190525  14.8311272
  40.8277054  21.8058491  13.5046215  44.2465630  25.8920689  41.1858635
  44.9154701  25.4493942  41.7082024  44.6006279  25.8956413  40.2965622
  70.4684830  36.2973785  58.4025688  69.9096222  36.7537270  57.7735596
  70.9761887  36.9929008  58.8205605  25.1673489  28.9435425  13.0080090
  25.7638512  29.6562309  12.7789021  24.3187218  29.2212734  12.6631470
  78.9705582  33.6535378  66.5304108  78.9298401  32.8235703  66.0552979
  78.1425171  33.6966095  67.0086594  77.9370041  34.9720306  60.3083649
  77.9241791  35.7936401  60.7993088  78.8661118  34.7964935  60.1594276
  69.2649841  22.6974297  58.0965195  69.2555237  23.4523773  58.6849022
  68.3599625  22.6171589  57.7953148  51.5113525  16.9695148   2.9742081
  51.1611671  16.4701710   3.7119465  51.3725967  17.8849087   3.2171743
  23.9340706  36.7310715   6.2447534  24.0592442  36.3502960   7.1139917
  23.3713875  36.1057053   5.7880907  29.2698727  54.4826050  28.5515175
  28.3497543  54.2275429  28.6190128  29.7268524  53.6728096  28.3242931
  56.3086052  26.3144035  58.0996819  56.5910988  25.4553280  57.7859650
  57.0041428  26.5923386  58.6956825  38.8141327  37.1139946  66.4965210
  39.1548805  37.3453064  65.6324463  37.8716202  37.2677917  66.4313354
  68.6995163  67.0644913  64.4749756  68.7945251  66.1258774  64.3130951
  67.9466248  67.3241196  63.9439659   5.4132285  60.6031036  20.5874424
   4.5141444  60.8357201  20.8193207   5.5845075  59.7959328  21.0725937
  27.6635990  62.2794266   5.6142201  28.5807095  62.5388222   5.5255976
  27.2836666  62.9376755   6.1961055  22.8623409  14.4872675  83.4126892
  22.7596779  15.4169455  83.6161423  22.9091511  14.4549351  82.4571838
  55.6915245  34.0035095   0.9376070  55.8686790  34.4551544   0.1124617
  55.5112610  33.0989571   0.6816379  25.5709972  22.4393082  68.6886063
  25.9232197  21.6608162  69.1200256  24.6332588  22.2649345  68.6081390
  46.3468056  42.8624840  62.5209389  46.7441139  42.8135872  61.6514664
  46.8757019  42.2737923  63.0594063  20.9620037  29.7141895  21.0650024
  21.2607346  30.1260147  20.2542057  20.8311481  30.4440842  21.6702805
  74.4158936   6.8925586  11.3664064  75.0498810   6.6826415  10.6806698
  74.9414062   6.9708629  12.1626101  57.1816254  33.4769325  41.2718697
  56.6799355  33.2073669  40.5025368  57.1393661  34.4331512  41.2623825
  23.9122143  14.5501919  62.6701279  23.1285706  15.0133038  62.9662018
  24.1853943  14.0329905  63.4278259  22.1751785  56.0404205  10.9211426
  21.7132206  56.7303429  10.4448738  22.0812836  55.2641373  10.3690586
  73.1251450  16.1101379  55.3280334  72.6448441  15.3748350  54.9474144
  73.3140717  15.8342543  56.2249336  67.2907791  48.6957283  18.0065269
  67.2434082  48.5892372  17.0564499  66.4762573  49.1418266  18.2384472
  52.7158585  35.8532982  14.7847672  52.9319000  36.5575943  15.3959360
  51.7942276  35.9969788  14.5698662  82.9135818  24.6402855  77.5681610
  83.1199417  25.5226326  77.2597580  83.7430038  24.3056984  77.9092560
   6.2798934  64.0537415  59.4741440   5.8387303  64.3454285  58.6763191
   6.0269408  63.1351013  59.5655212   5.1701818  54.9116898  61.4542885
   5.9032192  55.2221565  61.9857941   5.1298380  55.5248909  60.7204018
   9.2181253  22.1500340  12.2132540   9.5668383  22.5625572  11.4230289
   9.3415689  21.2119827  12.0681543  19.2574825  27.2268982  86.0716553
  18.6412792  27.7231503  85.5328979  20.1199074  27.4712887  85.7359009
  63.9754257  26.8086052  39.5594788  63.3578682  27.5296116  39.6819611
  63.7792740  26.4710941  38.6854973  62.4030418  69.9752884   0.9148397
  63.3069000  70.1864090   1.1487168  62.0105057  70.8188705   0.6901004
  21.7621727  53.7023659   9.3044691  20.8937225  53.5766258   8.9220877
  22.2198734  52.8788834   9.1353130  85.0506516  70.6505814  14.7580261
  84.5819016  71.4648590  14.9409494  84.9811859  70.1468658  15.5689964
  63.3380013  37.1396942  79.3859177  63.4297218  36.6475449  80.2017670
  62.5016937  37.5968018  79.4746704  71.7762985  32.0348129   3.1209044
  71.8549576  32.5592384   2.3240223  71.6244736  31.1433926   2.8069735
  24.3987846   8.9036598  10.1353359  24.2634792   8.3695469   9.3526173
  23.5406799   9.2882710  10.3141232   6.5336895  33.6451645  67.8066940
   7.0253582  34.4407387  68.0105438   6.6207638  33.5461044  66.8586197
  56.5471115  30.1151066  29.0921059  56.3830490  29.1721668  29.0786533
  55.7060242  30.5010910  29.3366890  28.9510479  59.8061714  33.6377602
  28.1203728  60.1589470  33.3187599  29.5503197  60.5523834  33.6211624
  54.7210922  62.1580086  63.4473305  55.5981903  61.8198509  63.2668381
  54.5092049  61.8216400  64.3180695  22.1059532   5.9415479  47.0264549
  22.1725063   5.1421981  47.5487976  21.1825981   5.9896417  46.7787933
  71.9457092  65.3387146  20.4217281  72.0678940  65.5866547  21.3381500
  72.0963974  66.1475983  19.9326229  78.1070023   4.6102471  86.2834702
  78.6166306   4.2137609  85.5768509  77.2604675   4.8113856  85.8845215
  65.8155441  32.2304955  77.3973923  64.8620529  32.2036705  77.4771652
  66.0898209  32.8979950  78.0262375   7.2128406  39.7287331  14.9091578
   6.7996678  39.7149086  15.7724819   6.8378797  40.4958000  14.4764357
  69.5924911  32.1305618  76.5244141  70.5105286  32.2289162  76.7769165
  69.1259079  32.0259056  77.3536224  81.0707779  15.2931662  83.0888214
  80.2884598  14.7936211  82.8550034  80.7344131  16.1348267  83.3965530
  34.9711456  20.3996601  82.7485428  34.3961449  20.1782246  83.4810486
  34.6945038  19.8161278  82.0420074  18.4969006  47.9981346   4.8760843
  18.6923618  48.6719742   4.2249594  19.0418625  48.2272720   5.6289086
  25.2904053  44.8564911  65.2329941  26.1009693  45.3473892  65.0979538
  24.6070423  45.5260773  65.2629929  81.4240723  26.7237892   5.9608707
  81.3824539  26.4933662   6.8889899  81.4089508  27.6808167   5.9507775
  21.5505104  40.7994576   3.0591068  20.6167603  40.6149483   3.1605849
  21.9879570  40.0418167   3.4475086  20.8487473   1.1991392  40.5603981
  20.1371269   0.5869152  40.3732910  20.5773754   2.0166340  40.1429176
  69.0864258  36.8665581  87.4267960  68.1616364  37.0519867  87.5899582
  69.5232162  37.7110481  87.5376434  58.9076881  14.6549168  42.4637566
  59.6908226  15.1891279  42.3312950  59.2147560  13.7529316  42.3723030
   5.8678513   5.4974689  46.8893394   5.0839148   4.9488368  46.9153862
   6.5016079   4.9859009  46.3864670   5.6825604  61.9236946   9.1628809
   5.4463305  61.2950134   9.8449259   6.0577345  61.3886147   8.4634743
  83.5848312  56.5845604  81.0585709  83.3223419  55.8011589  80.5752335
  84.1575470  57.0577240  80.4549561  47.2307091  60.4583054  55.4381561
  48.1413078  60.7137909  55.5856895  47.0675697  60.6728134  54.5196762
  29.1420994  25.7361794  14.2962980  28.4207516  26.2495155  13.9324646
  29.4250488  25.1753006  13.5740900  59.4944801  50.4035034  35.9876366
  58.5454254  50.2838745  36.0225143  59.7633629  49.9533195  35.1868439
  78.1756897  40.3464127   0.2209725  78.0702515  39.4790840   0.6119424
  77.5746613  40.3479919  -0.5240065   2.6948733  29.6685333  31.7460594
   2.6050744  30.4334679  31.1776924   3.1927497  29.9867935  32.4990959
  74.2498932  51.3185158  38.0334358  74.8575897  51.7475319  37.4310455
  74.2246780  51.8936386  38.7981796  82.7870789  14.8131113  78.4364624
  82.6008301  14.2963362  79.2203522  83.7426529  14.8339081  78.3847504
  26.9295788  40.2066879  66.3323593  26.2832317  40.6575813  65.7890701
  27.7253208  40.7311172  66.2428970  29.3368397  28.9825306   8.1267738
  29.7838058  28.4899311   8.8151045  28.9602947  28.3111954   7.5577793
   1.9061096  40.2048950   9.6599236   1.9732025  39.9670639  10.5846748
   2.4431829  40.9927330   9.5756617  34.2394447  14.3419237  35.4975662
  34.0993652  14.8846664  36.2734795  34.9369583  13.7373419  35.7509232
  18.6323452   7.1927814  17.5392227  18.0163155   6.9559007  18.2324963
  19.4207916   6.6870852  17.7363396   4.9768281  48.1500931  16.6995945
   5.9085302  48.0474701  16.8935833   4.9189029  48.9870415  16.2387295
  79.4875259  33.8863068  15.8970213  79.8109055  34.7339706  16.2021751
  79.3961411  33.3638573  16.6938457  25.4757156  45.3959503  27.4410381
  26.3072948  44.9281158  27.5174370  25.6708355  46.2824364  27.7448559
  16.9418564  50.8987885  81.7349548  17.1801224  49.9751091  81.6557541
  16.4207363  51.0796432  80.9526825  73.1548691  69.9916763  38.7339973
  72.9465790  69.6782837  37.8538628  73.4020615  69.2029953  39.2168083
  46.4134674  63.5358543  59.9898186  47.1265221  62.8979874  59.9596939
  46.8421364  64.3808823  59.8541641  46.5984192  26.1961937  88.5668411
  45.7742195  26.4019356  89.0079727  47.2759094  26.4874744  89.1770782
  36.7099762  12.0726357  73.2969437  37.4860077  11.6120100  73.6160583
  36.4927788  11.6344013  72.4741364  11.3455515  13.7168808   0.0905126
  10.5034180  13.8127909   0.5353098  11.8587017  14.4695969   0.3843259
  71.1102066   5.5031152  74.1806793  70.3024597   5.0206318  74.0046539
  71.6464233   4.8949628  74.6894608  74.4807510  49.3821640  27.0344448
  74.3629684  49.2080116  26.1006184  74.0057068  50.1989403  27.1875458
   9.1807518  45.7372856  15.8616362   9.1247654  45.0790977  16.5543709
  10.1196289  45.8816338  15.7437143  20.0682793  56.4177704  82.2295990
  19.1143456  56.4917259  82.2017593  20.3584213  57.2221832  82.6596832
  53.5298958  60.0070076  42.8429337  52.7550278  59.8049164  42.3185616
  53.9294624  59.1550064  43.0180664  10.0412998  58.0652618  77.5499115
  10.4115438  58.9446335  77.4733734   9.8247299  57.8175011  76.6510544
  42.3519363  55.5194168  69.9816284  41.8668823  55.0046043  69.3367157
  41.6762009  55.8914223  70.5483932  77.8360825  18.4662895  21.2679882
  78.2332535  19.3370266  21.2506428  76.9482193  18.6013832  20.9368057
  22.8291454  32.8965111   2.8079090  22.8602657  33.3605003   1.9712631
  23.4173927  32.1506310   2.6901619  86.0594635  53.6840019  71.2345581
  85.3269501  54.2999649  71.2189941  86.3216629  53.6004562  70.3177643
  28.3624325  26.7603092  79.2405624  29.1440334  26.3143806  78.9142532
  28.6082859  27.6849785  79.2683945  64.8664932   2.6031277  72.0775299
  65.0096741   3.5468459  72.0059357  64.4381180   2.3628614  71.2559433
  35.9099770  58.6327209  60.7698784  36.0974426  59.5704803  60.7286911
  36.1419258  58.3811417  61.6638260  56.4908829  52.8212471  60.8751869
  56.0713959  53.3066711  61.5855560  56.8455696  52.0385017  61.2967834
  79.7888565  38.9645729  54.5017891  80.7238464  39.1621933  54.5563431
  79.5617371  38.6386185  55.3726540  19.7969456  66.9395599  32.6571083
  20.5941277  67.0584641  32.1407776  19.9520874  66.1374893  33.1559525
  22.1858730  48.2908554   2.6914754  21.4012318  48.8035774   2.4973426
  21.8531952  47.4275589   2.9369874  52.4973602  43.3909760  65.5564804
  52.0941200  42.8329926  64.8914337  52.7746620  42.7837791  66.2425156
  54.3255653  66.3397522  23.8750114  53.5259056  65.9788589  24.2578125
  54.1247597  66.4320755  22.9436760  70.2160873  48.1984749  40.2673378
  71.0227280  48.3751373  39.7832298  69.5154495  48.4424706  39.6625214
  61.5422897  54.2586861  20.8443470  62.1518250  54.6807404  21.4497948
  60.7785492  54.8355675  20.8324394  80.1697922  65.6104813  14.5375910
  79.7290421  65.0603333  15.1851330  80.6931763  64.9986267  14.0199623
  27.1987591  34.7840614  66.3590317  28.0397778  34.9325752  66.7913132
  27.3225994  35.1213875  65.4718475  24.4220753  27.7066612  29.4941006
  25.0568485  28.3870792  29.2697697  23.5858459  28.0439453  29.1728649
  77.6560898  30.6665478  41.2838898  78.2029343  30.0398026  41.7575836
  78.2775192  31.2885075  40.9054375  35.4205208  58.2835312  78.2543640
  34.4922371  58.2026062  78.0353470  35.5508347  59.2201385  78.4027405
  84.5657654  49.0444183  19.7851410  83.8847809  48.7505684  20.3902321
  84.2316132  49.8681946  19.4302311   8.2271690  18.3105392  46.1738281
   7.7620726  18.2476616  45.3395844   7.9220128  17.5547600  46.6757317
  13.5540018  19.2334213  30.5585423  13.9212055  19.6080933  31.3591766
  12.7167931  19.6834755  30.4455605  50.7600136  71.8279953  81.9037399
  49.9164886  71.9550934  82.3379593  50.9147568  70.8846436  81.9524841
  23.3857250  70.2482681  64.8752289  23.6823025  71.0352478  64.4181290
  23.5354214  70.4384384  65.8013229  84.7858734  23.5595036  78.9085846
  85.1604996  24.0085182  79.6663971  85.5410156  23.1865044  78.4537582
  75.6829758  52.7999878  46.4448853  74.8247910  52.7918015  46.0209999
  75.5725784  53.3803177  47.1980476  62.7956581  34.2784729   2.4306426
  63.0193100  34.5200996   1.5318496  61.8387680  34.2569351   2.4418221
  17.1994534   6.8587871  57.1705170  17.3294201   7.6511555  56.6494675
  17.6042995   7.0581465  58.0146637  46.6444092  70.0003815  66.9192200
  47.2210884  70.2895050  66.2120514  47.1937408  69.4319305  67.4589767
  51.1118660  22.4490986  72.1202621  50.5854111  21.8399582  72.6379776
  51.5135307  21.9035816  71.4440231  74.6914215  34.1817474   4.1759715
  74.1837845  33.4046402   4.4097137  75.3403549  33.8640099   3.5481441
  71.0937119  42.4051170  35.8251190  70.9665985  43.0967522  35.1757202
  70.2647781  42.3694572  36.3024292  44.1910629   2.8746665  41.3571129
  43.7102242   3.6911049  41.4929619  45.0958443   3.0888937  41.5845070
  32.6599617  66.5153198   5.6431103  33.2591782  66.4403839   6.3857775
  31.9381847  67.0518112   5.9709048  27.5437603  51.2723045  50.7612991
  27.2934055  50.6634293  51.4561577  26.9805698  52.0344276  50.8962631
  62.4654541  56.2685890  40.1489449  62.5189323  55.3199348  40.0330811
  63.3391304  56.5232620  40.4457054  84.1903687  18.8574543  44.6314964
  83.4955673  18.2283211  44.4374084  84.1589432  19.4805260  43.9055328
   7.5569949  69.1031265  41.2191200   8.1865625  68.4463501  41.5166435
   6.8935647  69.1286163  41.9086418  85.2812042   3.0565031  69.2339706
  86.0367584   2.6585155  68.8015747  85.4213715   2.8865952  70.1654892
  51.1478767  40.4268951  42.4609261  51.8835640  39.8176689  42.5228920
  50.4115486  39.8851624  42.1770706   1.3436835  39.7114716  74.3244019
   1.2750360  39.0064201  73.6806488   0.4367886  39.9212570  74.5474854
  22.7141247  58.6597557   5.7294369  23.1290321  57.7971535   5.7298737
  22.9538822  59.0404282   4.8845477   3.2220662  66.0359421  52.2686958
   2.5048196  66.2544937  51.6736984   2.7878327  65.7430420  53.0698700
  44.1419182  59.1114998  13.2153769  44.7421379  59.8239059  12.9952745
  44.3359184  58.4280510  12.5738964  45.6328850  64.5929718  19.8301144
  46.0995865  63.7574272  19.8131733  46.3082809  65.2405090  20.0320282
  34.4311447  23.1204567  80.4006653  34.0460701  23.6625290  79.7121124
  34.2474098  22.2213364  80.1285400  32.8525505  36.3590317  19.2457466
  33.0308418  36.1701622  20.1670341  33.6727791  36.1552315  18.7963867
  43.6964493  52.8748245  43.0652046  43.1588287  52.3083076  43.6186066
  44.2903214  52.2749901  42.6138191  38.2217369  34.2276955  80.9983521
  38.4472656  34.0736046  81.9157486  37.5407143  34.8996468  81.0287323
  31.2886524  34.6351242   6.7801151  32.2421532  34.5748177   6.7215180
  31.0271034  35.0830574   5.9756398  79.6424561  52.8568916  78.7701263
  80.2052536  52.1053734  78.5838089  79.6931381  52.9644356  79.7199097
  69.7777328  68.6597977   6.8615289  70.5310593  68.8781738   6.3128529
  69.7675705  67.7029343   6.8845825  55.5096855  57.4944572  45.8851929
  55.4388885  58.4490318  45.8835945  56.1514130  57.3007355  45.2018967
  85.6018753   4.0625968  81.8743362  86.2921753   3.7982810  82.4824905
  84.8521347   4.2619672  82.4350128  20.5346775  40.3060989  70.6852417
  20.9031315  40.3935928  69.8061447  21.2902222  40.1265259  71.2448273
  77.9839783  28.3128471  27.2559223  77.2879105  27.7088203  26.9973164
  77.5702972  28.8970470  27.8913860  22.4521370  58.7655945  49.3909607
  21.9315014  57.9808922  49.5624580  23.3061695  58.4312439  49.1169739
  28.1162186   0.8983978  22.0181274  27.3234215   0.4533341  22.3174992
  28.7020950   0.1901659  21.7509441  81.7941055  42.2387428  23.1251125
  82.2682571  43.0558815  22.9711819  80.9246826  42.3930664  22.7556267
  74.2018280  67.0880356  21.8343143  73.7185898  66.3584290  22.2221146
  75.0732040  66.7323761  21.6598186  60.7601509  65.9379807  45.2606850
  60.1626053  66.6670151  45.0942917  61.2394524  66.1960678  46.0480194
  36.5938606  25.3976173  12.4268522  37.2042160  25.2839851  11.6983013
  36.2183800  24.5276737  12.5626545   7.7334204  67.3819199  47.8747673
   7.9621019  66.5342255  48.2560158   8.1254969  67.3654861  47.0017052
  13.9146633  41.2169113  30.1880150  14.2678223  40.4372940  30.6166286
  14.5140152  41.9200439  30.4382343  38.5073166  33.6106720  62.9666252
  37.9318619  33.2584915  63.6456375  39.3554077  33.7098999  63.3992043
  34.3191833  42.6880226  69.3213272  35.1483765  43.1568413  69.2270813
  33.6938362  43.3597298  69.5933304  54.6917458  48.9883118  31.2448883
  55.3832779  49.2292366  30.6284714  54.6568222  48.0326195  31.2041054
  33.8028793  51.4642715  19.0185719  34.4501038  50.7652245  19.1116848
  34.2867355  52.2664146  19.2152348  47.7917023  19.4493427  17.5367432
  48.2387810  18.8042908  18.0847054  47.3841171  20.0512657  18.1594753
   1.7318398  21.0929756  71.1338959   1.3722063  21.3430576  70.2828064
   2.6669602  21.2852898  71.0646362  75.4319763  62.5366135  53.4072762
  75.5404968  61.8387260  54.0533485  76.1313629  63.1588440  53.6070900
  39.5765572  42.9798355  27.8259315  39.8256721  42.1286392  27.4658775
  39.0548897  43.3886375  27.1352959  70.9514542  16.0674496  71.7824478
  71.7636566  16.2637424  71.3154984  70.7482758  15.1639700  71.5402145
  64.8185120  61.6659698  47.1153412  64.8444519  61.6291962  48.0714798
  65.4126663  60.9707565  46.8326988  67.3141861  16.4534550  87.1283417
  67.3856049  16.7675400  86.2269592  67.3227005  15.4994287  87.0509262
  30.3934498  60.4479370  74.4336853  31.0282021  61.0547981  74.0528488
  29.7103806  60.3668900  73.7680435  48.0887299  60.2522049  52.4891319
  47.8769989  59.7530975  51.7002792  48.9396439  59.9125519  52.7662735
  58.3681564  63.6677971  87.6902542  59.2738304  63.7717323  87.3983994
  57.9798737  63.0649338  87.0561981  63.2231522   1.1630337  45.2860527
  64.1518784   0.9576461  45.3933945  63.0831680   1.1514547  44.3392181
  32.6923103   6.9717102  17.3395596  32.7149925   7.7393513  16.7682056
  31.8174362   6.9877205  17.7275944   6.8091631  27.0119953  80.6134796
   6.7520237  27.2694950  81.5336227   7.6536236  27.3547516  80.3208389
   3.3881049  62.4478607   0.5004381   2.7815795  62.6562195   1.2110327
   3.8811266  63.2564774   0.3615207  69.1631241  60.1407013  75.3561096
  69.5732346  60.8055305  75.9093170  68.2742310  60.4648514  75.2110977
  45.2026825  43.5300102   6.2445612  45.2199516  44.4869843   6.2328982
  44.6278381  43.2919502   5.5171595  79.8385315  22.8313961  23.2713718
  79.9839401  23.3312225  24.0746536  79.4702835  23.4666786  22.6573353
  16.9148979  43.2174911  42.0814934  17.7679138  42.9708519  41.7240524
  17.1128902  43.8953781  42.7276382  60.6167412  43.1909294  60.7641182
  59.6862259  43.4052734  60.6975441  60.8950729  43.0486412  59.8593979
  78.3090134  63.0100365  50.7274742  78.3053589  62.0549545  50.6639633
  78.0862045  63.1901970  51.6407814  20.7561264   2.2628372  47.3521729
  20.9300423   1.7985901  46.5333557  19.9821491   2.7944934  47.1663322
  55.9231186  14.0005856   0.5148672  55.8232231  13.6794796   1.4110498
  55.1330109  13.7025223   0.0641788  18.9530029  15.0583124  21.7596111
  18.4925671  14.2199144  21.7232857  19.4690838  15.0134630  22.5645218
  81.4315948  51.0530472  29.5649624  80.8278046  51.0412102  28.8223133
  81.7789230  50.1620064  29.6054878   7.8278189  34.7128677  82.1842041
   8.6114998  34.3841820  82.6247101   7.1050611  34.4522057  82.7550888
  47.0685310  23.7543812  17.2746754  47.6344757  23.1039658  17.6904831
  46.3004913  23.2579060  16.9920769  40.9990959  15.4355297  70.3922043
  40.6101303  16.3055477  70.3027267  41.9210587  15.6041946  70.5865555
  17.2002525   6.8744783  53.7134628  17.2976627   5.9719157  53.4099426
  18.0971584   7.2008061  53.7862701  64.0224686  68.5799255  75.7866974
  64.5703049  69.0331345  76.4275665  64.3665085  68.8583374  74.9379654
   2.3120477  29.9224968  76.1362381   3.1910188  29.6948090  76.4392242
   2.1533592  30.7952843  76.4958115  73.8731461  68.1616669  48.0508537
  73.8810196  67.2451553  48.3268700  74.2814331  68.6338501  48.7765083
  43.6995773   4.9130611  24.8764057  43.6535187   4.1392736  25.4379787
  43.3740959   5.6268005  25.4249210   1.9918656  43.5179024   4.7104611
   2.7676694  43.2608147   4.2121983   1.3559942  43.7806129   4.0449672
  72.7564240  66.7230225  32.1553802  72.0549545  66.2351303  31.7239532
  72.4660568  67.6347046  32.1278839  75.7808990  38.9580345  75.2764740
  76.0571823  39.6366386  75.8924255  75.2051392  38.3899727  75.7883682
  79.6972656  16.6125088  67.1945724  80.1703033  17.4297981  67.3510971
  80.3426895  16.0370369  66.7840958  57.9236259  61.2942238  64.3323441
  58.3762169  61.0023689  65.1236801  57.7951317  60.4950714  63.8213844
  76.9417801  69.5655365  57.6631737  77.8943787  69.5180511  57.7439575
  76.7922058  70.1989059  56.9612465  33.5785065  38.5179939  89.0766373
  33.6565971  39.2553558  88.4712982  34.0787697  38.7866859  89.8471985
  75.3745575  58.8325729  88.1068344  75.3922501  57.9591141  87.7156982
  75.0945358  58.6848602  89.0101624  75.4333725  52.8999329  36.3094292
  76.3257751  52.8547554  35.9661903  75.0227356  53.6101341  35.8162537
  68.6730881   0.1984297  63.8652954  69.2874298   0.6210821  64.4654541
  67.8208160   0.5687551  64.0949097  64.1416702  23.4133797  87.8002396
  64.0295944  24.3581066  87.9059067  64.2687607  23.0861816  88.6907578
  53.4635353   2.1818757  73.7968445  53.1591949   2.2077711  74.7040024
  54.3168831   1.7506853  73.8427124   5.1117558  22.8476429  37.3439064
   4.7391162  23.7260628  37.4197197   5.0264568  22.4747353  38.2213440
  55.6227226  63.3457336  55.9753304  54.9068146  63.2896843  55.3424263
  56.2323532  63.9764023  55.5921364  46.9504509  59.5470886  19.7897358
  47.6037674  58.9266090  20.1128693  46.6416397  59.1638718  18.9687519
  25.8249893   9.4090662  48.6718063  26.7163239   9.7364330  48.5510445
  25.5842609   9.6898632  49.5546608  23.9213371  51.5426025  24.3142090
  24.1626205  50.8858795  23.6609650  22.9641590  51.5457382  24.3084679
  74.1781311  42.2664871  75.3438644  74.1705856  42.9919548  75.9682617
  75.0079498  42.3615227  74.8763046  83.1890411  10.7551317   2.3120544
  83.4952240  11.0086699   1.4413060  83.9690094  10.8064327   2.8645451
  16.6949005  45.1311378  77.2866135  16.0255089  45.5511856  76.7465134
  16.3906326  45.2562523  78.1855011  15.7478600  47.4481621  18.7918739
  16.1969662  46.8220177  19.3597488  16.2905922  48.2358208  18.8274174
  34.1460991  54.1386795  74.6391754  33.9931183  53.2004814  74.5268555
  34.9646645  54.1904907  75.1326294  71.0295944  49.4545593  66.8929977
  71.1535645  48.5105400  66.7945633  71.8593445  49.7689514  67.2520218
  68.7473297  57.6799049  63.0545082  68.2353745  56.9440575  62.7188644
  69.5178528  57.2741432  63.4518509  70.8707886  11.3096609  57.9563866
  71.0021210  11.7292233  58.8066521  69.9579315  11.0219994  57.9696999
  12.7331877  63.2774696  47.3878250  12.4943094  62.3743324  47.1792259
  13.1626749  63.6006546  46.5957870  23.7410641   2.0129633  86.3869019
  23.4945965   1.1435033  86.0714188  24.6405392   1.9090288  86.6973419
  61.5656052   7.2804313  20.1172256  61.4963570   6.6175828  20.8042984
  60.7121315   7.7138057  20.1156273  56.2667160  10.0422277  83.1667328
  55.5267868   9.8567219  83.7449341  55.8709526  10.4407234  82.3916168
  78.3166428  32.1210670  49.3209419  78.4410706  32.9444923  48.8490028
  77.3671188  32.0043716  49.3527718  21.6010494  18.1873856  65.7196732
  20.6933975  18.4271336  65.5327988  22.1078415  18.9634285  65.4806137
  45.9567795  20.8761024   7.2941322  45.6372948  20.0666981   6.8953500
  46.7833405  20.6288300   7.7087216  49.0922318  18.6520386  89.3482819
  49.5572624  19.0213108  88.5975342  49.2397575  17.7086697  89.2810211
  10.9113560  46.9433022  31.3056507  11.3178892  47.7809258  31.5277939
  11.6482744  46.3463440  31.1759377  80.1800003   7.6795535  49.6083946
  79.6453400   8.3954840  49.9516411  80.5841064   8.0396233  48.8189163
  82.4622345   0.9000197  16.1446571  82.0292740   0.0730710  15.9326963
  82.2858505   1.0308020  17.0763321  80.0546799  15.9270201   7.2422366
  79.2825470  15.3726969   7.3552532  79.7300797  16.8185577   7.3688359
  10.6983871   4.0286174  65.1030350  10.4460926   3.1654258  64.7751923
  11.3520775   4.3407855  64.4773560  42.9825325  19.3417797  79.5344009
  43.5934601  18.7862129  79.0503159  42.1831436  19.3341179  79.0079498
  29.4168892  54.9702682  64.4217529  30.1941376  54.9657784  63.8630981
  28.7127590  54.6552238  63.8550224  83.7913513   5.4026699  64.1066666
  84.4663773   5.7509961  64.6891098  82.9674911   5.7135768  64.4819336
  75.2786942  50.6352692  88.0426331  74.5428391  50.0232315  88.0552979
  75.1000519  51.2395477  88.7631683  50.9816818  55.7195091  11.8195753
  50.7158775  56.0099335  10.9470901  51.8834000  56.0276070  11.9101896
  34.5100403   4.3464026  84.0030212  35.2008476   4.8003454  84.4856720
  34.3729134   4.8813286  83.2211761  26.9910107  45.0507240  24.5092373
  27.1844406  45.3854294  25.3849010  27.4726048  44.2251778  24.4565907
  76.3048019  22.7680473  72.9758148  75.3719406  22.8768044  73.1606979
  76.4489594  23.2652588  72.1706924  19.8989849  40.1067238  59.6603355
  20.6681404  40.4730072  59.2239075  20.1027756  39.1773224  59.7647781
  41.3378296  58.6457901  11.8930464  41.2648163  58.8447380  10.9596004
  42.0889244  59.1598167  12.1894617  43.0082855  57.9741058  46.8818436
  42.3958549  57.2942924  46.6007538  43.8526421  57.5269051  46.9393501
  38.3609848   5.4155936  66.8995132  38.3881340   6.3686304  66.8145676
  37.5856438   5.2447791  67.4342041  33.4406586  41.4142075  71.5783997
  33.7635002  42.1272812  72.1293335  33.9457283  41.4895515  70.7687912
  54.9520760  34.3330040  49.2377319  54.5706444  35.1875916  49.4387779
  55.5830498  34.5104675  48.5401573  52.6580620  18.0118275  81.1674728
  52.0834656  17.9746742  81.9321213  52.0905190  18.3071957  80.4555130
  49.9924736  51.7166023  74.8655548  50.7127609  51.0920525  74.9513474
  50.1654625  52.1698456  74.0404053   2.0227723  38.7879829  22.0981617
   2.8919678  39.1880379  22.1244125   1.6537862  38.9597588  22.9645195
  28.6716309   8.9344578  76.6020432  28.4470482   8.7924585  77.5216217
  29.2279644   8.1897802  76.3736115   8.5486917   9.9580412  44.3137894
   8.3228645  10.2064371  43.4173889   7.7678995  10.1704950  44.8251190
  60.7614937  37.7811966  64.6159439  60.0003738  38.3406792  64.7705536
  61.3790398  38.3414421  64.1458435  79.3433609  -0.1098652  36.9378014
  78.7528992   0.5930454  37.2089233  80.1401443   0.3410459  36.6584358
  46.8806152   2.8223929  20.2213154  47.2405701   3.7089965  20.2457771
  46.8388252   2.6064794  19.2897224  77.3558426  34.6020584  54.3725700
  77.4855499  35.5062027  54.0863266  77.3233261  34.0961113  53.5606651
   4.0817466   1.5548579  20.3989487   3.3293142   1.2641455  20.9142761
   4.5266171   0.7456030  20.1470966  61.7789192  30.8069992  51.4939346
  62.3988953  31.1871204  50.8715401  62.1982460  29.9974632  51.7855682
  79.9337006  49.9666023  41.6789970  80.0083389  50.9146309  41.5699005
  80.0555649  49.8231812  42.6175117  53.7460823  56.0475273   8.4832458
  53.4875259  55.7362633   9.3507099  53.3265343  55.4386292   7.8754201
  45.9715500  57.9652176  37.7268715  46.1708260  58.7802200  37.2661171
  46.1534309  57.2774162  37.0864983   7.4420052   4.8409166  66.7803192
   8.0534191   5.5240588  66.5051422   7.0703497   5.1679487  67.5995636
  52.3944321  45.6617393  31.2892551  51.7420540  45.2385483  31.8474159
  51.8838882  46.2306671  30.7131462  55.5753365   5.0043120  55.1970596
  54.6297188   4.8900170  55.2917938  55.7611885   5.8351498  55.6345520
  71.6276398  64.8773575  69.7510300  70.8549728  65.3720016  70.0240479
  72.3565292  65.3036041  70.2018814  23.5869980  70.2847595  22.6971550
  23.4391804  69.4035568  23.0404720  22.7104797  70.6612091  22.6182346
  71.0799789  39.6509438  11.1350145  71.2665939  40.1048050  10.3131752
  70.2267303  39.9889832  11.4069157  27.4498253  70.4852905  58.7410393
  28.2312813  70.0433807  59.0731125  27.0585251  70.8927765  59.5137444
  45.7003746  58.8579865  51.7603149  45.8879166  57.9196472  51.7843208
  45.6528893  59.0689659  50.8278618  30.6368771  39.6792412  66.6266174
  30.4950466  38.8802681  67.1343231  31.5272236  39.5918274  66.2862167
  35.7172394  51.1629715  13.2768459  36.2942581  51.1932907  14.0399742
  34.8531380  50.9645767  13.6376705  24.5371151  66.0293274  87.0259628
  24.1284065  65.2516861  87.4060516  24.8318195  65.7461853  86.1603928
   7.6457615  10.4078484   2.7866058   7.5069060   9.7044582   3.4207923
   8.5776854  10.3579922   2.5738509  25.1528873  49.9298172  77.1783905
  24.2353611  49.7057571  77.0229111  25.1440277  50.4179649  78.0017166
  59.0314713  65.4766159  26.7917938  59.2190399  64.7588120  26.1869774
  58.1698265  65.2671509  27.1522388  65.6008072  31.4237843   4.8145499
  64.9547501  31.7048149   4.1665821  66.3424606  31.1141682   4.2946186
  58.7721939  16.0116959  62.2044106  58.7120361  16.9585323  62.3313446
  59.5020370  15.8975363  61.5956993  19.7930813  53.4583092  33.8276176
  19.7785110  54.3926582  33.6202164  18.8711624  53.2204437  33.9261894
  62.1924324  31.9239979  18.8574371  61.9789200  31.0053501  19.0209293
  63.1485138  31.9570980  18.8897476  42.5892258   9.8658257  11.8032427
  42.5473824   9.8295889  12.7588406  43.2180977  10.5630894  11.6173058
  81.4020844  63.4054718  88.7941055  81.7111816  63.4559250  87.8895950
  82.0368118  63.9195824  89.2931519  46.9893761  49.3929939  40.5736275
  47.0702667  50.2163887  40.0922623  46.2142830  48.9728165  40.2009239
  28.6775589  30.5409489   0.2696717  28.8226776  29.6253223   0.5080031
  27.8354225  30.5394268  -0.1853377  61.5992584  41.8862801   1.9312395
  60.8999748  41.5104485   1.3964655  62.1729431  41.1462364   2.1298714
  21.7970581  45.5803680   3.2456505  21.3761482  44.9967499   2.6144152
  22.6153736  45.1383171   3.4718909  22.7170429  52.1953049  45.3633652
  22.8325882  51.9380264  46.2780724  22.8549995  53.1425095  45.3617172
  21.7224674  65.1806030  41.3140869  22.4806347  65.7160950  41.5478897
  22.0240669  64.6461945  40.5794601  18.2515793  50.4759598  36.0298309
  19.1890221  50.2824860  36.0316658  17.8866024  49.8988533  36.7006302
  51.6257286  10.3380966  82.2771683  52.4643364  10.7523928  82.4804688
  51.6283760  10.2469254  81.3243256  36.1356888  10.3886700  67.6044006
  36.5039062  11.2721186  67.6173096  35.3357239  10.4549665  68.1258316
   8.2819529  46.5621567   3.0148208   9.2328320  46.6558456   2.9575284
   8.1363993  46.0957222   3.8379171  36.5450401  24.0106525  69.3353195
  37.0649605  23.2374954  69.5547409  36.2278175  23.8420620  68.4480896
  11.2859926   7.5291023  61.4023399  11.6855936   7.2379704  60.5827103
  10.7317867   8.2674809  61.1495819  13.2288532  44.6399536  87.4113922
  12.9887600  45.3418617  88.0162964  14.1481581  44.8069534  87.2034912
  58.4253464  52.6996918  11.8195124  58.9405022  51.9601974  11.4970264
  59.0754051  53.3679962  12.0363674  64.2921524  55.4708519  71.5873718
  64.0312500  56.3814354  71.7252274  64.0689621  55.0309410  72.4076691
  18.3817406  33.2315712  13.6204281  17.6700459  32.6161919  13.4442644
  18.5759449  33.6232872  12.7689142  66.0709000  29.4123459  53.9702988
  65.9670410  30.3495350  54.1349831  66.8359528  29.3530521  53.3980942
  30.7674541  18.6878166   5.1002259  31.4556561  18.3967323   5.6984577
  30.1045170  17.9987602   5.1443563  69.5520172  56.8093109  15.8384047
  69.5497284  57.6229858  15.3342619  69.8732071  56.1483994  15.2250023
  66.3455734  14.5613518   9.7074299  66.3210831  14.3300228  10.6359329
  65.4847336  14.3075905   9.3745832  17.6054459   7.2848635  80.3934631
  17.6630497   6.6142240  79.7129059  16.6781445   7.3072639  80.6297760
  73.5527420   0.6913291  84.6275558  73.0740051  -0.1332930  84.7114944
  72.9103928   1.3649803  84.8507538  44.7010422  57.1772614  22.1579189
  45.5240173  57.6601105  22.2340775  44.6320915  56.9668579  21.2266769
  26.6817017  65.2961578  54.7912865  26.1949577  65.7730255  55.4635277
  27.5981827  65.3797150  55.0545616  40.4217377  47.7714996   2.2260914
  39.8931999  47.2240524   1.6454197  39.8973579  47.8513985   3.0228837
  47.0331764  57.1865921  66.7027664  47.0615234  57.6982460  67.5112457
  46.1142426  57.2110329  66.4359512  65.2227554  59.4919014  38.5102501
  65.9233017  60.0312805  38.1434517  64.5250473  60.1137085  38.7171059
   8.3953228  40.8476639  50.3256187   8.2285318  41.7883415  50.2661209
   8.2430983  40.5208702  49.4389038  50.3864746  34.2050667  79.4747467
  50.3830719  34.6493416  78.6269073  50.5521698  33.2863808  79.2630920
  81.8770065  46.0766182  39.5717812  81.8649368  46.9444351  39.9754868
  81.0807877  46.0481606  39.0412598  43.5270500  38.3107224  87.5851593
  43.1726723  39.1965675  87.6621094  42.9690247  37.7793541  88.1530380
  26.8989639  44.1696510  11.9615507  27.6373291  44.7653923  11.8344870
  27.3022842  43.3088303  12.0735703   7.7700624  67.2935181  77.1259155
   7.0511312  66.9005280  77.6208115   8.4781790  66.6518936  77.1818314
  67.0018616  66.0899506  74.5832977  67.0655289  65.2196045  74.9765778
  66.0625229  66.2314606  74.4655762  21.6561890  15.5044022  66.5880432
  22.4758873  15.0438814  66.7676239  21.9041691  16.4280605  66.5481491
  44.9240150  71.2176895  68.6100616  45.5538979  70.7846451  68.0339050
  45.4571228  71.7941666  69.1575089  78.4646149   2.0166976  53.5529099
  78.5819168   1.2008959  54.0396767  77.9511490   1.7657360  52.7850571
  11.2253990  46.2617836   4.5663199  11.4251728  47.0853386   5.0113778
  11.3036022  45.5954704   5.2490678  21.7935181  42.8680496  15.0723038
  22.3656578  43.5254059  14.6763582  22.3904953  42.2726479  15.5254555
  77.3939667  23.9218616  75.2460556  77.6682434  23.2321815  75.8504868
  76.9818497  23.4539108  74.5198212  32.4355202  66.6286774  59.4184799
  32.5380630  67.5290985  59.1103401  31.6680222  66.6569748  59.9897766
  81.9638977  21.5958939  46.2997246  81.4371796  20.8201828  46.1071968
  81.4168854  22.1169949  46.8874855  32.1116753  50.8659172  34.9410896
  32.2724190  51.4933052  34.2362633  32.8983383  50.3209267  34.9606590
  82.7969360  59.5753098  88.4260025  82.3684006  60.0576324  87.7189331
  83.4920425  60.1600723  88.7278519  39.0788498  58.3174629  47.5433006
  38.3138733  57.7909508  47.7753143  39.3530769  58.7180061  48.3682823
  82.9552078  62.3337860  48.6950302  83.4907150  62.6966209  49.4005890
  82.6620255  61.4858704  49.0286598  15.0134974  39.2834930  46.0740547
  14.3030291  39.8041000  45.6993103  14.7849283  39.1974030  46.9995689
  33.8110313  56.7159081  51.0685883  33.6754456  57.3869171  50.3995667
  34.5856285  57.0091667  51.5484161  77.8917847  21.7906475  88.5427399
  78.6595612  22.2573185  88.8728409  78.0198441  20.8862534  88.8289261
  36.7728920   0.3349482  77.4335022  36.7546768   0.4813194  76.4877319
  36.2572479  -0.4610810  77.5626450  44.3205299   4.8435965  75.4931641
  44.2927666   4.7134209  74.5452652  44.0978851   3.9875886  75.8591003
  18.9517593  12.5825090  63.9034233  19.7841034  12.1114779  63.9429855
  18.6024742  12.3791428  63.0357399  59.6312561  53.9311409  82.8869476
  60.5711174  54.1084404  82.8487473  59.2574463  54.4693146  82.1891861
  76.1391907  19.9840775  33.6029091  76.2851639  20.8670864  33.9423447
  76.4671783  19.4055691  34.2913742  66.6835022  34.0802574  69.0709610
  66.3621063  33.4598961  68.4166794  67.2360535  34.6853523  68.5762100
  79.0337601  50.0333328  13.4878244  79.7201385  50.7000160  13.5132837
  79.3149948  49.3756256  14.1238775  42.2702713  53.6109009  63.1900101
  41.6548080  52.9682922  63.5428467  43.1328163  53.2239571  63.3400764
   9.5672274  10.5312099  12.4602880   9.7059755  10.7535849  11.5396738
   8.6225796  10.3955173  12.5341702  41.5860481  58.6118698   9.0028925
  42.4091873  58.9871254   8.6900711  41.4495506  57.8410912   8.4519863
   1.5192698  34.0361671  87.4816513   1.4490056  34.1918793  88.4234848
   0.6141404  33.9333878  87.1876984  12.3221216   3.6933720  85.7984314
  12.5063391   2.7596939  85.6957626  13.0887766   4.1308894  85.4282303
  62.6121140  49.3663902  60.7284393  62.2213135  48.5526428  60.4101295
  62.7995872  49.8683548  59.9352684  24.4265480  38.5732307  57.2669029
  24.9889107  39.1432648  57.7913437  23.7062874  38.3420105  57.8534088
  60.3473778   8.5695257  35.3742218  59.7517929   9.0800123  35.9227753
  59.8798676   8.4655437  34.5454559  20.6590862  66.0566635  25.7954636
  21.3662968  66.4179611  26.3298283  19.9242573  66.6539536  25.9350929
  64.6021194   3.2647395  81.1347809  63.9275818   3.6230595  81.7117081
  64.1659164   3.1664524  80.2884369  61.9894066  28.1043320  70.4461060
  61.2492371  28.6672478  70.2191620  62.4388275  27.9527969  69.6146622
  69.3554611  64.1971436  62.5911560  68.9276047  64.1879730  63.4473610
  68.7822571  63.6734276  62.0313416   7.3827152  29.9995365  42.7351227
   7.5147762  30.8217468  42.2631454   8.2611151  29.6291180  42.8213615
  53.4231110   4.1699781  11.3251648  53.7380180   3.2666497  11.2925806
  54.1170349   4.6807218  10.9082193  48.3300934  33.5839462  67.1694260
  48.7349396  34.1800385  66.5393372  48.7700195  33.7759438  67.9975739
  72.2381897  20.7462902  12.4170418  73.0562134  20.3604527  12.7303982
  71.9025803  21.2377949  13.1667223  73.0171280  42.8202515   9.7907867
  72.7770157  43.6176758   9.3188839  72.4678497  42.1384315   9.4039536
  80.7490997  46.3683701  28.9507847  80.6595764  45.5108681  28.5349674
  80.3883972  46.2474594  29.8291378  51.4369011   2.6476026  82.8255463
  51.1239815   1.7653933  82.6254959  52.3891182   2.5870624  82.7490845
  49.0141258  63.7514954  35.8789749  49.7720528  64.2573166  36.1721039
  49.2757835  62.8382454  35.9961929  53.4974251  32.4102249   6.5804658
  52.8726578  32.1320915   7.2501984  53.0883751  33.1741257   6.1738086
  51.9403229   0.6084329  34.7818565  51.8112450   0.0139658  35.5208969
  51.0571709   0.8919818  34.5454750  46.0852432   0.6496890  26.4282837
  45.3710289   0.5431379  27.0565968  46.7959900   0.1139306  26.7804661
   7.7806191  45.3303223  20.3359108   8.3025646  45.5493011  19.5639954
   7.1331601  46.0328941  20.3944263  68.2531128  41.9350815  21.4363556
  67.5317993  42.4195518  21.8378906  68.4740372  42.4396210  20.6534996
  51.3612251  36.8006477  74.7604828  51.5016861  36.1551056  74.0678177
  51.4418564  36.3013458  75.5731506  11.9679022  26.2060261  80.6276245
  11.0939245  25.8174343  80.5903091  11.9899378  26.8171635  79.8912430
  76.1736755  71.2585068  55.7127419  75.8479385  72.1581345  55.7411041
  76.9153366  71.2912598  55.1085129  70.2161407  19.5349255  69.4763184
  70.9850693  19.2538910  69.9723053  70.5548782  19.7391834  68.6046753
  40.1171341  58.6358833  64.4907455  40.1452675  57.7784195  64.0662537
  39.3122482  59.0383415  64.1645203  23.2024498  56.5306664  63.4037018
  22.8807812  55.6609573  63.1662903  23.6277542  56.8538017  62.6093903
  -0.1062878  36.3875275  88.7599335   0.7668230  36.3451233  89.1499481
  -0.5839458  37.0092812  89.3090210  79.6434479   8.3958006  80.5632553
  79.7446518   9.2741785  80.1965942  78.6971588   8.2536602  80.5868225
  19.6541824  49.1514549   2.1362052  18.7557793  48.9616318   1.8658923
  20.1174107  49.3317184   1.3181839   9.5134077  33.1635513  64.8507309
   9.7251024  34.0167046  65.2296066   8.8814955  32.7812309  65.4596252
  82.3227539  65.4011841  42.8244133  82.5875015  66.3195267  42.7716675
  82.7130280  65.0858459  43.6395683   6.0647883  42.4373512  43.8242874
   5.3785191  42.1444969  43.2247009   5.9262609  43.3810883  43.9042625
  32.6567192  43.2560349  53.3126640  32.5759468  44.0255165  52.7491035
  32.4968910  42.5141106  52.7293663   0.4266543  41.7009392  66.3754578
  -0.4913469  41.9022751  66.1938858   0.8015319  42.5326996  66.6650772
  54.7932396  59.8179512  65.7825012  54.5356674  60.6833305  66.1003265
  54.1669769  59.6226273  65.0854492  47.9296989  10.5817661  84.2804794
  48.7632370  10.9837236  84.0357742  47.9195099  10.6148872  85.2370529
  45.3308144  40.0575294  11.2632418  45.4974174  39.1159439  11.2196884
  45.6984100  40.3271217  12.1049223   1.0376532   2.8148119  88.0922852
   0.6468465   3.3087595  87.3715134   1.1622858   3.4620833  88.7863617
   9.6122131  35.8697624  16.5024242   9.7183027  36.2214394  17.3863373
  10.5057659  35.7049217  16.2013912   4.5382051  21.9634380   6.2417402
   4.5412579  22.8333740   5.8424482   4.7098927  21.3654213   5.5143256
  80.5636978  35.5965805   4.9241796  80.9046783  34.7740898   4.5727854
  81.3430328  36.1254883   5.0948505  73.3225021  34.4606171  16.1474476
  72.4453430  34.4105988  16.5273495  73.9080734  34.2148170  16.8636341
  34.8090935  34.4266090  82.5142288  35.1739540  33.5880928  82.2313919
  33.8794937  34.3701096  82.2931290  78.2443237   4.2903953  60.0894089
  78.4811401   3.7688968  60.8563461  78.9878387   4.1927896  59.4945221
   3.1283236  63.3638725  67.6584549   3.8619716  62.9199257  67.2331238
   3.1155748  63.0079918  68.5469437  73.7363281  48.6932411  43.2113419
  72.7893753  48.8150024  43.1428146  73.8586349  47.7443771  43.1808014
  80.9617081  22.0446033  12.1575489  81.8522034  21.8572865  11.8606253
  80.6942291  21.2540188  12.6262331  67.9457932  17.9959297  79.1645966
  67.8697662  18.1250725  80.1099930  67.0840607  17.6770439  78.8963547
  33.8493080  42.3003120  30.2240772  33.3654900  43.1222076  30.1426067
  34.5990753  42.4046555  29.6382484  63.6626778  65.9076004  40.7085114
  63.3173752  66.5590439  40.0980835  64.0389938  66.4233856  41.4216576
  82.3802719  66.8900299  22.4394131  83.0870895  66.5326004  22.9768925
  82.7478943  66.9308548  21.5565662  21.6456261  25.1989422  81.0050964
  21.1082249  25.2031155  80.2129974  21.5141773  26.0661907  81.3882828
  77.0711517  23.9618282  36.1722145  77.3935776  24.7773533  36.5558662
  77.4628448  23.2731514  36.7093620  57.2416840  58.4413261  33.3214035
  57.0425644  59.1637459  32.7258415  56.8925552  58.7244453  34.1665001
  73.7531586  19.0720406   8.8038874  73.0614166  19.7154579   8.6498232
  73.2918854  18.2959538   9.1219196  71.3243713  44.2632904  66.7536850
  71.6135025  43.5579567  66.1747742  70.4135742  44.4196968  66.5042572
   5.2484970  55.8371239  21.3245335   5.1223707  54.9103317  21.5279579
   4.3618531  56.1945724  21.2763062  27.2609978  54.8146133  33.9098816
  27.7658577  54.7755051  33.0975876  27.4954185  55.6579704  34.2972145
  36.0582504   0.9200650  50.4235916  36.1205902   0.7349887  49.4865227
  36.5004616   1.7621264  50.5313568  85.7114563  58.9708176  60.4619408
  85.0986938  58.7247772  59.7689590  86.4070129  59.4471779  60.0086060
  70.9429245  12.2710924   7.2397556  70.0742264  11.9157076   7.4276285
  71.3122787  12.4683867   8.1005030  24.0440693  44.3655281  25.1592178
  24.7486057  44.4611320  25.8000946  24.2807274  43.5853233  24.6577110
  63.0012817  38.5477180  13.3757038  62.6128235  38.2182274  14.1861172
  63.9281883  38.3187866  13.4440289  26.6740685  44.3283463  51.3731079
  27.0690002  43.7283287  52.0057564  27.4141197  44.6645813  50.8676376
   6.0928726  31.9472771  23.3885803   6.4881859  32.7694702  23.0988331
   6.5973110  31.6988945  24.1632290  52.8225784  70.2763901  18.8153248
  53.4225922  70.6562119  18.1734905  52.1654358  69.8212051  18.2888241
  83.9070816  66.7574310  70.0683365  82.9833145  67.0037842  70.1151047
  83.9619446  66.1765671  69.3095169  26.5911064  45.5754471  60.8714256
  27.3227863  45.3390427  61.4415054  26.8665447  46.3917427  60.4542618
  22.7240353  68.5328903  83.0476990  22.6118011  68.0773087  82.2133865
  23.6416454  68.3877945  83.2782822  85.3281555  35.0874367  50.2045937
  85.7122345  34.5536842  50.9001694  85.8948669  34.9384079  49.4477158
   9.2226419  37.8970604  43.4966583   9.1278400  38.7005196  44.0082245
   8.7183313  37.2436142  43.9813385  53.5910912  70.1943207  71.1306686
  53.5619354  69.3384857  71.5583572  53.1152000  70.7751007  71.7243500
  44.4090614  53.1789093  28.0978546  44.4414787  52.2225075  28.0760155
  45.1948738  53.4342155  28.5811272  34.8113098  66.7743378  29.7877636
  35.7009087  66.7502060  30.1402779  34.9153862  67.1110458  28.8978062
  69.6381531  55.7879028  76.6093445  70.4258575  56.3167114  76.7362595
  69.9602585  54.8883667  76.5517578  16.0775967  58.3217773  48.6730385
  15.5905104  57.8598328  49.3553772  15.6947622  59.1989479  48.6576080
  16.6748867  24.5352936  13.1277275  17.1666603  25.2722988  13.4899664
  15.7676754  24.7047634  13.3816538  77.6776199  49.8563881  36.3309021
  77.9583588  50.0613899  37.2227516  78.0163345  50.5782127  35.8013000
  24.0161953  27.2838268  68.8272705  24.4856873  26.8202591  68.1337967
  24.4213982  26.9759636  69.6379929  24.8721313  38.5586700  36.6934586
  24.5334873  37.9356995  36.0504532  25.6985474  38.1748428  36.9866295
  79.5970764  50.5559654   2.0533895  79.0734940  50.1011772   1.3936510
  79.8215179  49.8776436   2.6903667  20.2900238  12.3696985  17.7648392
  20.6898403  12.2067652  18.6191406  19.8648148  11.5427380  17.5377598
   9.1154470  28.4146996  65.9660568   8.2678738  28.7889080  65.7256012
   9.7579765  29.0265923  65.6069260  64.9347534  56.1228561  10.0011835
  65.1536560  56.8923187   9.4755993  65.1134186  55.3801193   9.4244232
  25.4913425  69.0152969  69.6398392  24.5420265  68.9886322  69.5201874
  25.6103210  69.1793671  70.5753403  73.5091095  35.0038338  41.7790756
  72.9399033  35.0308876  41.0099831  73.2351761  34.2181549  42.2522659
  70.7946701  51.4027405  56.3464775  70.1851196  51.4070702  55.6084671
  71.5800018  51.8351250  56.0110245  39.5604897  40.6627007  23.9271660
  38.9190750  41.1403160  23.4011421  39.5813828  39.7866287  23.5420799
  46.5279465  42.5917625  59.8329239  45.7911415  42.0975075  59.4736671
  46.5095482  43.4250946  59.3623390  43.8164864  51.8393021  84.8049545
  43.5244102  52.5287323  84.2086182  44.7687187  51.8266411  84.7083817
  65.5779266  50.1356735  62.8163109  65.0853653  50.7267113  63.3857803
  66.4955673  50.3466949  62.9884300  32.0528030  37.6552277  61.3440666
  32.8202782  37.1579247  61.6267471  31.4844017  37.6766472  62.1139336
  68.0401535  29.6690292  14.7264929  68.3511429  30.5735741  14.6902704
  67.5848999  29.6057167  15.5661201  54.0122185  50.2968025   4.1637707
  53.8055267  50.0726471   5.0711098  54.6775818  49.6591263   3.9051318
  40.4252968  54.7049255  61.7283325  40.5160637  54.3356781  60.8498955
  41.2307892  54.4514732  62.1790810  69.1706772  12.0562067  52.3014221
  68.5376282  11.5180655  51.8261452  69.7900391  11.4270296  52.6712265
  23.9821930  70.2144928  13.0792475  23.3364639  70.9197693  13.0362473
  23.5663624  69.4810715  12.6260252  55.6596985  66.8625565  43.1110954
  56.2158318  66.4756393  42.4349022  56.1823158  67.5799637  43.4694672
   5.3502507  12.3264790  39.3782806   5.1979260  11.4975758  39.8320961
   5.0117173  12.9927311  39.9763908   5.5096579  57.1897812   1.6203691
   5.3118949  56.2554054   1.6841319   5.4296646  57.5133057   2.5176780
  81.3719940  56.3821640  60.6510696  81.7745285  56.9645729  60.0068626
  81.9791794  55.6454353  60.7202911  53.8713493   0.7840880   9.8264322
  53.0184860   0.4016926   9.6199675  54.3485146   0.7673212   8.9968157
  73.3178482  20.1227093  52.2717857  73.5282593  19.7680950  53.1356201
  72.8545227  19.4125290  51.8277054   6.5286860  45.8477211  10.6999283
   7.0065393  46.3370285  11.3696060   5.6068158  45.9666443  10.9284983
  84.1854477  47.5849266  42.8186035  84.2594147  46.7557297  43.2910423
  84.9815445  48.0637856  43.0491562   1.7547531  42.8369446  75.0936737
   1.2561574  42.0991249  75.4447556   1.4617687  42.9135857  74.1856461
  82.1473999  13.4470177  33.7071686  81.9811554  13.6412754  34.6295853
  82.2330551  14.3058128  33.2932014  86.4855652  51.8348465  67.6657257
  85.8482971  51.1472359  67.8588867  87.1768341  51.3898773  67.1754532
  48.1489754  10.3930206  87.2670746  47.6278496  11.1801109  87.4256516
  48.1444931   9.9299908  88.1048126  19.5812263  64.4505081  54.9607964
  19.1263638  65.1799850  55.3817520  19.3540611  63.6877174  55.4925652
  15.8510952   9.8814564  16.8891163  15.4471807   9.0174723  16.9704628
  15.1705933  10.4917011  17.1732807  70.9183884  35.6527519   4.9005842
  70.6214447  35.8811264   4.0197325  71.8217239  35.9671173   4.9378343
  48.4117165  64.3562317  28.3825169  49.0480232  65.0218201  28.1210861
  47.8117714  64.2934189  27.6393147  67.1859665  70.1837540  40.1422081
  67.9196777  69.5698776  40.1747780  66.5569611  69.7739182  39.5483932
  70.2453156  42.2933578  72.3296280  69.4938660  41.7020874  72.3738098
  71.0049286  41.7253189  72.4582672  53.6532364  16.8059902   5.6614256
  53.6882324  16.4095211   4.7908974  52.7485352  16.6780262   5.9466910
  56.1167488  54.6762581  11.8702583  56.5797806  55.5023804  12.0093613
  56.7884331  54.0771217  11.5445204  37.0852394  28.3524609  71.5226517
  37.5554047  27.8280525  72.1708527  36.5945206  27.7124290  71.0071030
  26.7401199  60.9510345  87.6687469  26.6518326  61.6988831  87.0778503
  26.7052727  61.3332214  88.5456467  13.8103580  49.9131927  11.7843008
  13.9252186  49.5830765  12.6754026  14.6064711  50.4154015  11.6104546
  39.3931465   5.7379622  80.7229919  38.7438965   5.3151364  81.2850647
  40.2167854   5.2995877  80.9367218   1.7479420  15.2648592  49.9694519
   1.0484295  15.8347788  50.2889900   2.4293962  15.8667774  49.6702080
  85.9521484  27.2823048  50.9023972  85.2676926  27.1860466  50.2402115
  86.3725128  26.4231243  50.9390106   1.0881445  34.0563622  16.2331791
   0.8885701  33.9819832  15.2999754   0.2819861  33.7860413  16.6728001
  24.7731247  50.6696129  10.4546156  24.9938316  49.7967110  10.1297073
  24.7899075  50.5817719  11.4076290  30.8491974  70.7665482  27.6732178
  31.5968113  70.5401611  28.2264385  30.2706566  70.0060501  27.7294292
  84.0783157  18.2747669  31.3892326  84.1210480  18.9145336  30.6785259
  83.4968185  18.6740532  32.0362778  37.3885689  52.8669586  56.1835785
  37.8049126  52.0296288  56.3879547  37.8572121  53.1854820  55.4121208
  81.6559906  10.1452065  53.6106834  81.6126328  11.1011763  53.6324425
  80.8317413   9.8590384  54.0043182  10.9222708  54.5962982  58.1993217
  11.0968542  54.5540810  59.1395187  10.5484505  55.4670296  58.0639915
  55.2017937  10.8363543  39.0659103  56.1000900  10.7696562  39.3897057
  55.1762009  10.2517052  38.3084373  74.3307800  21.3213978  35.4947166
  74.1095886  22.2476311  35.5916786  74.1146469  21.1175194  34.5847969
  60.3209572   6.0843816  -0.0195301  59.9313774   5.4224014   0.5516462
  61.0172424   6.4759507   0.5078163  20.0255623  59.9397545  22.8652840
  20.5510654  60.6668205  22.5314331  19.8973560  59.3691483  22.1075211
  10.7951107  28.6043701  61.7215462   9.8602448  28.4904823  61.8926811
  11.2256622  28.0180035  62.3436623  45.4677773  55.8152161  16.3241081
  44.6549950  56.1848907  15.9792042  45.5890770  55.0029793  15.8323889
  49.7387352  37.5282669  66.5200119  50.6710167  37.3571625  66.6534729
  49.6767311  38.4813919  66.4572754  81.6003494  64.8108673  30.9535046
  80.9142761  65.3578339  30.5709362  81.8047028  64.1710434  30.2715225
  39.0027199  47.9793587  67.9232101  39.0982590  47.0269508  67.9277954
  39.1384315  48.2380753  68.8347321   2.7975552  51.9863091  12.9380283
   2.9919839  51.1911507  13.4341679   2.1971161  51.6986961  12.2502899
   3.9570429  48.3303833  21.7479591   4.6427765  48.5056725  22.3923779
   3.3160317  49.0280075  21.8845425  81.0845490  35.6219025  42.3661461
  81.2206268  35.8805046  43.2776489  81.4451065  34.7368660  42.3118935
  73.6747360  15.5530148  64.8868027  74.5175400  15.4281816  65.3230743
  73.8623123  16.1631813  64.1735382  27.8526726  39.5834694  61.3667145
  27.1675835  39.5965614  62.0350800  27.9331245  40.4957390  61.0882950
   0.8143728  45.7024193  44.2178650   1.0722845  46.4393082  44.7716827
   1.2604933  44.9471817  44.6010361  39.1619110  71.1884384  57.3607330
  38.6897316  70.3586884  57.4299660  38.5123749  71.8063889  57.0253601
  51.3310776  70.9290314   0.8576622  50.6213722  70.6706543   0.2696197
  52.0682793  71.1149597   0.2761160  81.0526047  64.7316895   7.3293195
  80.3321457  64.3611450   6.8195453  80.8801117  64.4498672   8.2276821
   7.7816758  66.5343170  37.3793297   6.9581327  66.5011063  37.8660583
   8.3426657  67.1119308  37.8969116  48.2765350  40.6021347  34.2071571
  47.7429352  40.0208778  34.7490501  47.7062683  41.3485870  34.0232124
  67.0428085  43.0934868  14.4170141  66.4296341  43.8079185  14.5897369
  67.1394424  42.6515808  15.2605848  10.5963669  56.9356346  41.5672607
  11.1417809  57.7197685  41.6296234   9.9841042  57.0109177  42.2991753
  48.3337746  15.3601303  69.5989609  48.6252594  16.2628098  69.7271729
  48.4986877  15.1844816  68.6725769  46.5049438   8.9505568  49.8388863
  45.7161255   9.3733101  49.4993553  46.4940491   9.1412344  50.7768402
   2.5109551  68.6966858  72.5797806   1.7250984  69.1883698  72.3412170
   2.3393707  67.8067551  72.2718658  56.7709084  29.8024025  86.7692184
  56.0204086  29.5574799  86.2279282  56.5136337  29.5605526  87.6589127
  73.8886337  31.2276840  35.6296501  73.0755539  31.2333050  35.1245842
  73.7025223  30.6591187  36.3768654   8.9406185  18.1419220  19.4892998
   9.5671730  18.2707901  18.7772217   8.0891762  18.3354740  19.0971050
  76.9147186   8.2138062  80.0276642  76.5225754   8.8267612  80.6495514
  76.1837921   7.9283195  79.4794998  17.1316395  19.5564899  21.2760544
  16.8222294  20.3155823  21.7702961  17.5887604  19.9310532  20.5230789
  62.0543327  58.7250824  25.9945526  62.4707451  59.5868835  25.9830341
  61.3858261  58.7729416  25.3111477  55.0198898  22.2729225  38.2724800
  54.5059204  22.9455681  37.8256989  55.9019356  22.6409836  38.3250618
  26.8505173  40.9698486  79.8791885  26.5979576  41.4331131  79.0805435
  26.7140522  40.0451317  79.6730118  61.3318520   2.4715912  80.7117767
  61.4838486   3.1552725  81.3642426  61.1306953   2.9490752  79.9069290
  80.0445175   0.3634789  65.3213730  79.2763443   0.1698650  64.7841034
  79.7968216   1.1407272  65.8221359   5.5866585  25.5778656  30.1160717
   6.4574151  25.1937752  30.2184887   5.7445059  26.5209484  30.0723457
  70.1092682  43.7545166  24.5761490  70.5075760  43.2574463  23.8616562
  69.2615051  43.3331642  24.7175522  11.6800737  52.4501724   3.7454815
  11.6880760  53.3103600   3.3256638  12.6032820  52.2511597   3.9014041
  64.2112122  14.0594397  24.1154747  63.4565697  13.5568762  23.8085899
  64.3941879  14.6745443  23.4052658  29.9610138   7.3231912  30.5673046
  29.3547726   7.9274406  30.1388340  30.7523785   7.3566480  30.0298557
  16.3635540  55.5950890  68.3723755  17.1991997  55.8449364  68.7667160
  16.5027027  55.6979713  67.4309464  82.5045776  58.4955025   5.6273451
  82.3183517  58.8474503   4.7568936  82.5132675  59.2630501   6.1992073
  13.1517658  -0.2815734  10.8495712  12.3879128   0.1310003  10.4464045
  13.8769407   0.3105524  10.6502209  49.3004036  63.1649437  40.1760330
  49.3593102  64.0214081  39.7526779  48.8569221  63.3382263  41.0064125
  10.0020485  22.2610989  56.5103035   9.2859354  22.7661648  56.1251755
  10.7923641  22.7451324  56.2708359  21.5475273   6.0902982  63.9494514
  20.8935528   5.4786954  64.2878189  22.0018387   5.6002188  63.2641373
  31.8633060  53.4973679  19.1926613  30.9151802  53.3794403  19.1345253
  32.2253151  52.6385880  18.9743042  38.4991379  30.1682148  74.2431107
  39.1688919  29.8645630  74.8558578  38.9887619  30.4291687  73.4631042
  46.4463425   6.9558783  79.9195938  46.5823555   7.6493144  79.2739334
  45.7863808   7.3098092  80.5157700   7.5042834  67.3739929  85.7786942
   6.6262412  67.0814133  85.5344162   7.3565493  68.1519394  86.3164749
   7.4997187  11.8216610  53.1837273   7.8775072  12.2367401  52.4083481
   6.5875463  11.6554031  52.9459648  20.9237156   5.2546225   8.2677488
  20.6971588   6.0406485   8.7648067  20.5520039   5.4054003   7.3986530
  45.1930008  69.0586853  55.4875832  44.8108559  68.2836380  55.8992882
  45.6781082  69.4892349  56.1915207  16.8763790  66.3950882  58.9699173
  17.0470085  67.2300339  58.5340424  16.1952152  66.5949173  59.6120338
  47.1413040  12.4072599   1.0127413  47.2325401  11.7389822   1.6919414
  47.7293396  13.1105299   1.2881659  67.1667023  13.5189438  19.4006310
  67.5484390  12.6427946  19.4542274  67.9055405  14.1111059  19.5409622
  76.0047989  25.8411369  61.3235092  76.4679718  26.0715504  62.1288719
  76.1411133  24.8983002  61.2301903  69.4605331   0.9521413  15.4138851
  69.3398514   0.1287236  14.9409676  68.5729980   1.2867379  15.5425692
  65.6656342  46.3392792  68.1879501  66.2206039  46.8523674  68.7753067
  65.5011292  46.9204483  67.4453812  42.2700615   1.6115077  11.6833439
  41.3131142   1.5895593  11.6823225  42.4885864   2.5350568  11.5587034
  32.3104477  56.8346062  32.2231140  31.4766102  57.3033638  32.1883125
  32.5821381  56.7608871  31.3082466  42.6898460  42.7862244  67.3315353
  42.3412971  42.8008957  68.2229004  43.4548225  42.2131577  67.3828888
  46.6018753  15.8796511  18.1731033  45.9289894  15.4034576  18.6596184
  46.2280197  16.7502346  18.0369186  18.3542843  33.5639420  76.2271042
  19.1466637  34.0389137  75.9765625  18.2376614  32.9115181  75.5364685
  43.3674049   9.2710419  66.4835434  43.3435135   9.1381264  67.4311752
  42.5845642   8.8257008  66.1594086  21.8519440   5.2435660  78.7643814
  21.3121529   6.0148821  78.9373856  22.4802685   5.2241478  79.4862289
  75.8742752  68.4098206  28.0576019  75.8640213  67.8114166  27.3105831
  76.6703491  68.9278412  27.9386120  14.0841341  47.7588959  80.5015717
  14.4818125  47.1228485  81.0961533  14.5583076  47.6457443  79.6778030
  79.3853073  43.6134224  46.3237038  79.6736832  44.3540993  46.8570557
  79.9622879  43.6290970  45.5601082  58.5800743  45.9376297  49.0971985
  58.7109528  46.2422485  48.1992531  57.9580460  45.2145729  49.0165634
  76.1473389  69.0831146  54.2981224  75.3161316  69.0505905  53.8245506
  76.0362701  69.7949905  54.9282990  53.1919098  49.6788445  33.3265953
  53.6772156  49.3346405  32.5767708  53.0118866  48.9106140  33.8684883
   5.4722867  28.9192181  18.0857716   5.2808709  29.0859337  17.1628437
   5.5085235  27.9651642  18.1543236  70.0984497  61.6912613  27.1197433
  69.8086700  60.7931747  26.9594593  70.5334091  61.6541557  27.9716053
   4.9211240  61.8396072  40.4001617   5.7258263  61.6545143  40.8843384
   4.8425593  62.7933311  40.4218178   6.0963678  69.4888840  78.9880676
   5.8294220  68.6281967  78.6652908   5.3731537  69.7692108  79.5489731
  69.0805359  69.8338013  32.3700676  68.3802185  70.0622635  31.7588425
  69.8682556  70.2196121  31.9868279  73.6901550  48.3309174  47.7651482
  73.8451691  47.6752548  48.4450760  72.7901917  48.1723633  47.4802513
  79.1536407  14.9077749  50.4462738  78.2979050  15.3261042  50.3516541
  78.9642105  13.9695797  50.4345169   8.7760534   6.8477607  74.2399368
   8.5646439   6.5715899  73.3481598   7.9692998   6.7009726  74.7337341
  40.0125847   6.5193248  44.7245064  40.1122551   6.5572424  45.6757507
  40.5701256   7.2250724  44.3969421  24.1889954  33.5255241  78.0697327
  23.6015987  33.8216515  78.7650757  23.6110020  33.1150055  77.4265900
  71.6621170  51.0339355  72.1998291  71.2885971  50.9345398  73.0755234
  71.8274002  51.9729424  72.1151047  83.3278198   3.0831680  87.9880142
  84.0913315   2.5063002  87.9655457  82.9398193   3.0009804  87.1168442
  59.5727234  30.0395031  80.0535202  59.9465446  29.2976322  79.5780029
  58.7485199  29.7059860  80.4080429  59.2693291  63.5727386  46.5250168
  59.1866722  64.2940826  47.1487656  59.7739487  63.9402046  45.7993698
   1.1549716  54.0068130  34.2325821   0.8443599  54.9031830  34.3601341
   0.9392694  53.5598335  35.0510635  15.7581167  68.7117081  64.1521225
  15.3714437  68.1679230  64.8384247  15.6271772  68.2105331  63.3471947
  66.1584625   4.7244453   7.5663266  66.3993607   5.6099882   7.8383799
  66.1546021   4.2172194   8.3780766  47.4864273  -0.0264801  54.3582115
  48.0739212  -0.2326587  55.0852394  47.0308037   0.7680432  54.6363716
   2.8471975  29.3176537  73.4815140   2.6330109  29.5964565  74.3718109
   3.2585077  28.4603462  73.5914307  13.1964016  47.6555862  58.1741486
  13.3423910  48.6014900  58.1876831  12.2445755  47.5606232  58.1389313
   8.2306957  68.6589737  74.5236740   7.8889470  68.0236664  75.1528168
   9.0784903  68.9199600  74.8833389  21.4029293  36.3826675  80.6898880
  22.2540493  36.7341423  80.4285583  21.4076767  35.4806862  80.3695068
  11.9278946  33.5926361   5.8094988  11.2761774  32.8996124   5.7036047
  11.5456581  34.1837959   6.4580784  11.9957590  19.0208340  78.0959473
  11.8944435  18.9642277  79.0460892  11.1015968  19.1021938  77.7641602
  10.1640682  30.8549595  57.4022408   9.3152742  31.2970810  57.4197655
  10.7274342  31.4381390  56.8935623  54.4486656   0.8314350   0.8211012
  53.7063751   1.3604286   0.5288596  55.0345001   0.8022107   0.0646791
  72.8951416  57.7036972   3.7197258  71.9908371  57.7173996   3.4062321
  72.9815750  58.5046272   4.2367105  86.4464340  52.7764359  36.1458168
  85.9216385  51.9863892  36.2748489  85.8038635  53.4666328  35.9816055
  42.9469490  29.6564045   5.0035968  42.3434868  30.3985767   5.0389132
  43.5491447  29.8710480   4.2911949   6.0453653  44.3593597  47.3875008
   5.8331451  44.1501923  46.4778633   5.3786216  43.9023552  47.9001732
  78.3148422  66.4740067  11.7885456  78.6106415  66.1299438  12.6313715
  77.3791733  66.6348495  11.9105759   7.8003917  56.7267265   0.1439723
   7.0211949  56.7548294   0.6992149   7.7694769  57.5438080  -0.3536732
  61.9177780  39.7868690  75.1147690  62.0832748  39.5284309  74.2080994
  61.6183815  40.6940346  75.0543976  52.3168831  49.8957901  65.5924988
  53.1645355  50.1616936  65.2361069  52.5230408  49.5284042  66.4520035
  40.6449928  17.9914856  69.9123230  41.4063072  18.3691864  69.4719009
  40.4253883  18.6243782  70.5960312   8.8896618  23.9082870  27.8057308
   8.4306860  24.0063705  28.6399689   8.9565258  22.9618759  27.6789761
  54.2988319  52.4560928  76.5808945  54.2613602  51.4996681  76.5717621
  53.4288940  52.7326317  76.2928543  58.7519531  48.5496864  57.6802292
  58.9339790  47.6104889  57.6485748  57.9060516  48.6445999  57.2424202
  31.6347733  10.0299997  14.7094431  30.7386055  10.2660322  14.4698505
  32.1529808  10.2366953  13.9316454  66.5465927  22.0034294   9.9989328
  66.0802460  22.1038418   9.1690722  65.8621063  21.7943974  10.6345568
  54.5342827  25.1978168  62.0781174  55.2706985  24.8073673  61.6075058
  53.7586021  24.8079414  61.6749496  36.4615746  52.2830772   0.7396306
  36.2640724  51.4800034   0.2576545  36.7037010  52.9151917   0.0628463
  17.2040787  66.2028809  25.2454128  16.2951488  66.3854370  25.0071888
  17.2710533  65.2483444  25.2207603  83.9304581  34.3579674  19.8440380
  84.5447311  35.0825157  19.7260113  84.4555664  33.5718880  19.6938114
  78.6150742  17.9631233  45.5836258  78.5513382  17.2479057  44.9506683
  77.7265015  18.0597000  45.9261818   5.3168840  50.4321327  56.7518883
   5.3849587  49.5319748  56.4335899   4.3761735  50.5830307  56.8442192
   0.0727273  23.1047802  77.1265030   0.9396133  23.1340599  77.5313339
   0.1660420  22.4822750  76.4053879   8.9111700  54.4356613  19.4364223
   9.7781754  54.7977715  19.6192074   8.7192812  53.8804855  20.1921940
  43.2163887  41.8430977  16.0429935  42.8587646  41.5497665  15.2049665
  42.5445023  42.4239197  16.3999882  23.0290356  56.8606262  41.7547150
  23.2170238  57.6806068  41.2980690  23.1736393  57.0626755  42.6791039
  36.7797318  65.7470398  44.0717392  37.4238892  65.5736542  43.3852768
  36.4727325  66.6359024  43.8931274  46.5918045  64.2630386  15.9084520
  46.7941475  63.5125771  16.4671078  46.0489273  63.9008751  15.2081976
  77.5524902  50.3607063  65.6766815  78.4595566  50.3164177  65.3741837
  77.0960541  49.6939354  65.1635437  75.2437897  19.4732361  37.5999260
  74.5895615  19.5967522  38.2876434  74.8971100  19.9565544  36.8499603
  72.2541809  23.0804424  56.9979324  72.3935242  23.9298630  56.5792465
  71.3078537  23.0326424  57.1335869  67.6504898   5.7156072   2.5515015
  68.2319717   5.8495431   1.8030512  67.8548584   4.8323164   2.8585238
  18.8052311  58.2231560  87.1190491  19.1085491  57.3162308  87.0776749
  18.2400703  58.2517128  87.8910599  57.2636223   1.1944746  68.2012787
  57.3768883   1.5958245  69.0628586  58.1524506   0.9793409  67.9185562
  29.5594749   3.0960581   7.9091578  29.8673267   3.9973645   7.8137326
  28.8226814   3.1577163   8.5170755  84.6605988  65.1595612  35.0192375
  84.8765793  65.6368027  34.2180977  85.3043823  65.4626160  35.6594925
  20.6535187  58.0816383  69.8828812  20.8256874  58.9693947  69.5690765
  21.2295322  57.9794884  70.6405106  69.2571335  49.4084587  11.0443296
  69.2433090  50.3166008  11.3465166  70.1775513  49.2359962  10.8460569
  21.3093548  43.4315567  76.8000641  21.6546135  44.2478714  77.1615295
  21.2072220  43.6080284  75.8648300  66.6851425  36.2289429  61.1583138
  67.2370453  35.4522896  61.2501945  65.7981186  35.9144592  61.3330154
  53.6163712  22.4589138  80.9013367  54.4137268  22.1150932  80.4985428
  53.7136841  22.2603455  81.8326416  67.1394730  12.2141085  83.9489517
  68.0511627  11.9489107  84.0702972  66.6398621  11.6147165  84.5033493
  19.7168159  57.0701599  24.0751400  18.8034382  57.0288048  24.3584499
  19.7904301  57.9123306  23.6261864   9.2571077  46.8007507  78.2063980
  10.1049910  46.7727356  78.6497269   8.7276373  46.1452293  78.6604691
  18.2193241  20.7146683  29.7306957  18.5218487  20.4736347  28.8551311
  17.2721672  20.8165894  29.6372185  28.9067173  39.9801102  69.6438751
  29.2289143  40.8315086  69.3479996  29.2115917  39.3639832  68.9777908
  42.0299110  23.1403122  65.9790268  42.3778381  23.9852943  65.6940994
  42.2680130  23.0829773  66.9043655  75.3425751  16.3392334  76.9345932
  75.6794968  16.0590019  76.0836029  76.1093063  16.6798439  77.3953934
  45.8782158  45.3216858  35.7225380  46.0184059  45.1988029  34.7836647
  45.2841721  44.6133499  35.9707336  51.4869118  43.8459854   6.8373985
  51.4983902  42.9156113   7.0621419  51.1822052  43.8695221   5.9302983
  83.1584320  26.5513630  18.1563416  82.3830338  26.1156120  17.8026314
  83.5687485  25.8925858  18.7165985   9.2268829  44.6919785  55.1253281
   9.6102085  44.8473663  55.9885483   8.3236809  44.9985886  55.2056274
   1.6323378  38.0830231  81.3411484   1.1851752  37.4266586  81.8754349
   2.3804095  38.3553123  81.8726349  10.7018528  17.6402531  12.7544899
  11.4076490  16.9987183  12.6737719  10.8290892  18.0286961  13.6200285
  62.5959091  33.0218658   5.9518766  63.1272926  32.4567528   5.3910623
  62.4492455  32.5040741   6.7434678  75.7983551  64.2435684  14.5305176
  75.1457672  63.6961060  14.9671516  76.4636993  64.4031067  15.1999130
  73.5157013  10.9966536  19.2784786  72.6015396  10.9610844  18.9969139
  74.0192032  10.8866091  18.4718781  64.8343964  18.9258900  21.9119282
  64.5572433  18.5298119  22.7380905  64.3567276  18.4386616  21.2406025
  49.6938324  46.5898399  61.3264542  50.6490631  46.5303917  61.3417358
  49.5087967  47.3219109  60.7381821  83.1871719  23.1841488   7.4632673
  83.8721771  23.7504559   7.8186569  82.5143967  23.1659641   8.1439066
  19.2477093  63.7841110  45.4448395  18.9812298  63.7865829  44.5254860
  18.4650002  64.0599442  45.9218254  74.7221680  57.4802589  37.9100456
  75.1547546  57.5572510  37.0596504  75.2695923  57.9932137  38.5045509
   2.7086818   0.8879517  70.3778992   3.1532173   0.0409313  70.4122009
   2.8297999   1.2575990  71.2525024  78.5406494  24.1060162  82.6189499
  79.2329788  24.6950855  82.9187927  78.5060349  24.2396336  81.6717529
  -0.0889302  28.3069172  85.6317444   0.8442350  28.1682911  85.7936630
  -0.5150732  27.5406380  86.0157318   0.4571068  37.6732254  27.6905327
   0.9130163  38.0833168  26.9555473   0.7511662  38.1633644  28.4583378
  12.5085669  63.6280060  60.5946083  12.6091824  62.6807480  60.6884880
  12.2023392  63.9225121  61.4523506   9.2311401  49.4056396  35.1583023
   9.5486927  48.6102638  34.7307892   8.3872290  49.5807610  34.7419128
  65.1892700  52.9587898  27.5357513  66.0591049  52.9483528  27.9351463
  64.9296646  52.0380440  27.5030727  42.8227272  36.1591225  24.6770954
  43.4016838  35.5091133  25.0752525  42.5324402  35.7529984  23.8603764
  70.6439362   7.4033771  57.4578629  71.0827789   7.3968835  58.3085098
  70.9434738   6.6024590  57.0277023   5.1519132  28.7819271  39.4685211
   5.4259644  27.8652840  39.4984131   4.2406554  28.7691383  39.7612305
   0.5290067  57.0250511  86.4714966   0.5630114  57.0368423  85.5149765
  -0.3200029  57.4117126  86.6857605  19.4198265  54.3833008  27.2834568
  19.6888599  54.2536087  26.3740444  18.4923248  54.6133804  27.2283573
   7.6475644  47.8194199  17.5477619   8.4658976  48.2333794  17.8219891
   7.9222188  47.0190163  17.1003799   6.9773927  69.4042587  35.7631111
   6.9921217  68.4910965  35.4764938   6.8779197  69.3553009  36.7138710
  23.3538475  47.8247833  67.4507217  22.9481850  47.1167908  67.9511337
  24.0782127  48.1225395  68.0010529  67.2861481  43.6616325  85.8513336
  68.0015335  43.1674004  85.4510956  67.0007324  44.2667389  85.1667786
  76.4424973  62.6054764  25.0843983  76.4087753  62.5339546  26.0383263
  75.7660904  62.0030136  24.7749805   2.3429875  51.2328415  66.6228638
   2.0532784  52.0409241  66.1994247   3.2965257  51.2478714  66.5405807
  81.4954987  18.5724716  58.7158546  82.1569138  17.8808270  58.6960220
  80.9185867  18.3733921  57.9784431  45.0592194   4.6909528  22.7346668
  44.8096466   3.9330328  22.2059860  44.3842888   4.7436590  23.4113655
  64.0528336  48.8618889  76.8427658  64.7834473  49.2260475  76.3429489
  63.3357239  48.8044205  76.2113495  22.9215221  20.7504940   9.7315369
  22.4601364  21.2135181   9.0322771  23.7541733  21.2147636   9.8174219
  33.3416786  66.3016510  47.0806885  33.5545845  65.7275696  47.8164406
  33.3782768  65.7308884  46.3131447  31.2328014  69.8071365  31.8839664
  31.8005543  69.9585800  31.1283512  31.0827579  68.8617706  31.8851662
  25.1315651  60.6553040  13.8849669  25.9678650  60.7408104  14.3427029
  24.6247654  60.0476074  14.4235725  61.6712570  31.6599236   8.2405605
  61.0637512  30.9675446   7.9802108  61.9670601  31.4030952   9.1139278
  72.1780167  21.6358299  61.2497063  72.0149918  21.3604164  60.3475990
  71.3078308  21.8126450  61.6071205  16.3849335  67.7696991  32.0364037
  16.4132175  66.8574142  32.3247986  16.1537533  68.2626953  32.8236427
  20.3370628   7.6643672   9.5744610  19.5636787   8.2220144   9.6589537
  20.3741722   7.1797662  10.3990927  48.8765450  63.8305168  14.0044031
  48.3668518  63.8481331  13.1943798  49.3098869  64.6835175  14.0333118
  64.3632812  49.2528267  69.4280701  64.8175430  48.8674011  68.6788483
  64.8755798  50.0320778  69.6438065  41.4257050  52.1940651  76.3244400
  40.7344894  52.4793167  76.9220047  41.0575485  51.4308434  75.8792648
  22.9441109  10.7150307  77.4191055  22.1665211  10.9417744  76.9090347
  23.6783829  11.0079870  76.8794250  69.1090012  32.4316826   1.3756126
  69.3031616  33.3655357   1.2952918  69.9676208  32.0088043   1.3889097
  36.0730362  26.5876675  78.2115479  36.7128296  27.2902184  78.0961456
  35.4633636  26.9244061  78.8681641  48.7171364  61.8027725  15.8164291
  48.8426399  62.5016022  15.1744633  49.4767113  61.2319260  15.7006330
  76.7047043  69.6217957  62.3989754  76.5388718  70.0755386  61.5726280
  76.3903198  68.7300797  62.2498665  34.7355766  67.1662445  88.7540436
  33.9140358  67.1380997  88.2636185  35.0674362  66.2691727  88.7170792
  29.9170189   0.9418257  57.3715477  30.3876572   0.9489782  58.2050247
  30.1197910   1.7889601  56.9747124  52.6766586  15.4789562  18.2931271
  52.6860695  15.7789211  19.2020626  53.0116768  14.5831890  18.3330479
  18.8992081  53.0602303  69.4319839  19.3937454  53.3088150  68.6510468
  18.6314812  52.1559525  69.2681732  68.9663467  54.3026352  36.5254898
  69.6984177  54.0633392  37.0938606  69.3747940  54.5199852  35.6875420
  76.9676285  43.2945518  36.4456482  76.3317490  44.0015640  36.3360214
  77.7652130  43.7334785  36.7413330  46.9767876  53.1596298  43.3994675
  47.0457497  53.0306473  44.3454247  47.5911293  53.8685226  43.2089806
  82.5931549  31.4156990  16.4499226  83.1802139  31.3341656  15.6982975
  82.7064667  30.5967255  16.9322872   8.7717533  62.1239090  14.8387365
   8.3663616  62.9222755  14.5003567   9.1779432  61.7183380  14.0727377
  49.3986359  51.7958603  58.7422791  48.8685150  52.2387009  58.0796356
  50.3020210  51.9325790  58.4569054  36.9077339  42.9827919  77.8703613
  36.8492012  42.2209244  78.4468689  36.8396606  42.6204948  76.9869919
  52.4486465  45.9402237  87.1621857  53.3517342  46.1841850  87.3650360
  51.9270439  46.3652458  87.8430099   2.8116529   0.9851233  53.5308647
   3.2512498   1.1286633  52.6927834   2.5207663   0.0738687  53.4957695
  46.1494522   6.6173644  31.1015949  45.5861206   6.1861110  30.4590130
  46.2438393   5.9761381  31.8059750  59.9438515  29.3630791  43.1612244
  59.3887100  28.5854511  43.2190132  59.3979111  30.0149803  42.7216759
  72.5017548  63.9174500   7.0292549  72.7935715  64.8279953   7.0736942
  73.2795029  63.4055672   7.2513323   2.1662061  34.4184799  51.5791054
   1.9973798  35.2877846  51.2157402   2.6302216  34.5876007  52.3990555
  35.6870804  50.7086792  29.4142494  35.2635384  50.4953728  30.2457199
  36.0863113  49.8861542  29.1308746  75.9213715   8.3535194  47.7711105
  76.6818161   7.9294591  47.3734512  76.1883698   8.5263233  48.6739311
  14.6140709  60.0913429  18.7427177  14.7825975  60.9514275  18.3579006
  13.6663780  60.0699234  18.8755779   8.5121851  32.4507141  37.2116814
   7.6953454  32.8910713  36.9769630   8.2868910  31.9191246  37.9751511
   5.7317448  62.7489357  30.9168777   6.2033205  63.5070610  30.5717716
   5.3759766  62.3148613  30.1414814  20.7121162  51.0317001  30.2951851
  20.0915203  51.1299591  31.0172901  20.8192711  50.0854378  30.1985493
  55.3672104  64.8738480  86.6557770  54.5295715  65.2605133  86.9108887
  55.9554138  65.6221390  86.5542450  79.8374634   6.1368599  30.0999279
  80.3030319   6.3010330  29.2798557  79.1961899   5.4610710  29.8801346
  65.5624771  58.2395210  83.1704407  65.7577591  57.6559944  83.9036484
  66.4199295  58.5360909  82.8654099  55.5248337  51.1371841   6.8028870
  55.5830040  51.8466072   7.4428611  54.5852547  50.9978600   6.6845031
  16.2650127   1.0962914  74.1247101  15.8937206   1.9299119  73.8358307
  16.7621326   1.3157580  74.9127045  50.9938087  49.0532265  78.6208038
  51.0359879  50.0091743  78.6456604  51.0729103  48.8340530  77.6923981
  60.5387077   0.6924664  11.6196089  61.2652855   0.0693212  11.6167707
  60.0422630   0.4779312  12.4093857  49.8881187   3.2900655  88.2712555
  49.0328407   3.3350933  88.6986923  49.7097092   2.8902988  87.4200211
  80.9254150  53.5034904   6.9834757  81.5429993  54.1959267   7.2187376
  80.6778793  53.7001381   6.0799894  68.7995224  52.7869911  21.9991856
  68.8827591  53.6441116  21.5812721  67.9291992  52.7982330  22.3974876
  34.8820534  29.2979107  76.3760147  35.0509453  30.0587234  75.8202591
  35.7278633  29.1039200  76.7800064  45.8765450  58.1524773  17.6678753
  45.5866089  58.7904549  17.0158386  45.7470932  57.3030853  17.2459660
   9.6569290  65.2911758  62.8252945   9.5694370  65.9213486  62.1101265
   8.9596052  65.5255585  63.4376984  14.2267418  41.1784248   0.1098794
  15.1675272  41.3444214   0.1698714  13.9549732  41.0113945   1.0123616
  35.9009743  66.4890442  56.7135506  35.8939438  66.7014923  57.6468506
  35.2743645  65.7706833  56.6267052  32.4065704  25.7212944  10.6988516
  32.3340378  24.7676582  10.7382135  32.1180458  25.9471474   9.8145571
  58.2332039  46.6982803  45.7621040  57.5445328  47.3617020  45.7192001
  59.0280876  47.1910286  45.9660339  70.2870331  42.7447815  75.7144852
  69.7290955  42.3069305  76.3573074  69.7387466  42.8204918  74.9335327
   6.1380243  21.4878464  46.6344490   5.2846799  21.6423779  46.2292900
   6.6846561  22.2098389  46.3243637  55.0493355  50.0360870  59.5183105
  54.5747032  50.8389206  59.7337532  54.3633804  49.3948059  59.3326721
  62.9572220  28.1356812  12.0605364  63.1602745  27.3270626  11.5902834
  63.7579384  28.3391418  12.5439491  26.3124504  30.2978706  68.8189468
  26.4801102  29.6486683  68.1358261  26.2049446  31.1223221  68.3446579
  67.6886597  33.5720177  12.1405239  67.6727142  33.2007942  13.0226641
  66.9202347  33.1980515  11.7093668  57.0702019   2.2548881  41.9672699
  56.7545052   1.3535408  41.9029312  57.3974838   2.3306315  42.8635864
  37.9703979  44.7785072   6.0792532  37.0504646  44.8901024   5.8394632
  38.0903130  45.3470688   6.8399057  54.6368561  28.3744640  53.2414665
  54.1386795  27.5988216  52.9837303  54.8766632  28.2128181  54.1539345
  71.7132111   8.5428019  14.2726831  72.5105591   8.6235933  14.7960768
  71.0123520   8.8297567  14.8580713  27.9408493   4.0834703  87.8567200
  27.3585606   4.7951756  87.5909271  27.6433086   3.3283799  87.3492355
  76.0505219  18.1665001  10.8091822  76.8312302  18.7112999  10.7096004
  75.5957718  18.2440434   9.9704790  70.8815536  52.9586220  10.8164082
  71.0018845  53.8682938  10.5439177  70.0395050  52.7048035  10.4385710
  17.9857426  48.2005272  50.8278961  18.2087421  48.0239792  49.9139290
  17.7236137  49.1210899  50.8369598  67.5080032  69.9212265  59.6440620
  67.1124496  70.2854767  58.8521690  68.1917801  69.3339539  59.3218880
  18.7299194  40.0311852  74.6264114  18.2536163  40.4869041  75.3204498
  18.0694561  39.4829292  74.2028122  48.0610542  17.0248375   4.7335796
  48.1101151  17.3139877   5.6447425  48.7775421  16.3966446   4.6427412
  69.1153259  19.3516273  86.7436371  69.9143295  19.8522511  86.5786819
  69.2831192  18.4958515  86.3490219  21.1339035  49.8914795  88.6213760
  20.6093025  50.1459389  87.8622513  21.3909702  48.9869537  88.4425430
  34.8948936  49.4815979  65.8884430  35.3916283  50.2892952  66.0192642
  34.7817612  49.1246529  66.7693710  65.9345322  64.6065826  77.3969879
  66.2985001  64.0487366  76.7095566  66.4398499  64.3838196  78.1788177
  15.7602015  64.8196793   7.0323977  16.2527637  65.5268250   7.4490070
  14.8880243  65.1872330   6.8894105  18.7377205  71.4540024  38.8439217
  19.4031544  72.0526962  38.5048218  18.1637878  71.2856903  38.0965919
  42.1557579  46.3268814  73.7177353  42.2793617  46.4239540  74.6619492
  41.3330460  45.8451614  73.6321487  55.9720917  63.1677971  49.9677162
  56.3824081  63.4044952  50.7994881  56.1838684  62.2416229  49.8511734
  64.1679459  31.6273994  30.9305153  64.6655502  30.8106232  30.8917847
  63.8618317  31.6786594  31.8359985  61.2372055  12.7149010  52.0861320
  60.9745178  11.8038006  51.9552765  61.5487022  13.0000925  51.2271385
  43.6090393  49.6773949  21.1596680  43.6141968  49.9934425  22.0631695
  42.7628784  49.2403336  21.0636387   7.5866637  16.7504654  88.7975159
   8.2231455  17.2734337  88.3100433   6.9058194  17.3746986  89.0485458
  18.7947731  52.7474403  45.5786400  18.8476334  52.9539223  44.6454735
  19.0808239  53.5484314  46.0177574  28.1614685  68.0569305   5.8346796
  27.4490433  67.7383881   5.2804136  28.1913052  68.9991226   5.6684690
  45.9964409  64.2741089  69.6092758  45.2796516  64.8888855  69.4527740
  46.6536064  64.4998093  68.9509277  64.2884903  24.9919968  54.4551468
  65.1767654  24.8272705  54.1388206  64.0391083  25.8214588  54.0476761
  22.1241322   2.3465481  54.0004387  21.2732410   2.1090045  54.3689384
  22.3313046   1.6331563  53.3967972  49.7374916  64.2462845  84.2781982
  50.5834312  63.9571152  84.6202545  49.1314468  64.1321335  85.0102539
  65.8292847  54.8311882  79.4930420  65.3349380  54.0250244  79.3448715
  65.2756042  55.3474236  80.0788498  70.6723404  54.8641777  61.2206306
  70.8365707  55.3662224  62.0188866  70.2295837  54.0712967  61.5231819
  17.1975307  56.2779961  47.1723137  16.6700459  56.9371834  47.6233788
  17.4019661  55.6314850  47.8479309  61.6159248  20.7929134  56.9407158
  61.7616425  20.9839020  56.0141487  62.4944649  20.7578526  57.3190842
  40.1177864  57.0842552  28.7705994  39.9408951  56.1526909  28.6397133
  39.2526474  57.4795914  28.8776970  51.9870796  22.4243126  53.1686630
  51.8379593  21.6128044  53.6538925  51.1541100  22.5976467  52.7300835
  77.7366714  16.1280499  18.2136192  77.0458527  15.5074711  17.9814892
  78.5430374  15.6136122  18.1768169  64.9362335   7.2744260  15.9087276
  64.4389954   8.0008411  16.2846394  64.5989456   7.1894221  15.0169640
  11.8916903  58.8108368  31.1920261  11.0130062  59.1881561  31.1498508
  11.7707396  57.9711113  31.6352615  -0.0534513  10.5031643   0.3715642
  -0.1478382  11.2365227   0.9794365   0.8265297  10.6044950   0.0088009
  28.2514820  50.5925293  37.6451225  27.5789089  49.9304123  37.4855003
  28.6032314  50.7907066  36.7772369  57.5179672  21.5247993   9.5708237
  57.9204063  21.5943050   8.7051182  56.6461411  21.9043407   9.4608364
  70.0244522  69.1719971  54.0121040  69.3407898  68.6282578  54.4034882
  70.0666656  68.8841629  53.1001816  46.7671432   6.5921602  27.8273640
  47.6006279   6.4924479  27.3673687  46.4910545   5.6960611  28.0197525
  35.2122955   1.1684116  19.0319023  34.8267822   1.5007963  18.2212658
  34.4642372   0.8638021  19.5455704  65.0430374  11.6510286  49.4065666
  64.8560028  12.5060120  49.7941933  64.1813049  11.2615976  49.2582855
  15.5371208  70.8031769   6.5776291  15.9022923  69.9862061   6.2378712
  14.6209984  70.7895355   6.3005633  53.6563835  21.3590984  62.1670074
  53.3132286  20.5151329  62.4606018  54.6065559  21.2702255  62.2412262
  47.9837036  52.5081673  86.3975067  47.7265244  51.9648781  85.6525726
  48.9271698  52.3696022  86.4805984  22.1653843  57.2867737  46.3080406
  22.8851070  57.9105034  46.4039001  21.5942440  57.6796837  45.6480026
  56.5661278   2.7968488  56.8699532  56.2376442   3.4279947  56.2296524
  56.0803871   1.9930780  56.6849174  53.7758751  13.0588360  26.4973221
  53.6938057  12.7936516  27.4133873  53.3120079  13.8946428  26.4474487
  15.4636965   7.1069822  81.8632355  15.2538118   6.2400565  82.2105408
  14.6195774   7.5554357  81.8124084  79.0126724  32.0905418  36.8920021
  78.4485931  32.1533432  37.6627808  78.4055710  31.9970036  36.1578903
  28.0263901  65.5164719  73.2363052  28.3366528  65.9940567  74.0056458
  27.3928623  64.8885651  73.5835876  55.5902023  27.4084530  80.0514984
  54.9616051  27.5878773  79.3522797  55.6621742  26.4541378  80.0697937
  83.2700653   1.7512726  67.7363510  83.8318329   2.2375360  68.3398438
  83.8598480   1.1318911  67.3065186   3.3478549  28.9211941  83.1275635
   3.2492018  29.6711235  82.5409622   2.5687525  28.3884068  82.9682922
  79.3363647  33.7111702  87.9260559  79.0583878  34.3689194  87.2886200
  80.2738876  33.6035156  87.7658005  52.5731049   9.0513144  62.1928711
  51.6829033   9.2172718  61.8826599  52.5196609   9.1583843  63.1425629
  75.9441528  68.2870712  24.0270824  76.4028702  69.0957031  24.2549782
  75.8200150  68.3410339  23.0795021  33.1252174  54.9999390  80.8104858
  33.0578575  54.4460182  80.0327530  32.4230118  54.6935501  81.3843002
  24.9627075  61.2992363  29.3290920  24.9446697  61.9363861  28.6149864
  25.7381783  60.7658882  29.1546803   2.6634545  55.3212471  31.2708092
   2.5764711  54.8662834  30.4331512   1.9220514  55.9262848  31.2928734
  60.4753304  17.1598873  56.8160362  59.6983948  17.1186924  57.3736229
  60.7317238  16.2456951  56.6945877  57.2375183  61.1436005  17.2087746
  58.0461693  60.7507515  16.8801651  56.7027397  60.3981018  17.4816742
   3.1778078  37.6408882  86.8510132   2.8470676  38.0772667  86.0658951
   2.7494969  38.0956841  87.5762329  80.3316116  58.8272362  89.2972107
  79.5612640  59.0994263  88.7985077  81.0381088  59.3836136  88.9692688
  41.1017876   3.0270667  25.8782539  41.6420670   3.5864031  26.4363499
  41.3587418   2.1352530  26.1125069  85.9887924  67.2866135  63.6216469
  85.5247803  68.1057968  63.4488564  85.5529099  66.6422195  63.0639763
  86.1010513  33.2097931  58.2694283  86.2874374  33.5199127  59.1556129
  86.3926926  32.2981033  58.2684288  74.1320419  45.1882744   4.9480696
  73.2823257  44.7779045   4.7874169  74.7630615  44.4735298   4.8632932
  78.1891556  58.8187675  37.6410942  77.9072495  58.4243889  36.8157272
  79.0470200  58.4299202  37.8116570  35.1588860  49.2389183  31.8221512
  35.7155838  48.4828148  32.0082359  34.8702354  49.5415115  32.6831665
  63.8858376   2.6245639  63.6093979  64.4168320   2.9368863  62.8767776
  63.2705994   2.0074387  63.2133293  82.4591675  47.1546783  56.0084648
  82.1222534  48.0423012  55.8865967  81.6794205  46.6218338  56.1643829
  63.3208504  53.5475006  30.8361969  63.6669273  54.4119301  30.6143227
  63.8056145  52.9437561  30.2734108   0.5940377  45.5310478   8.5654001
   0.9697037  45.6899529   9.4313431   1.2465261  44.9937477   8.1161795
  30.2137032  49.9514999  57.1235199  30.5993462  50.7776031  57.4151764
  30.3817139  49.3418579  57.8420868  58.3373451  35.7864838  73.0395432
  57.5749054  36.3580246  72.9486465  59.0446548  36.3719406  73.3100662
  72.9283829  33.0921097  12.1591635  73.6387329  32.5157471  12.4410152
  72.2194366  32.9190292  12.7785749   9.3844204  17.0830421  67.3460464
   9.3291645  17.1147060  66.3909683  10.3220043  17.1286640  67.5333633
  67.4988785  16.4874668  58.5005951  67.6602249  17.4198322  58.3560448
  68.3689957  16.1117954  58.6347427  61.1173630  14.5936642  45.7891922
  61.1784172  14.4349728  44.8472176  60.8306885  13.7568512  46.1549683
  41.9615097   2.0134652  35.0316200  41.6955643   2.4635932  35.8334236
  42.4194069   1.2303959  35.3371735   4.0837808   9.2568665  43.6271667
   3.5944099   9.8114672  44.2347565   3.4188702   8.6990662  43.2234535
  49.6499252  33.0439224  60.9185638  49.5529823  32.0934181  60.8604698
  48.9303932  33.3907471  60.3911018  34.9603310  44.9858932  87.9990692
  35.7321129  44.4246445  88.0738068  34.8063354  45.0571709  87.0570297
  13.3544159  29.7489929  88.3381577  12.5622663  30.2030678  88.0508423
  13.7041092  30.2981396  89.0398560  83.7807007  22.0862904   4.7189827
  83.7814941  22.0176964   5.6737213  83.4032745  21.2591076   4.4197364
   7.0010090  33.6266899  63.2991295   7.8566909  33.2421875  63.4893875
   6.6866732  33.9425888  64.1462631  35.0688972  49.9860840  44.4416618
  35.6835518  50.7161980  44.3684120  34.2775307  50.3755989  44.8134842
   9.5892467  61.5194817  47.8163147   8.9928341  61.0062675  48.3614159
   9.8883600  62.2262230  48.3883934  22.5900726  13.5827837  75.8962402
  22.5336037  13.2051086  75.0185089  23.4113827  13.2424784  76.2510223
   5.3955512  37.2251434  63.0708084   6.2831821  37.5337906  63.2526855
   5.5152516  36.4982758  62.4596062  82.3954315  12.0737085  12.7798042
  81.5000305  12.3944950  12.8874502  82.2984695  11.1292477  12.6580477
  52.3791771  42.4242058   2.5157161  51.8511887  41.8216095   3.0394902
  53.1002426  41.8872528   2.1871126  55.5571671  15.7937393  70.2787094
  56.0327339  15.6296492  71.0930405  54.7015915  16.1163235  70.5618286
  76.5771561  47.0372047  79.8711853  77.0614700  46.7498894  80.6452103
  76.0798645  47.7989731  80.1689148  70.7986984  25.3585320  38.7239571
  70.8273392  24.6559200  39.3733788  71.7175446  25.5382004  38.5247955
  71.0566635  53.3486862  19.9360714  70.4588470  52.6145325  19.7951565
  70.4928207  54.1221237  19.9255352   9.2141171  37.3945312  10.7273455
   8.7586155  37.6483612  11.5300417   8.9063988  36.5060463  10.5480719
  18.8469563  70.0702591  41.1325874  19.6529007  69.5711823  41.2652817
  18.9091568  70.3908386  40.2328186  10.6945190  18.9824715  14.9591064
  10.7227554  18.6674061  15.8625269   9.8494434  19.4260960  14.8864632
  26.3762779  33.6177864  71.5829163  25.7655640  33.2492599  70.9445953
  27.2345791  33.5385246  71.1666565  47.2092781   8.6996908  23.3994179
  46.6735764   8.9400129  24.1553955  48.0962257   8.6192293  23.7502460
  28.3863201  42.5999680  24.1003113  28.8281746  41.7536850  24.0310364
  29.0941887  43.2290611  24.2395897  20.4816837  61.4145546  59.1847115
  20.8712234  60.5626526  59.3815651  20.9442730  61.7143669  58.4021797
  64.5048294  45.6943092  56.0177460  65.2230606  46.2473984  55.7103882
  64.0655289  46.2212296  56.6852760  43.0768051  32.3399734  80.2098236
  43.5409851  32.9071503  80.8255157  42.5459366  31.7682362  80.7643738
  17.3167629  57.3097992  54.7682266  18.2720585  57.3089561  54.7078743
  17.0199127  57.4321976  53.8664894   7.2257366  14.1953745  10.5731182
   7.7447824  13.9708710   9.8008347   7.8312707  14.0915518  11.3071356
  34.0539360  66.3639832  62.0804329  33.3312263  65.8268661  61.7557411
  33.7136993  66.7651978  62.8801193  46.2177391  40.4091377  13.7428904
  46.6605148  39.7310181  14.2531204  46.8588219  41.1169739  13.6779823
   0.4463598  37.5279427  37.9588089   1.0543509  36.7897873  37.9174728
  -0.4072527  37.1469727  37.7527962  28.4118576  22.7177429  83.1234665
  28.1238728  23.0500164  82.2732315  29.3279648  22.4755211  82.9881516
   4.2152061  58.9631424  26.1120663   4.1704898  58.0731773  26.4616375
   4.4272881  58.8463364  25.1859932  35.2475815  26.5999947  67.0297394
  36.0865479  26.8365116  66.6342316  34.8330269  26.0252171  66.3863068
  47.0698891  62.1776962  21.0100842  46.6030006  62.0792694  21.8398762
  46.8861694  61.3676682  20.5343399  77.7116013  19.2465076   0.4377950
  77.6299591  18.2970943   0.3473378  77.8420639  19.3874207   1.3755339
  65.6666718  70.5869446  43.4281960  66.5265961  70.3231735  43.7555923
  65.8334045  71.3927307  42.9391785  31.9339523  15.5005932  15.3516226
  31.2099571  15.9125795  14.8801041  32.7207756  15.8280983  14.9158649
  31.0971451  48.8124809  10.4959059  31.5475845  47.9743309  10.6000242
  31.1859665  49.0181427   9.5652895  67.7988968  26.5810127  28.1600037
  68.7252960  26.4193649  27.9814396  67.6666336  27.4997158  27.9260712
  44.2680054  45.1151924  46.8507576  44.5662231  45.2908211  47.7431984
  43.4459839  44.6376801  46.9625244  33.9141922  23.9435921  70.7466888
  34.7592278  23.9363651  70.2971420  33.9530220  23.1948032  71.3416977
  65.3855972  55.1958237  40.9607582  66.1578979  54.8428192  40.5189743
  65.5158615  56.1440544  40.9497490  39.4235497  50.6119614  61.9293365
  40.3451958  50.8220901  61.7788467  39.4424934  49.7961197  62.4296150
  65.3613052  29.4069328  29.6728916  65.9709320  29.5252438  28.9444752
  65.8068466  28.7976761  30.2615585  26.9688816  17.6831455  75.8357391
  27.9068470  17.8185978  75.7011795  26.8819656  17.5265160  76.7760239
   3.8044679  24.8660374  72.1410980   4.4244428  24.2411480  72.5170975
   3.6475532  25.4989014  72.8418808  73.9090347  67.1270828   3.7575662
  73.0144348  67.1398315   3.4173286  74.3111877  66.3625031   3.3453410
  36.6217079   0.9525121  74.8538361  36.0377007   1.7100967  74.8187027
  36.1727257   0.2800288  74.3415680  14.9540510   5.2798409  29.0826740
  15.4030724   5.9429450  29.6069889  14.8502989   4.5355635  29.6755638
  53.9158211  36.7777481  80.5337677  53.6891403  37.4123192  81.2135925
  53.9473534  35.9375687  80.9912949  71.9026642  46.9394226  66.8256531
  71.3037109  46.1957703  66.7588348  72.7754364  46.5476761  66.7932739
  77.1602097  53.0472794   4.1965032  76.8459930  52.8846283   5.0859098
  77.2510757  52.1756706   3.8114400  74.6788483   5.4499564  68.1637039
  75.0991211   5.5832949  69.0133133  75.1233521   6.0626531  67.5778275
  13.2969160  33.4195595  58.5736961  14.0306120  33.4672546  57.9607964
  13.4436045  32.6083870  59.0602264   6.6828909  49.4109917  19.9220657
   7.3416667  49.3963509  20.6163521   6.9993558  48.7773285  19.2782116
  45.0859375  28.6977329   8.7344131  45.2947197  28.0620384   8.0499191
  45.9368896  29.0297699   9.0205355  54.3432922  49.8022385  12.3750992
  54.4287071  50.1519775  13.2620134  54.3172455  48.8527489  12.4935303
  32.8663940  56.3870926  75.5762863  32.1771545  55.7425575  75.7367859
  33.6756859  55.8759689  75.5706558   6.1743302  24.7816525  53.5838242
   6.9903345  25.1067581  53.2034607   5.6060200  25.5507946  53.6247559
  49.6557617  55.7048874  14.2337494  48.7460060  55.5502892  13.9794321
  50.1353188  55.7280197  13.4056664  34.0806694  19.9275303  72.5086823
  34.3925247  19.3364983  73.1940002  33.5602226  20.5816193  72.9750900
  37.3624077  68.9363937  38.4639397  38.2506790  69.2928848  38.4527092
  36.8117523  69.6556244  38.1545410   5.4651933   4.4662738  58.2579727
   5.8802109   5.1963477  57.7986412   4.6143942   4.3670931  57.8307304
  79.7207947  27.1423759  61.6593437  80.4740448  27.0446281  62.2418289
  79.1818237  27.8150291  62.0756149   6.3268189  68.5592575  64.5691986
   6.8306818  68.2527237  63.8152771   6.8371110  69.2906113  64.9169769
  12.4209566   9.0530491  22.8873253  13.2012959   8.8651199  22.3658047
  12.7340498   9.6223412  23.5902557  62.2522278  32.1745987  55.6846161
  62.4114075  33.1174393  55.6404533  61.5566025  32.0189590  55.0457802
  56.8676453  43.0221481  86.2890167  56.6521225  42.1007729  86.4334259
  57.6785164  43.0016441  85.7807922  82.9431000  28.4350128  57.3819275
  82.1657562  28.3472252  57.9335289  82.9155655  27.6710243  56.8059120
  40.0513916  63.7514534  50.7307739  39.3714523  64.4104309  50.5905495
  40.0204964  63.5716209  51.6704216  52.3990211  67.7431183  15.3078499
  51.6040916  67.7724991  15.8402538  53.0524902  67.3344498  15.8754778
   2.2719452  36.2497787   0.9619501   3.2031136  36.0432014   0.8814327
   1.8463635  35.3992004   1.0697885  69.0532837  17.1726704  64.2394791
  68.3835678  16.5063763  64.3936386  68.7451401  17.6479549  63.4678688
  20.4525909  59.5888062  12.7782602  20.0599480  58.8940964  13.3068848
  19.8004856  59.7729225  12.1021748  24.5371838  46.4789429  41.6348457
  24.8639851  47.1189117  41.0024872  24.9449787  46.7310791  42.4633141
   1.3172123  59.5605736  22.1664085   0.9481086  58.7664261  21.7799835
   1.0538316  59.5242386  23.0859432  32.9313889  48.1034012  30.2125683
  32.3481293  48.7800560  30.5563393  33.6244278  48.0286865  30.8685760
  17.1151943  18.0261364   6.0722451  16.6808243  18.5669613   6.7318387
  16.6135502  17.2109718   6.0626965  39.2374382  21.5581360  16.7861557
  39.6636467  21.0571842  16.0907269  39.1878929  22.4502659  16.4428177
  45.2966537  49.2550812  30.2868252  44.8814392  49.5303688  29.4694843
  46.0724335  49.8109360  30.3604393  68.2835236  22.0942364  77.7517548
  68.2648239  21.7377834  76.8635941  67.7657471  22.8975372  77.6983795
  56.5768242   0.6535714  28.7481461  57.2537308   0.0499830  28.4420223
  57.0603905   1.3518935  29.1894398  59.8010597   6.3679838  58.8168259
  60.5059166   5.7353349  58.9552574  59.0154572   5.8316879  58.7098465
  52.7115517  50.5170822  50.8579750  52.5857506  49.7943039  50.2431564
  53.6452370  50.4935188  51.0675201  69.5200424  24.2211475  15.6646528
  68.6878967  24.6750832  15.5316000  69.6122360  24.1638603  16.6156788
  74.3931656  35.1708641  72.9915695  74.3754730  35.6806488  72.1816025
  73.5538101  35.3590965  73.4114227  31.1441612  54.3480797  76.1530533
  30.7433472  54.4213448  75.2869034  30.4371967  54.0373001  76.7186050
  20.8065796  44.4918480  61.8249512  20.9302597  43.8370552  61.1377945
  21.5988407  45.0279045  61.7903748  11.6384087  55.1390419  20.0100574
  11.5899401  54.3512268  20.5515614  12.1066904  54.8603401  19.2231216
  11.1740351  54.2528000  73.7167358  10.4296103  54.4824257  73.1605530
  11.4956999  55.0924263  74.0450516  37.5193634  21.7881260  70.6248627
  37.7886314  21.9126568  71.5349274  36.8535080  21.1015816  70.6639099
  44.0920410  64.0581665  58.0359955  44.8132324  63.7332382  58.5750160
  44.0031471  63.4089470  57.3382530  48.8246727  54.4404831  60.0025826
  49.1125031  53.5280457  60.0317001  49.5728073  54.9382668  60.3323364
  74.0598602  11.3494921  30.6084576  73.7805328  12.1901169  30.2457466
  74.8997726  11.1729813  30.1846333  28.8192825  67.3844757  47.9923096
  29.2097130  67.5084457  47.1271896  29.1102715  68.1436920  48.4974289
  17.2779617  14.0852261  81.7554092  18.2298222  14.1843529  81.7362442
  17.0586281  14.0586319  82.6867599  79.8639984  70.9989853  33.8289986
  80.1688004  71.3548508  34.6636772  80.2745895  71.5554123  33.1671600
  84.9048538  49.2979469  69.3567352  85.0793839  48.4339905  69.7300339
  83.9628372  49.2996292  69.1868973  -0.1590361   8.1779251  27.2729206
  -0.4618129   8.7732849  26.5872803   0.7558936   8.4210711  27.4143963
  65.3279648  25.8037758  60.6698494  65.7696075  26.2738819  59.9626122
  65.7399826  26.1316109  61.4692192  27.5701199  70.2884445  84.1037827
  27.9771404  69.5479279  84.5534363  27.7658463  70.1435165  83.1780777
  62.9913063  29.6886292  36.7692566  62.2490234  30.2737370  36.9205627
  63.6963959  30.0529137  37.3043976   8.8347750  67.5821533  29.3385124
   8.3995552  68.2411499  29.8793774   8.9774895  68.0180511  28.4983616
  38.6161232  20.2887554  66.7468643  38.7439346  19.7676411  65.9541931
  37.8039589  19.9527855  67.1260071   4.3602724  57.1142502  72.8539200
   3.4898629  56.9875031  72.4763565   4.2125840  57.6802330  73.6116028
  77.6014557  49.2831612  62.9246330  76.6531219  49.3853683  62.8443947
  77.8898392  49.0278473  62.0483437  25.6636524  21.0944118  10.4475117
  26.0668278  21.0556145  11.3147926  25.5640812  20.1783237  10.1884747
  52.6416512  48.6816177  59.3790703  52.1104774  48.7742882  58.5881882
  52.1586990  49.1643295  60.0498734   4.2219377   0.5067621  81.9641495
   4.8329062   1.2083898  81.7390594   3.6077876   0.9113549  82.5768127
  42.4845161  38.0478897  13.1017160  42.3616066  37.1816254  13.4899292
  42.9705048  37.8816185  12.2940016   7.3357744  20.1563129  33.9637375
   8.0366154  19.7859077  34.5002594   6.5956860  19.5633736  34.0938263
  75.2208862   8.1660872  39.6178970  75.9371414   8.2574720  38.9895172
  75.6557388   7.9994092  40.4541702  68.3022766  62.8225975  30.9945164
  68.7203522  63.6119156  30.6503963  67.5203247  63.1424866  31.4444656
  74.0902328   5.7862673  54.0625191  73.6081924   6.6132288  54.0642967
  74.1396866   5.5358810  54.9850655  46.1307602  71.7388382   5.5309701
  45.6169701  71.1182632   6.0478230  46.7400894  71.1913605   5.0357733
  64.8209610  56.1100464  54.9439697  64.6756668  56.0547218  53.9994774
  65.2698059  56.9462395  55.0686760  40.6588440  61.9175797  33.2390404
  40.5131912  61.3753319  34.0142746  40.1961250  62.7340469  33.4274635
  68.1611099  29.2351856  27.9341373  68.9620514  29.1828518  28.4556541
  68.4061203  29.7580376  27.1707077  28.0500431  63.1580124  27.7833290
  27.7605667  63.3634682  26.8943844  27.8918400  63.9617538  28.2785130
  33.7610321  53.4231720   4.8462696  33.1461601  53.6217651   5.5524726
  33.2070618  53.2866478   4.0776939  61.8513145  22.2061520  60.5104294
  61.5616722  22.6081657  59.6914520  62.7010078  22.6095867  60.6878929
  70.3970261  29.3342018  62.1953201  70.5341949  29.7574062  61.3477859
  70.4275742  30.0511646  62.8287735  40.3481178  25.1979141  75.9773865
  39.8075867  25.3470230  76.7531586  40.1644478  25.9466095  75.4099808
   0.7538552  49.3116455  76.0665436   0.8832402  48.8594933  75.2328491
  -0.0582730  48.9438438  76.4149704  76.7969360  12.5428505  59.0492325
  76.2645493  11.8712330  58.6229324  76.9139023  12.2235498  59.9439926
  25.9514313   6.4132786  13.1314440  26.5415726   6.8632569  12.5268917
  26.2849026   5.5168290  13.1689491   2.8902636  24.9189739  29.2733402
   2.4419575  25.7286243  29.0289669   3.8174231  25.1040630  29.1238461
  26.3609028  48.1455612  57.3720818  25.5177708  48.4725533  57.0583344
  26.7717800  47.7609558  56.5978165  30.0965710  24.6320763  66.8121567
  30.8288479  24.6747513  67.4271240  30.5016918  24.4176960  65.9718323
  54.9194832  40.8628845  40.7829475  54.2342377  41.1648941  40.1867447
  54.5312424  40.1131287  41.2339096  64.3662720  48.9445534  21.2410030
  63.7279167  49.6333275  21.4262810  65.1600800  49.4155731  20.9875507
  63.3607178  20.6568565  75.8153687  64.0125732  21.1109028  75.2813644
  63.7761726  19.8256874  76.0451202  21.5788956  24.3167229  11.0031433
  21.1778870  25.1717625  10.8471680  22.5207176  24.4835148  10.9659204
  78.6843567  67.1512299  27.0972252  78.9704590  68.0473404  26.9201527
  78.5606461  66.7636795  26.2307777  46.4275856  49.2126465  82.2640533
  46.0425911  49.9839401  81.8479843  47.2991104  49.1404800  81.8748550
   8.3819370  30.7520733  88.5151749   8.8141584  31.4418812  88.0116043
   7.7445660  30.3759308  87.9081268  49.6498642  49.7006531  34.3105087
  50.2834053  49.1137161  34.7232552  49.8729515  50.5685959  34.6468697
   1.9968208  18.9032764  86.4951096   1.5102113  18.0840931  86.4035645
   1.3251660  19.5626526  86.6692810  20.5969810  43.1131783   1.8206079
  21.0162563  42.4495277   2.3683355  19.6621761  43.0191994   2.0037463
  13.8888865  39.5610847  42.0670128  13.2570772  38.9563751  42.4560852
  14.7410851  39.1607666  42.2394524  22.0942459  71.3530884  80.0811768
  22.3276539  71.1640701  80.9900360  22.7371998  70.8688965  79.5631027
  26.9403210  21.5809803  86.1631088  27.4749584  22.3670712  86.0514908
  27.5752506  20.8724670  86.2684784  70.3883362  33.6184502  32.4466896
  70.1799469  34.3276024  33.0548897  70.1224136  33.9519424  31.5897770
  47.1520042   9.3692732  28.2885036  48.0869293   9.2527800  28.1194572
  46.9385300   8.6922550  28.9306145  40.5255966  45.2844009  85.7206726
  40.4149666  46.2269249  85.5955887  41.1574898  45.2102394  86.4358215
  65.4232941  36.1296082  32.0700684  64.8268433  35.6276054  32.6254768
  64.8850555  36.8403664  31.7217083  33.1966171  64.6667404  49.4694939
  32.3375206  64.6626358  49.0473900  33.0030975  64.6460495  50.4066963
  65.8483124  28.1250992  40.7495842  65.1226120  27.5746460  40.4553261
  65.8543243  28.8609257  40.1374092  83.7854233  50.8264503  38.4018326
  84.0960236  49.9480247  38.6212196  83.7450638  50.8343315  37.4455185
  69.0549927  59.6225548  39.4177818  69.9555283  59.6364441  39.7419319
  68.5291061  59.9240074  40.1585960   3.4691601  66.0461655  31.6201363
   2.9232113  66.3349609  30.8888569   4.3309107  65.8966141  31.2312260
  41.1936417  60.4727440  57.0381088  40.3793945  59.9722404  57.0903664
  40.9544716  61.2706604  56.5665550  32.2619667   9.5825319   9.8974657
  32.8435593   9.0567293   9.3483658  31.7204609   8.9403448  10.3563757
  26.9069958  43.9803276  75.6289749  26.2625542  43.3743248  75.2633362
  27.1128559  43.6194344  76.4913025  70.0357285  41.2910385  62.3008537
  69.4794312  42.0629463  62.1963196  69.7264175  40.6805000  61.6316757
  74.8265762  30.2357140  42.0299416  74.4065247  29.3801079  41.9420471
  75.7040939  30.1099491  41.6688614  71.9974365  58.5539474  85.8738022
  71.4957352  58.6621323  86.6817856  72.3128281  57.6508026  85.9068222
  69.9744339  36.4455719   1.8873161  69.3744965  37.1909485   1.8604195
  69.6339798  35.8402023   1.2286423  56.4493370  39.7035980  75.8704681
  56.8108749  38.8197556  75.9363785  57.1200409  40.2662125  76.2575760
  23.8875160  62.1946716  80.7035599  23.3066807  61.4727554  80.4633560
  23.3120022  62.9577065  80.7563858  58.5645561  35.3896599  18.4224339
  57.9174538  36.0878677  18.5224304  59.0023232  35.5856628  17.5940781
  35.6195869   1.3920600  41.5450859  35.1922455   0.7062784  42.0582314
  35.4482956   2.1978426  42.0325356  50.7062416  37.8407059  80.0397339
  51.2047234  38.2682915  80.7360916  51.2932281  37.1616173  79.7072983
  71.2808075  37.8559456  20.2561207  71.3794174  38.0372734  21.1908016
  71.6154709  38.6413040  19.8231716  62.7960777  24.2104053  25.9731617
  63.3035927  25.0177155  25.8900261  62.5063210  24.2025223  26.8854160
  54.9315147  43.0118713  34.2669754  55.5891609  42.9057007  34.9543381
  54.8438530  43.9594383  34.1636772  72.9145432  15.9857121  12.1542053
  73.5071335  16.6780605  12.4469862  72.9159012  16.0570679  11.1996698
  85.9920120  52.1428261  18.7300091  86.4729843  51.3284950  18.8775406
  85.1414566  51.8610001  18.3933201  66.1551895  49.8058319  51.8691597
  66.6342621  49.2135773  51.2895470  65.5810242  49.2320442  52.3764381
   1.4671508   2.3288686  45.9606819   1.0657636   1.4611126  46.0067215
   2.2207286   2.2137809  45.3817978  55.7580795  60.2682800  46.3067398
  54.8934059  60.6680222  46.4004135  56.3107910  60.7452507  46.9258041
  86.9863815   6.2343807  50.2313309  86.5490646   6.7472806  49.5516777
  86.4021301   6.2911358  50.9874115  30.9615173  43.9183540   7.8931932
  30.3854389  44.6746941   8.0041742  31.5816936  44.1870613   7.2153950
  59.7883034  18.2877846  70.4227600  60.5848656  18.7803288  70.2249756
  59.0765533  18.9041615  70.2503510  54.2674675  63.5408974  72.2024765
  53.9924812  64.0066147  72.9922409  53.4742088  63.4834251  71.6698761
  54.9397354   2.7734516  61.7026825  55.0733452   2.4653685  62.5990448
  54.4789658   2.0553601  61.2687836  79.9232178  42.5234413  19.7964172
  79.5732269  41.6659164  19.5547771  80.8707123  42.4325905  19.6952343
  74.3518600  33.9428177  49.2170601  73.7111816  34.2424049  48.5720711
  74.5239410  34.7127113  49.7591743  31.5275059   6.2578440  80.6219788
  31.6174488   7.2025270  80.4966202  30.5847511   6.0987740  80.5756760
  43.0042343  55.5352211   3.6978226  42.0473518  55.5284653   3.6740205
  43.2229118  55.3106422   4.6022425  78.1407318  26.8624249  39.6036339
  78.4316483  27.7712288  39.6789513  78.5749435  26.4111671  40.3275528
  76.5675430  45.7565193  11.7533474  76.2786331  45.4959145  12.6279020
  76.6404037  46.7098351  11.7993498  61.3014641  18.0818386  30.1883049
  62.2506714  18.1807747  30.2621269  61.1165771  17.2351570  30.5947247
  84.5262680  31.7803802  28.3370113  84.4345627  31.0603523  27.7130070
  85.4703064  31.8601933  28.4735851  23.1407146  51.5003281   8.4513760
  22.5760040  50.7306061   8.5210762  23.8146858  51.3640137   9.1172695
  76.4308853  32.3700027  39.7265015  75.9001846  31.8316708  39.1393166
  76.8051605  31.7472248  40.3496361   3.1573124  28.7872295  86.2187729
   3.5657592  28.0718098  85.7313461   3.8648577  29.4166546  86.3581848
  78.4928207  12.1902990  81.9360504  77.8871918  11.9703341  82.6439056
  78.2691345  11.5819139  81.2317352  55.5033798  51.1121597  20.6923676
  54.8210793  51.7809067  20.7513027  55.5842972  50.9344749  19.7552910
  37.0466423  60.7379074  78.8800430  36.5864525  61.2543983  78.2184601
  36.6222115  60.9728317  79.7052078  70.5165558  45.4816589   7.5353069
  70.5481949  44.6254158   7.1086016  70.7660980  46.1005974   6.8491030
   7.0247607  25.4220161  12.0270147   6.1010695  25.1852016  11.9436808
   7.4901991  24.5862408  11.9941816  66.7566757   8.5169458  20.2061386
  67.1667480   9.3731117  20.3288078  66.6323547   8.1815100  21.0939789
  54.3055687  47.2555237  25.7734070  54.4557915  46.6234589  26.4763680
  54.4622459  46.7608871  24.9690342  54.0189438  43.3323975  88.0851669
  53.2314873  43.8610916  88.2141037  54.5699081  43.8603210  87.5072632
   1.5509849  46.2768784  60.2166176   2.4278231  46.0539131  60.5291443
   1.4381338  45.7512398  59.4246559  37.6093674  10.3770638  85.6227112
  36.7225113  10.3840237  85.9828110  38.1222992   9.8787165  86.2589340
  55.4972878  20.7130356   5.8225188  55.6932983  19.7985001   5.6189623
  54.7179298  20.6733036   6.3768272  81.9856033  59.7138023  12.8472462
  82.9345551  59.8339691  12.8829269  81.8691406  58.7849579  12.6474638
  45.3190804  63.7723808  64.1107101  46.1052208  63.7581444  64.6566162
  44.7091217  64.3383255  64.5838776  28.1192551  58.3888626  85.3302460
  28.7924557  58.6733551  85.9483871  27.7754517  59.2017059  84.9596863
   9.8910980  13.0102749  27.7703629   9.7735262  12.8458986  28.7059841
  10.8333015  13.1438465  27.6671925   5.5645671  18.3256245   0.3368652
   5.1495881  19.1826515   0.2392500   4.9193516  17.7067509  -0.0050785
  81.7492905  18.8373451  10.1796675  82.1373978  17.9624996  10.1639004
  82.1315918  19.2550945  10.9513941  39.5979195  19.7996674   6.2867022
  38.6857185  20.0043659   6.4921741  39.5919838  19.5908756   5.3525701
  55.5010986  16.5029221  33.9275208  55.2552147  16.7337742  33.0317078
  55.9374313  17.2850895  34.2652435   6.3431396   1.0909379  52.7669830
   6.6704292   0.6455587  53.5484886   6.0733366   0.3823193  52.1827774
  42.8114433   1.0593870  59.5676956  43.7159233   1.1259030  59.8738403
  42.3375893   1.7178688  60.0757256  58.1896515  48.5491257  85.7924805
  58.7886887  48.8464241  86.4773102  57.9986610  49.3365936  85.2829208
  45.2199593  57.5329285  72.6222382  45.1638031  56.7570839  72.0644379
  46.1217155  57.5323372  72.9432831  67.1560287  43.8496246  75.2928162
  67.4058609  44.7678986  75.3957062  67.3596649  43.4498177  76.1383438
  83.4869385  60.2187996  38.7296829  83.9665375  60.2442665  39.5576744
  83.9359131  60.8551445  38.1731606  72.6215286  43.2496681  80.8264465
  71.8695526  43.1223373  80.2480469  72.9319763  44.1324043  80.6248779
  58.2116737  32.3081360   7.2376666  58.2664871  32.7935448   6.4144979
  58.9105339  31.6567287   7.1785865  77.5052261  50.8594322  70.0996094
  76.6224213  50.7530327  70.4539642  78.0807648  50.7676735  70.8589325
   4.1927743  17.2844276  67.3665924   3.9755089  17.2197895  66.4366226
   3.3584785  17.4765987  67.7946777  74.1040955  22.3466072  70.3694839
  73.2353439  22.6166344  70.6671143  74.2643127  21.5170879  70.8194427
  83.5213089  15.0392942  62.4782333  82.9264526  15.2496967  61.7584343
  83.0936966  14.3175383  62.9391518  58.6350327  54.0997620  69.0362473
  59.2228546  53.7090340  68.3897018  59.1978951  54.6739960  69.5555496
  58.7701836   3.9490857  35.7366371  58.2964249   4.2583523  34.9645348
  58.9269066   4.7391214  36.2538528  67.1501923  15.3630095  65.0677338
  67.1488266  14.7794018  65.8264389  66.2314987  15.4152346  64.8040848
  53.6686058  26.4309940  58.8672905  53.6061554  27.1187515  59.5301018
  54.5431976  26.5375977  58.4931870  36.6699791  62.0038223   9.6235304
  36.0724258  61.5808487  10.2401781  37.5123749  62.0180779  10.0778389
  68.0697098   5.5245366  29.3513622  67.8530121   6.2805610  29.8969822
  68.9622879   5.2922926  29.6074753  22.3238239  39.6132164  82.7905579
  22.9843979  40.3042259  82.8393326  21.9024143  39.7442398  81.9411545
   0.3309975  63.5465775   0.3731246   0.8592331  63.0214691   0.9743378
  -0.5566096  63.4964943   0.7279164  14.3272686  49.6182632   7.6373458
  14.8873386  48.9577217   8.0450659  14.0961962  50.2109146   8.3526096
  69.5020828  45.4175224  50.9932251  69.2248917  45.9399147  51.7458916
  69.4563141  46.0218506  50.2523346  28.7977886  13.7387276  72.8051224
  28.2549152  13.8160772  72.0205612  29.5678921  14.2753105  72.6173706
  78.4746857  57.6213379  53.6720314  77.7281723  57.5036240  54.2594795
  78.4832382  56.8297043  53.1340065  84.3726273  31.8571148  44.4472733
  83.7020264  31.9402237  43.7693214  84.1449890  32.5263672  45.0926514
  68.4777374  24.7205811  44.5690269  69.1278610  25.3980656  44.3830605
  68.9144211  23.9002132  44.3398209  62.9201317  13.7053156  81.9741745
  62.7727661  14.2620430  81.2096024  63.7304611  14.0379915  82.3600845
  42.6337051  45.0755920  12.6203728  43.4098320  44.5177917  12.6725187
  42.8959846  45.7982216  12.0500698   8.3741522  35.4975433  60.9306107
   9.1061411  35.1962471  60.3924255   7.5978975  35.3233376  60.3983383
  10.2181330  41.0857086  71.4611511   9.4985504  40.5957565  71.0631790
  10.9007025  40.4311180  71.6089401  82.5637436  48.9098511  21.7067719
  81.9516983  49.6095238  21.4785213  82.0068817  48.1491890  21.8726845
  46.9192619   6.7685194  18.7472134  47.1599083   7.6190772  18.3799610
  46.5313454   6.2918639  18.0133533  46.2291603  50.0369110  21.2536469
  46.4762154  49.3083076  21.8231430  45.3305168  49.8401337  20.9891682
  61.6529198  33.4323006  67.1588745  62.3536301  33.7958755  67.7002182
  61.2610359  34.1937332  66.7312317  84.1052628   8.2820930  13.9256868
  84.8120346   7.6406875  13.8528461  83.3104935   7.7546763  14.0056591
  58.6504631  71.4550018  38.9727745  58.2171593  71.0977936  38.1976089
  59.5820961  71.4428787  38.7533531  72.8648911   9.0170116  11.8706369
  72.4014664   8.5679283  12.5775986  73.6666183   8.5084515  11.7488365
  50.5636444  30.8144360  51.2245102  50.0395317  31.2121468  51.9197540
  51.3658714  30.5298462  51.6623154  77.7980042  60.3256035  34.1851120
  77.1177139  60.7737312  33.6824989  78.4369431  61.0094109  34.3861237
  16.2861538  53.1560478  32.8404083  16.2858486  53.0075035  33.7860107
  16.2619419  54.1084251  32.7475586   6.0339451  21.7962227  64.0980377
   5.9809809  21.8415604  63.1433792   6.2149405  22.6956882  64.3708649
  34.8425674  58.0134239  58.2865067  35.4409599  57.9266777  59.0285530
  34.1627808  57.3594971  58.4492912  58.8831635  41.6624870  77.4896088
  59.1986351  41.1872215  78.2582626  57.9508400  41.7987442  77.6582413
  84.7479019  24.2373562  62.5658379  83.8296127  24.1080475  62.3286514
  85.1590576  24.5608253  61.7642479  61.8631134   9.1498404  13.2224178
  61.6616020   9.6142349  14.0347996  61.0264282   9.1022091  12.7599001
   9.7206421  22.2697906  62.2063217   9.8486795  22.4041386  63.1453590
   9.4745588  23.1324120  61.8723183  85.2792206  12.3947697  20.1548920
  85.0022125  12.1195908  19.2809525  86.2107315  12.1773710  20.1904144
  82.4655457  26.3866005  35.2576065  82.2921219  26.9161282  34.4793015
  83.4131546  26.2517014  35.2492485  27.8561535  34.6107101  61.5427780
  28.1408901  35.4234848  61.1249847  28.5970173  34.0141220  61.4358368
  73.9894333  58.4395714  77.8509369  74.8264084  58.8644180  78.0385818
  73.4329758  59.1434479  77.5175476  86.0878067  47.5711632   0.9052706
  86.3937454  47.8978157   0.0591426  85.4833145  46.8627014   0.6841473
  21.5525055  20.0240021  58.9181938  20.7168350  20.1476326  58.4680786
  21.5204659  20.6345348  59.6547089  48.2560158  18.9167175  63.5261726
  48.5490417  18.2142620  62.9457207  48.7599335  19.6820164  63.2493744
  19.0028782  53.5177612  42.3957596  19.3612251  52.6719246  42.1267319
  18.9173813  54.0119057  41.5804405  40.1697578  29.7286854  19.3567390
  39.7934113  30.0597305  20.1722183  40.0862465  28.7774563  19.4232140
  76.0406876  39.4967651  28.0585136  75.5477371  40.3123322  27.9686127
  76.6527557  39.5044975  27.3226166   6.8763423  28.3902187   6.6441164
   5.9209280  28.3681145   6.5900164   7.1674829  28.4092751   5.7324662
  66.0211639   9.8485327  42.4733276  65.3652649  10.1286516  41.8349266
  66.0261002   8.8935537  42.4083519  79.6405106  29.8217278  50.1546555
  79.5540009  29.7694759  51.1065063  79.1651382  30.6170025  49.9142532
  51.8434792  38.3165894  52.1887245  51.5916405  37.8402061  51.3976059
  52.1333122  37.6359291  52.7961235  16.2580090  29.6001968  60.1021385
  16.0237617  28.8356018  59.5760612  17.0954075  29.8916283  59.7414970
  62.6536674  11.8517256  33.1132317  62.5916214  12.6523008  33.6342506
  62.7436409  11.1515903  33.7597160  62.9598045  32.4567909  77.9427643
  62.9370575  31.8991833  78.7204437  62.2123909  33.0454254  78.0481644
  57.2186813  18.0414906  30.6064014  57.9454536  18.0041065  29.9846001
  56.4586067  18.2733536  30.0727768  20.9225979  67.0160217   2.7358012
  21.4458618  67.8168335   2.7693238  20.8087749  66.8432312   1.8012316
  68.7520065  20.5344486  55.9625320  68.2326050  19.9552040  56.5201416
  68.1798706  21.2837334  55.7968063  44.5244446  21.5931683   4.4318342
  45.1024513  21.7802563   3.6921463  44.9604645  21.9939079   5.1838493
  11.9246941   3.9151003  71.5635452  12.2335072   3.4919581  72.3646851
  12.4331522   4.7242351  71.5087509  13.0138035  67.6920471  36.1081314
  12.3636560  68.3604889  36.3242950  13.5344362  68.0824509  35.4061699
  69.9531250  36.9010239  42.9400787  69.4965820  37.2988243  42.1987572
  70.4019394  36.1427917  42.5660629  22.3451118  60.7934761  84.3401871
  21.4842739  61.2103615  84.3028336  22.2474689  60.1004219  84.9931641
  60.4734116  44.4430466  55.6652336  60.4797821  43.8101654  54.9471397
  60.8988647  45.2203293  55.3032227  78.6557388  56.2104149  64.7018433
  79.3833694  56.3799973  64.1034927  77.9374542  55.9334106  64.1330032
   4.3837051  55.9893456  48.9291534   3.5308111  55.5579071  48.9807549
   4.1957073  56.9125786  49.0980644  80.3905334  62.8122025  77.2676773
  79.8813705  62.4996109  76.5198364  79.8535156  62.5963707  78.0300827
  15.6116896  28.5808640  18.0702190  15.7134104  29.2953300  18.6990452
  16.4639339  28.5182114  17.6389580  81.0742416  62.3370514  12.6805763
  81.2993011  61.4135590  12.5676947  80.2628098  62.4481163  12.1851187
  71.8832397   1.2784739  37.0756912  71.6924744   2.2160604  37.0479126
  71.1042557   0.8644487  36.7042122  84.7290573  51.9191399  13.7855625
  85.5414734  51.4928551  14.0585012  84.6364365  51.6885719  12.8611746
   2.6333759   8.2100592  40.1401825   2.2444673   8.4791889  39.3079872
   1.9841179   8.4567232  40.7988586   2.2283225  52.6576538  80.0704880
   2.0942757  51.9587631  79.4303207   2.5844927  53.3848877  79.5600891
  51.3736153  26.3029518  37.2054482  51.7521820  26.6536331  36.3992577
  51.6013870  26.9462872  37.8766212  22.9869194  50.6594582  36.6607819
  23.5826836  51.2950783  36.2641945  22.5550995  51.1429367  37.3650589
  52.6350021  25.3276653  79.8291321  52.0579948  26.0307312  79.5308151
  52.3869209  24.5719948  79.2965469  55.1880493  71.5515976  63.7201996
  55.6964760  71.4279709  62.9186707  54.3594055  71.1038284  63.5496635
   6.7959962  46.1536903  60.9236603   6.8176913  46.8198624  60.2366562
   6.2702670  46.5457191  61.6209106  75.8498383  41.0363121   3.5787141
  76.5836639  40.6339569   4.0433030  75.1027832  40.4712830   3.7758930
  55.5646210  31.0618057  80.7922287  56.1919785  30.4857941  81.2291107
  55.9941292  31.9171200  80.7783890  78.1876068  51.8966408  44.0266953
  77.7485199  52.6752052  44.3691483  79.0941010  52.1728096  43.8916512
  18.3296757  47.4355545  76.1332779  19.0803642  47.8310165  76.5763474
  17.6435337  47.4110489  76.8002472  42.5049133  49.9080925  78.5110550
  42.1192932  49.4740639  77.7500381  42.8436508  50.7353668  78.1688538
  16.1641331  14.3188429  72.4509888  15.8073111  14.4741735  73.3255081
  17.1004658  14.1820126  72.5951767  85.9357834  60.4767075  13.9196701
  86.6229630  59.8117828  13.8761559  86.1413803  61.0806732  13.2060966
  61.2561493  41.8946419  80.1320724  61.6989632  42.2382240  79.3561172
  61.5527229  42.4585075  80.8464432  17.9161491  22.0616455  84.6174316
  18.2720642  22.5542946  83.8779373  17.1345539  21.6345882  84.2667694
  81.4540939  32.9036331  11.0607681  81.0028687  32.0889664  10.8395462
  81.3498001  32.9853935  12.0087509  77.6164932  38.6288605  30.1339722
  77.0520248  38.9638748  29.4372864  77.3340607  37.7224579  30.2560196
   2.8689260   8.0808439  17.7742538   3.4990208   8.6851711  18.1666832
   3.4041283   7.3625288  17.4368896  12.5982208  53.5945244  84.7108688
  11.9358101  54.1388779  84.2852783  13.4240341  53.8638802  84.3087311
  65.7485504   1.1335995  86.5943527  65.4140396   1.8579977  87.1231079
  65.9707794   1.5334612  85.7535477  63.5704842  18.8463440  79.1716003
  64.1742554  18.3020229  79.6769714  63.1810837  18.2456455  78.5361786
  50.9874077  29.2785664  73.6368484  51.1627426  29.5315189  74.5432205
  51.7933464  29.4945087  73.1677399  67.1401367  46.4203606  75.8969650
  67.1136475  46.9213333  76.7121658  66.6560287  46.9575768  75.2698517
  22.2198143  45.4958839  78.0416641  23.1370621  45.5133705  78.3147736
  21.7259598  45.4850616  78.8615570  68.1718445  69.9305191  44.5457649
  68.5730896  70.3463364  45.3088722  68.8898392  69.8346939  43.9200325
  36.3127975  62.0474586  36.7351418  36.1355515  61.4903221  37.4930382
  35.4764137  62.0951309  36.2720871  66.7536697  10.0947008  85.6889191
  66.0692825  10.4004011  86.2842255  66.4294968   9.2554626  85.3620834
  47.4758263   2.5193911   2.3399854  48.3542557   2.1419768   2.2936506
  47.1883545   2.5696738   1.4283582  33.3622398  55.1995277  46.9107018
  34.2875404  55.2283478  47.1540604  33.0653839  56.1060715  46.9899750
  61.7118225  47.0096588  59.8204155  61.6057625  46.7785950  58.8975983
  62.2417145  46.3009758  60.1853981   0.8601727  17.9117241  69.2505875
  -0.0907859  17.9996166  69.3152771   1.0771141  18.2806587  68.3944016
  19.8550892  56.1467323  18.5140209  19.0733299  55.6510353  18.2703686
  20.0506821  56.6796074  17.7432957  83.1262512   4.4474692   3.6496608
  82.4645767   4.3687906   4.3368521  82.9800186   3.6862364   3.0880811
  65.6080704  16.5660267  52.9371147  66.2667999  17.1609364  52.5788040
  64.8480148  16.6783981  52.3662186  39.0200424  24.4675236  87.8428040
  39.0106239  24.4231262  86.8866806  39.6295891  23.7790031  88.1085510
  49.2646599   2.7504056  54.2029457  50.0607986   2.6393654  54.7226257
  49.3421516   2.1007433  53.5042572   4.4782610  17.2096806  64.3451996
   4.5877104  17.0182018  63.4137573   5.0956593  17.9205074  64.5177536
  55.1056519   6.1989474   5.6351013  55.3279419   6.9196630   6.2244983
  54.4571953   5.6862268   6.1176472   2.3425512   4.4019432  52.4551010
   3.0089450   3.7411199  52.6434174   2.5663126   4.7258878  51.5826187
  46.0623627  23.0570793  20.2917519  46.1504707  23.7270412  19.6137981
  46.9523621  22.9305935  20.6205883  40.4021530  43.5277481  82.0203857
  39.4635277  43.6001167  82.1935349  40.5967331  44.2657433  81.4426880
  84.8604050  39.2342796  31.5261593  85.8098526  39.2200546  31.4054432
  84.6928253  38.5619164  32.1865234   2.6342542  27.9474716  63.0024986
   1.8289636  27.7894421  62.5097885   3.2439449  27.2813797  62.6849632
   5.2221479  34.9476776  50.8185577   5.7162013  35.4457550  50.1673584
   4.3583751  35.3599663  50.8306351  37.9611626  42.7217216  11.7611151
  38.7404671  42.5109215  12.2753897  37.8627434  41.9822464  11.1613474
  86.3995514  11.7821093  34.0195160  87.2605515  11.3732195  33.9316177
  85.7791977  11.0708332  33.8599014  42.4940948  22.3056698  74.1167984
  42.9069672  21.5400295  73.7173462  43.1194763  22.5959206  74.7807922
  50.4280319  16.3666306  17.0628414  50.0025673  16.8094902  17.7970676
  51.1667595  15.9035921  17.4579544   3.9782803  69.4766159  31.6957836
   4.2180629  68.7229614  32.2349892   3.0261538  69.4201965  31.6151409
   6.4096909  48.4761047  29.5274544   7.2343464  47.9902573  29.5161304
   6.5615587  49.1913605  30.1451740  70.6250458  58.2960548  73.7728653
  70.1951904  58.8693161  74.4075546  70.2104645  58.5104866  72.9371796
  10.2807751  48.5048103  37.9318924   9.8392010  48.5381355  37.0832863
  11.2079697  48.6204605  37.7241287  14.8282356  11.1016884  14.0593157
  15.2911701  10.7031488  14.7962618  13.9310560  11.2150135  14.3730946
  70.6780548  43.0922165  48.3629913  71.3314133  43.7428360  48.1060066
  71.1527863  42.2610550  48.3577995  43.3998833  41.0221710  77.3206711
  42.4912148  41.3227844  77.3070755  43.8953552  41.7720833  77.6498642
  66.3266525  52.2432137  11.8623343  66.4977570  51.9603233  12.7606277
  66.7692566  53.0887718  11.7890959  38.2589378  43.1503601  67.6589584
  37.4612007  43.6685486  67.7653732  38.5380630  43.3223267  66.7596512
  70.4353180  12.0256519  12.4048767  70.0941315  11.2006292  12.7500687
  70.1865692  12.0196791  11.4805822  73.8539352  17.3751621  41.0418358
  73.8206863  18.2886562  40.7578392  74.0002975  16.8791122  40.2363892
  75.1931076  39.7535286  -0.0571168  74.9534607  40.5134163   0.4733299
  75.7396927  39.2209053   0.5206257  42.5739632  65.4490433  16.4562473
  43.4217415  65.8622589  16.2926846  42.0440941  66.1392212  16.8551540
  53.4252701  51.7629585  14.2332325  53.7209396  52.4088097  14.8748617
  52.6421471  51.3768196  14.6254721  75.2982788   6.7784386  65.7793350
  74.5558472   7.2400384  65.3895187  75.3243332   5.9377723  65.3223495
  83.5314865  25.0007629  58.6966515  83.3396225  25.2676792  57.7976646
  84.4757004  25.1285667  58.7881050  30.0781651   6.6697254  73.2644577
  30.9618416   7.0240622  73.1654968  29.8055668   6.4534926  72.3727417
  58.6552849  53.7621841   8.2991066  59.1626854  53.1726837   8.8570223
  59.0658035  54.6184502   8.4195776  58.4073715  70.3919525  36.4566116
  58.1902161  71.1427536  35.9040070  57.6099205  69.8625946  36.4656334
  36.7511940  52.0902023   5.6333790  35.9752769  52.3166695   5.1206465
  37.3905182  51.7976799   4.9838204  35.4071693  29.0543289  12.6550884
  34.9528198  28.2229633  12.5185957  36.1378632  28.8357983  13.2335043
  78.4386292  49.5520706  32.7140961  77.7584610  49.9451904  33.2609558
  78.7131805  50.2580147  32.1288605   6.6211672  52.3428955  64.8203812
   7.5679688  52.2025146  64.8299866   6.2897968  51.6983147  64.1951294
  10.8905153  55.9922409  14.2988548  10.3413286  56.3228378  13.5879879
  10.8462267  55.0399551  14.2127094  58.9201279  57.3742599  60.7432861
  58.9939575  56.4217644  60.6838455  59.1196022  57.5733299  61.6580620
  53.5032921   3.7759564  48.4096603  54.4519615   3.6498940  48.3904419
  53.3892021   4.7067590  48.6015511  85.6887131  22.4586010  65.1804962
  84.9220047  21.9104176  65.0135345  85.6975555  23.0849075  64.4566879
  28.1328354  46.2093697  46.1677322  27.6186314  45.4859200  46.5261269
  28.5468750  45.8445320  45.3856239  15.9837980  30.2801342   5.6556807
  16.3004704  29.5275078   6.1551838  15.5503149  29.8964348   4.8933816
  41.6906700  38.4978027  49.3106346  42.5149918  38.0129662  49.3513565
  41.4887009  38.7039299  50.2232971  37.8876915   3.7607586  87.4514084
  38.2199364   3.1749089  88.1315765  38.2870369   4.6079421  87.6489792
  76.9434967  52.1051140   6.7714205  76.5400543  51.2991447   7.0937219
  77.4778061  52.4145966   7.5028334  43.6457710  21.2549858  84.6455460
  42.7831955  20.8425560  84.5997086  43.4602318  22.1828499  84.7900314
  55.4927635  49.5973053  15.7375546  54.5863762  49.8985710  15.8002596
  55.8585663  49.7557411  16.6077957   4.8150601  37.8125839  38.8151474
   5.5588927  37.9601250  39.3992538   4.0531268  37.8064003  39.3945007
  39.7041016  34.5887680  83.6608505  40.6452026  34.4788055  83.5249481
  39.5688515  35.5362282  83.6445923  24.2485733  58.2689171  81.7145615
  23.3781528  58.5268288  81.4111099  24.5773563  57.6852074  81.0308838
  68.3109665  18.3941860  41.8530769  67.5119324  18.7343121  42.2556801
  68.5200272  17.6101856  42.3608894   4.9055672  19.9902153  62.2810860
   5.1505523  20.2156448  63.1785240   4.6243105  19.0766792  62.3318787
  38.3183060  31.9658604  11.3248987  38.8227234  32.4299660  10.6567659
  37.4508629  32.3693237  11.2934065  82.1646576  47.0284996  87.7022552
  81.9103088  47.2378502  88.6009827  82.0165405  47.8397408  87.2162704
  22.6892090   4.1473093  62.5129013  22.5820408   3.2501996  62.1967697
  23.3982487   4.0923905  63.1535873  38.4541931  11.9513102  88.9206543
  38.5650864  11.2168884  88.3168640  39.2010460  11.8869009  89.5158768
  28.7073784  55.3524094  38.4681549  29.3631325  54.8204803  38.9190102
  28.4992599  54.8559837  37.6766510  29.1818867  42.3954926  -0.0439271
  29.8023434  42.7434578  -0.6843862  29.6870918  42.3268967   0.7661930
  70.4805374   5.1752753   5.3728967  69.9388962   5.9405980   5.1801844
  69.8636246   4.5224090   5.7036915  24.0331535  26.5070095  17.3930702
  24.4142914  26.4695816  16.5158234  24.3285408  25.7013073  17.8171253
  49.9382019  46.8662262  50.0799942  49.5678101  46.2773056  50.7374229
  49.2487068  47.5106277  49.9200630  85.4486084  37.3221741  11.8762436
  86.1082840  36.8891907  11.3344145  85.0494766  37.9701157  11.2956429
  39.7906532  44.4619446  40.9631729  40.3801689  43.7112770  41.0353203
  39.8392982  44.7170067  40.0418663  80.1043015  18.4554272  75.7386475
  80.7998505  18.4761353  76.3959274  79.7287979  19.3356495  75.7594833
   9.0188704  63.4015236  69.0182114   8.0845690  63.6096382  69.0171967
   9.1508474  62.8963089  69.8204422  85.5908279  61.4150543  81.3294144
  85.2883224  61.7690620  80.4931107  85.0343018  61.8375015  81.9836731
  24.7575493  34.3127975  17.3105202  24.2718773  35.1366615  17.2705631
  24.7910786  34.0995140  18.2430534  32.0814476  44.5475769  81.5311890
  31.4498196  43.9114914  81.8668518  31.7247982  45.3978310  81.7882843
   6.5006070   0.1863694   8.1595774   6.8813353   0.7467118   8.8358126
   5.5692139   0.1477471   8.3769398  78.7827759  22.3632469  37.5746803
  79.5586243  21.9138317  37.2395287  79.1283569  23.1333599  38.0260468
  57.6847687   6.2228189  18.2249107  56.8635445   5.8025351  17.9695969
  57.4146042   6.9856691  18.7360897   7.8154330  47.4980354   6.6647587
   7.1232438  48.1298294   6.4699712   7.3842592  46.6453209   6.6081634
  41.1510353  33.1139679  42.5193520  40.9766083  32.6082840  43.3131332
  42.0686150  32.9321442  42.3163261   9.1690454  59.1907845  25.0623665
   9.5581188  58.3423157  24.8503304   9.1908150  59.2320442  26.0184288
  49.0443726  22.9022598  38.6152115  49.9559860  22.6140347  38.5692253
  49.0776215  23.8360119  38.4072800  77.4342499   4.1782799   2.1876743
  76.5430145   4.4777246   2.0080228  77.6791458   3.6754982   1.4108442
  43.6834183  54.5269966  75.7019348  44.5828705  54.7120132  75.4317932
  43.3560982  53.9156761  75.0421066  43.8475494  47.5192909  11.7397890
  44.7662659  47.7471199  11.8822203  43.7057991  47.6689758  10.8050518
  64.7020874  70.0717773  86.9358673  64.9413071  70.9019699  86.5238113
  64.9404297  70.1837158  87.8561325  34.4289551  45.7103996  27.0086975
  34.7067223  45.5719223  27.9141808  33.7019234  46.3296661  27.0732384
  19.7128658   4.8292394  75.6994858  20.1707363   5.6434722  75.9083176
  19.0142670   5.0939956  75.1010742  10.7198505  12.8689470   3.3290784
  10.0926991  13.4681835   3.7338347  11.4884253  13.4110012   3.1510279
  44.8959160  49.7871475   5.4744134  44.4928741  49.6604881   4.6154914
  44.2134705  49.5391960   6.0981264  25.1990242  35.4915466   1.8488375
  26.0757790  35.4325371   1.4692997  24.6730766  34.8804359   1.3329327
  83.9689026  26.7484531  68.4042664  84.0916519  26.1136589  69.1100998
  84.4354935  27.5297794  68.7009964  75.1679688  47.7363701  86.7541199
  75.3147049  46.8530655  87.0924606  75.4816132  48.3144226  87.4496155
  72.7567825  30.1037426  46.7675133  72.3343582  29.2510338  46.6641884
  73.2842560  30.0151081  47.5613327   9.2372570  37.8671989  58.6612206
   9.5071859  37.1669693  59.2553978   9.8739281  37.8341751  57.9472237
  32.6738892   3.2293932  60.5133400  33.5314751   3.6061397  60.7104149
  32.1966553   3.2737768  61.3418961  41.5303574  59.0391159  16.2924175
  40.6842079  59.4642754  16.1527557  41.4434319  58.6057968  17.1414833
  27.5834904  48.0939903  13.6793747  26.6656132  47.8636703  13.8231964
  27.5936222  49.0511322  13.6827707  46.8619232  54.7192192  78.3623581
  47.0548935  54.6907425  77.4252472  47.0757217  53.8411140  78.6777191
  86.8271255  44.2110405   3.1020262  86.3450241  43.8124733   2.3774908
  86.9941711  45.1083641   2.8136809  15.8788042  64.8538361  33.1508217
  16.1928101  63.9671021  32.9738159  15.9797239  64.9592896  34.0968246
  81.7439346  60.0991173  49.5918427  81.4664230  59.6311798  48.8042793
  81.3649826  59.5981750  50.3141174  82.3082581  30.1379890  63.6111259
  82.9268036  30.0176392  64.3316498  81.9118652  29.2753067  63.4891357
  64.9455261  25.2615051  69.7661057  64.2457962  24.6167374  69.6617661
  64.9304352  25.7651501  68.9522552  83.6139984  63.3989639  81.6733932
  83.8621826  64.3220901  81.6237335  82.9085770  63.3058281  81.0331268
  79.7050247  14.4071903  18.4735699  79.9840240  13.5952759  18.8968735
  79.7107162  15.0576334  19.1757965  67.7046509  33.5255547  34.7671318
  67.8522949  34.1982841  34.1024017  68.5271454  33.4865112  35.2551956
  86.0421295  36.5619087  32.6638412  86.5675812  37.3295059  32.4381752
  85.2017899  36.9218826  32.9475136   7.5019689   9.7362032  17.4743576
   8.1924458   9.5857248  16.8287354   6.9122725   8.9890738  17.3729286
  55.3034782  58.3144684  23.4197121  55.7520866  57.4699554  23.3775730
  54.7162437  58.3117142  22.6638145  66.8254395  10.8028507  11.3992205
  67.2169647  10.3507929  10.6518364  65.9738083  10.3814039  11.5147476
  27.7040920  64.2897034  79.2254028  27.7307053  63.3633385  79.4649277
  27.7795238  64.7547913  80.0586166  57.8937836  10.5324612  39.7979736
  58.4302750  10.5845909  40.5889816  57.6797791   9.6032305  39.7145271
  82.0344925  33.0896568  50.2629204  82.1399994  32.1460037  50.3838272
  81.5869064  33.3841896  51.0561066  37.7139664  25.6848106   9.8268042
  36.9416389  26.2464790   9.8921652  38.4170570  26.2749901   9.5555372
   4.6935549  24.0512085  17.9537048   4.0008464  24.5920124  18.3330688
   4.3197942  23.7219105  17.1363316  62.3668633  48.3015251  64.2458649
  61.6404419  47.9171906  63.7551155  63.0736351  48.3802872  63.6051636
  81.0116196  63.5623283  80.5883713  80.6270676  64.4386749  80.5690536
  80.3284302  62.9931183  80.2341232  72.6145554   3.9763637  76.0334396
  72.0356903   3.2586479  76.2904205  72.9801254   4.2962604  76.8582153
  36.7298431  55.0604019  31.4816036  36.7260056  54.3918343  32.1666107
  37.0600510  54.6068192  30.7060699  55.9209595  32.5600243  85.6167984
  56.1401596  31.8188095  86.1814041  55.8782997  32.1862564  84.7366257
  28.3986111   3.5779474  29.5498333  29.3064613   3.3034871  29.6791096
  28.2295933   4.1911221  30.2651539  65.5577774  34.2469864  30.0981350
  65.6062546  34.7497864  30.9111996  65.0208588  33.4859047  30.3188343
  47.6356049  65.6370544  30.6302433  48.1045685  65.1387405  29.9609222
  47.2310791  64.9705582  31.1855507  36.8692856  61.2945175  22.2256317
  37.2515106  62.1715240  22.1940670  37.4005280  60.7797127  21.6181870
  35.5749741  38.8781357  30.9486809  36.2988434  39.5018425  31.0056057
  35.0885582  39.0006828  31.7639217  20.6309128  34.6956520  70.0386734
  19.8492031  34.1452370  69.9917068  20.5847225  35.1040039  70.9031677
  84.8970337  59.7536850  74.4970169  84.4910049  58.8972397  74.3633270
  84.4004974  60.3450699  73.9313812  10.3767471   4.5908122  26.5022793
  11.1385031   4.8119879  27.0380402   9.7920656   5.3429775  26.5951633
  70.3483658  45.9731064  21.6764221  69.7491074  45.8918724  22.4183960
  69.9128952  46.5847282  21.0826893  43.6692047  42.1698723   4.5329957
  44.2055435  41.8082466   3.8274481  42.8376541  42.3898773   4.1130486
  10.9238338  50.1894455  56.9342194  11.0197649  50.4677162  56.0233994
  11.7224731  50.4959717  57.3636932  84.7213516  39.5661621  52.9501724
  85.0582199  38.6740952  52.8667068  83.8504639  39.4585114  53.3325310
   4.8400335  30.7122822   4.4561543   5.6955519  31.1235142   4.5794783
   4.7144747  30.1803379   5.2419677  78.0024185  41.4808693  30.8881283
  77.7787247  40.6205292  30.5331593  78.2465744  41.3086586  31.7975063
  14.4971762  38.4627724  28.5049458  15.3944998  38.7208557  28.7157421
  14.4040461  38.6595802  27.5728378   5.0283689   7.1487298  28.6992111
   4.2288575   7.0004177  28.1942177   4.7419086   7.1296215  29.6123409
  79.9023895  57.9539413  43.3762093  80.3691483  57.4282570  44.0258446
  80.4049911  58.7666130  43.3198013  35.2954941  48.8814545  19.8585052
  34.4819756  48.4351463  20.0935211  35.6772118  49.1409225  20.6970749
  46.2013664  54.0239220  60.3729553  46.2937584  53.8564453  59.4350624
  47.0915680  54.2092400  60.6720009  67.4836197  28.5062218  45.5778122
  67.8913345  28.1016026  46.3435020  66.5432587  28.4084949  45.7274818
  20.3231068  48.4862366  61.8227539  19.9997349  47.7965050  61.2431526
  19.5461388  48.7867432  62.2941856  29.5869617  16.1638355  76.5127029
  29.2777081  15.2797279  76.3153610  30.4446659  16.0328922  76.9169693
  79.3797836  56.3209801  81.2831039  78.9816971  55.8589592  80.5453415
  78.7542877  56.2122536  81.9994583  77.7649384  25.2085590  48.5585709
  78.2955399  26.0049095  48.5357628  77.8816986  24.8180676  47.6924782
  76.1956406  32.0570641  20.9897156  76.2614136  31.7681885  20.0795193
  75.2760239  32.2994766  21.0982132  71.5634766  38.0282440  54.6410637
  71.7828293  38.8996925  54.9707527  71.8052597  37.4351768  55.3524323
  11.7107468   6.2972693  78.4723969  11.2193203   6.9263129  77.9441605
  12.5477381   6.2045531  78.0173416  40.0605125  46.4764290   5.6771035
  39.3168488  45.9596786   5.9872079  40.5966797  45.8538094   5.1860800
  11.4798298  28.5818901  58.7170258  11.2755556  28.6183548  59.6514626
  11.0342817  29.3428154  58.3445854  86.3999405  38.8690910   0.8904969
  86.7957001  39.4940796   1.4979467  86.6503754  39.1868401   0.0229997
  75.9372864  58.5818367  43.7774696  75.8686905  58.8119164  42.8508682
  75.1692886  58.0359917  43.9462051  59.9549751  37.8144264  81.7125854
  59.5911827  38.6762581  81.9154129  59.9710960  37.3573265  82.5534363
  80.6732635  51.0030746  57.7191582  81.1353455  51.5199127  57.0591660
  81.3431396  50.4231834  58.0814171  58.2029037  31.1180248  42.0198135
  57.9596672  32.0389404  41.9250221  58.1769485  30.7704582  41.1283226
   2.8390040  10.3499117  13.5812550   2.1703699  10.1452532  14.2349186
   3.2221963  11.1743927  13.8806314  27.6183338  46.5559311  74.6683731
  27.6241379  45.6095695  74.8118744  27.1428394  46.9092789  75.4202194
  67.1935730  11.1723032  47.4330750  68.0035019  11.5882025  47.7284927
  66.5512543  11.3927784  48.1076469  63.7279129  42.5100784  33.9636154
  64.6063461  42.5064812  33.5833931  63.7358437  43.2440681  34.5779686
  57.4806175  37.3415108  11.0559368  57.6811218  36.7925339  10.2978754
  57.4447556  38.2311783  10.7045994  10.4910069  47.1927147  58.5834122
  10.0491571  47.9706726  58.9236755  10.9148588  46.8040657  59.3486137
  36.7986565  40.5843124  78.9543304  35.8846588  40.2999916  78.9561844
  37.3024635  39.7708969  78.9267578  25.7440147  38.0138016  59.6136131
  26.1736755  37.2699699  59.1913147  26.4162598  38.6946487  59.6412277
  80.6712875  42.4518127  86.9270782  81.4734344  42.9338760  86.7260742
  80.8765259  41.9683990  87.7273407  38.7900848  69.0244141  17.4608231
  38.3961487  69.3734741  18.2603226  38.3282356  69.4712524  16.7514114
  76.2822037  70.5699997  35.0785675  76.4588242  70.4611588  36.0130119
  75.5676804  71.2059097  35.0423431  73.6727905  48.7944107   0.5100802
  72.9192429  48.2188950   0.3790034  74.0211639  48.5418816   1.3651202
   2.5326507  21.0585442  20.5456486   2.0737860  20.7805500  19.7529354
   3.3804953  20.6167107  20.4990253  22.3643684  58.3352356  65.1433411
  22.6514225  57.5172234  64.7375259  21.5873737  58.5897598  64.6456146
   0.9526132   3.3143682  37.1027260   1.6583370   3.2247262  36.4622955
   1.1358041   4.1423659  37.5466766  41.8070107  41.6954460  64.9481964
  42.0672874  42.0416641  65.8017960  42.5404701  41.9063187  64.3704453
   7.9830832  62.1436081   5.5947857   7.7836800  61.2254601   5.4118304
   8.8452501  62.1233025   6.0101037   2.1898699  14.6923046  35.0911255
   1.2574894  14.8899279  35.1796913   2.3356011  14.6431599  34.1463623
  57.1456528  33.3747101  11.6926403  58.0529747  33.0995789  11.5610905
  56.9402199  33.9002151  10.9194174  43.0781403  40.0103760  60.9472733
  43.6361771  40.2462044  60.2061844  42.4404221  39.3974533  60.5813866
  46.1539536  33.1301003  76.8990555  45.2600441  33.4204407  76.7177887
  46.3237152  33.4222641  77.7946243  13.5663347  50.1502495  59.4092827
  14.0342312  50.7358627  60.0045662  12.8962097  49.7391357  59.9553108
  21.1608448  63.1066322  69.3482437  20.8528214  63.7013206  68.6643600
  22.1147175  63.1263046  69.2709579  60.2857285   6.1270204  32.1609650
  59.7633781   6.8431740  32.5222206  61.0655632   6.5543680  31.8067532
   5.8788385  47.8065758  55.9878044   5.8856788  46.9179459  55.6321068
   6.3487339  48.3285217  55.3374176  11.5457287  53.5982018   1.1358206
  11.1405210  53.7640724   0.2846302  11.4485826  54.4227982   1.6120965
  69.7192307  29.5977840  87.6496429  70.2093964  28.7756138  87.6507111
  70.3473511  30.2515106  87.9567871   7.1486025  37.7660599  32.4064217
   6.5055370  37.1144066  32.6857910   6.7093239  38.2522125  31.7086201
  51.3295517  30.4843159  69.3735199  50.8954506  29.8271313  69.9174881
  51.8208466  29.9750805  68.7288971  15.7074528  60.0207825  14.2590504
  16.1285439  59.3010597  13.7890358  15.3314781  59.6106873  15.0379562
  43.5081024  46.8392906  62.1176071  43.0086403  46.0850296  62.4304428
  43.3170280  47.5320320  62.7499275  68.6313324  56.8070030  32.2281418
  68.4483490  57.2053413  33.0790672  68.0293579  57.2431221  31.6251049
   3.2280083  27.2337818  37.0856285   2.4833887  26.6712952  36.8725967
   3.9153464  26.9617844  36.4775047   3.2046542  12.4581480  15.2042074
   2.8329046  13.3400707  15.1884842   3.8788526  12.4944792  15.8827124
  45.5744286  47.9713593  25.8459396  45.2827339  47.3144073  26.4780445
  45.4485855  48.8076324  26.2943211  83.5420761  16.4406414  26.4888439
  83.9615250  16.7915554  25.7032566  84.1413651  16.6647606  27.2007771
  47.0560837  23.8120365  84.7597885  46.8543777  23.4689007  83.8892746
  46.4193802  23.3903675  85.3368912  55.2907066  46.7006264  14.9746332
  55.2280045  47.6443596  15.1218348  55.1915855  46.3153191  15.8452330
  59.2665710  67.4826126  85.1956177  59.3260460  67.1269379  84.3089447
  59.1053810  68.4175186  85.0683441  38.7118645  35.3839378  88.6178513
  38.1816025  35.7561188  87.9131927  39.5896378  35.7351303  88.4681473
  52.3358078  22.0244465  20.9219666  52.6648903  21.1296635  21.0074005
  52.7625122  22.5053101  21.6311398  74.5816345  13.0424337  33.7219315
  74.4011307  13.7837954  33.1439743  73.8712463  13.0601778  34.3632278
  58.6116104  16.4612999  15.6429920  58.2948151  17.3566856  15.7619705
  58.0139923  16.0792122  15.0002718  18.8066196  60.1934738  55.3505821
  18.6540203  61.0447502  55.7607956  18.6797600  60.3521690  54.4151917
   4.6776710  11.8717365  88.0257797   4.8094068  12.8172894  87.9564438
   5.5329618  11.5291424  88.2852783   6.6143227  40.2215004  44.9677658
   5.9870486  40.5296173  45.6218491   6.6810780  40.9424477  44.3416634
   7.3042054   2.8374195   6.6760473   7.2890749   3.5855303   7.2729836
   6.8476982   2.1428745   7.1508527  50.4954185  69.0880280  17.5871181
  49.7732086  68.4695129  17.6970310  50.0741539  69.9473572  17.5689621
  24.0041161  50.1537857  30.3546658  24.6670494  50.0197830  29.6773205
  23.6175556  51.0043602  30.1465282  25.3105030  56.0416451  36.6063881
  25.3324947  55.2524872  36.0651131  25.2943497  56.7630653  35.9774818
  47.4291153  30.0874176   8.7668486  47.3553581  30.0273190   7.8143883
  48.2135201  30.6160469   8.9134541  47.5146561   9.1987896  31.2321110
  47.3717537   8.2547522  31.1642475  46.9497986   9.4752712  31.9537239
  68.8644943  41.5861931  85.1477966  69.5861969  41.2992935  85.7073212
  69.1677017  41.4107513  84.2570038  36.0580635  31.1426640  74.7232819
  36.9176750  30.7338963  74.6222458  36.2411346  31.9863186  75.1367569
  52.1048088  36.2232132  37.6275024  52.4975052  35.6225624  36.9940681
  51.1653938  36.0476685  37.5735054  11.2882471  39.6423759   2.2053950
  10.9737883  38.8494186   2.6396348  10.6022968  40.2907181   2.3646259
  37.2669067  27.8408031  85.4070511  36.7052155  27.5481319  86.1247406
  37.0117188  27.2932186  84.6645813  37.9531326  47.4980659   9.0995436
  37.0468140  47.6447906   9.3702726  37.9471054  47.6438560   8.1535301
  67.8585815  66.9153137   0.4927445  67.0964737  66.3858795   0.7275621
  67.7868195  67.6955185   1.0426123  26.0878201  38.6130676  78.2792511
  25.2699184  38.6605034  77.7842560  26.7729225  38.7359123  77.6221542
  49.1832542  44.1814194  40.3243256  48.7173729  44.5295410  41.0845871
  49.8357964  43.5871201  40.6947708   0.0353628  37.5222816  77.3020630
  -0.5294238  38.2650566  77.5154419   0.7700703  37.5973511  77.9110031
  38.4096603   6.0477657  78.1963501  38.7317657   5.9818721  79.0953217
  38.9746704   5.4592257  77.6957397  13.6974459  11.1956072   6.0773673
  12.7512875  11.0756207   6.1587300  13.9994955  10.4124899   5.6172328
  79.7685013  42.9432182  59.1089897  79.8568268  42.0096893  58.9167442
  80.4382095  43.3633003  58.5693092  35.9111023  54.6326637  86.2218170
  35.0556107  54.7470970  85.8079681  36.1237640  53.7100601  86.0810699
  74.3026123  39.5904465  65.4537582  73.8943481  40.3893318  65.1200943
  74.4323730  39.7595329  66.3869324   4.3016362  47.3277588  13.0091105
   3.7896814  46.5195885  12.9775705   5.0847960  47.0958481  13.5082197
  23.2874832  70.3719406   7.8528147  22.7108593  69.6963120   8.2095652
  23.3427544  70.1708145   6.9186172  13.6939926  34.2920418  73.0510635
  14.2316046  34.4049568  73.8349304  13.7873354  33.3658905  72.8279800
  52.2246666   2.0432253  50.7623215  52.1493835   2.7236218  50.0932732
  52.5513306   2.5029402  51.5357437  72.0254211  11.7053919  50.3802567
  72.6170654  12.3629732  50.0145073  72.4583588  11.4134169  51.1824722
  28.0649853  65.0569382  38.7154655  27.2952480  65.4174881  39.1556244
  28.0113850  65.3969955  37.8223152  11.7596331  44.7871437  17.8456821
  12.0172911  44.3156166  18.6378345  11.4019804  44.1110573  17.2701607
  67.1626358  24.9517250  42.0000763  67.1784515  25.0676327  42.9500999
  67.7689819  25.6137199  41.6678963  30.3797760  16.7692356   0.1999392
  30.4384975  15.9219637  -0.2415523  30.7385445  16.6097984   1.0729213
  53.6384659  25.9319115   9.2782812  53.2830124  25.5253754  10.0686054
  53.3041115  26.8285770   9.2990570  29.7451057   8.7947073  44.0138321
  30.6659279   9.0107212  44.1609879  29.2640553   9.5423946  44.3684998
  72.4037933  -0.2259622  71.0110092  72.4893646   0.5353972  70.4372101
  73.2324524  -0.2600505  71.4889069   8.2776346  69.9813156  77.3678360
   8.3165369  69.0432892  77.1812134   7.5092101  70.0820847  77.9296188
   9.3831720  58.2646294  19.5813980  10.1416655  58.8172455  19.3928852
   9.6784887  57.6835480  20.2823715  48.9484940  48.8410797  29.3747253
  48.7574768  48.7432556  30.3075562  49.4394646  49.6606293  29.3154373
  55.0562477   1.8812321  31.4248848  54.6808662   2.1964211  32.2470627
  54.2979851   1.6962084  30.8707733  23.6001701  63.9836006  88.5703354
  22.6959419  64.0921097  88.2756729  23.7566319  63.0405655  88.5209808
  42.7106209  46.3428001   3.6933415  43.2292938  46.5514069   2.9163644
  42.2133179  47.1411934   3.8707912  56.5541763  25.0262146  74.8709641
  56.9341125  24.9507618  73.9956436  57.0199890  25.7600937  75.2718048
  58.3373528  55.9983406  45.8031502  59.1410980  55.4793892  45.8333206
  57.8795090  55.7781792  46.6144104  42.1204147  56.0167236  22.6041183
  42.8828087  56.5952568  22.5871239  42.1064415  55.6133652  21.7361660
   0.3321677  10.7416649  29.7773914   0.4593000  11.6060915  29.3864498
   1.0563408  10.2161493  29.4373360  68.1660919  18.6871147  31.5241146
  69.0321045  18.3985558  31.8121929  68.3077393  19.0232239  30.6391315
  74.9655228  20.1972237  72.0907745  75.5881805  19.6099472  71.6622543
  75.4700012  20.9902496  72.2719955  31.4997997  24.8837013  81.9765472
  32.3564606  25.1481152  82.3118820  30.8742943  25.4049435  82.4798203
  44.1039314  42.7458153  39.9627724  43.6333351  43.2169991  40.6503487
  43.6969223  43.0412216  39.1483345  74.6319275  59.7928925  19.6049652
  75.0181427  60.1842728  20.3884773  74.0249176  60.4576149  19.2795277
  23.6687508  64.2081070  17.0942764  22.9649315  64.5407028  17.6512775
  23.7949429  63.3039436  17.3820305  25.4972057  20.2344551  66.5830688
  25.8088379  20.8572884  67.2397308  25.3082619  19.4379177  67.0791168
  38.2496567   4.1682324  64.1935577  38.4587097   4.6649194  64.9846497
  37.9925461   3.3038366  64.5144043   4.9503689   3.4687252   4.7827649
   5.8136797   3.4896126   5.1956697   5.0246210   4.0701962   4.0418525
   0.2471290  32.4774513  43.0170822  -0.5623555  32.5711136  43.5192719
   0.6021205  31.6316147  43.2905235  28.8194332  45.4685440  87.1537628
  27.9534912  45.0667076  87.0837250  28.9449978  45.9144821  86.3161392
  22.5251045  43.1953316  40.9579506  22.4659595  42.6953659  41.7720566
  21.9569645  42.7261734  40.3469391  13.4630394  45.8853378  51.6936035
  13.3661270  46.8199463  51.8762093  12.6732836  45.4867210  52.0591507
  31.1217575  33.9714241   2.3268480  30.4654064  33.8492546   3.0127854
  31.9377747  34.1294594   2.8015840  77.5236816   6.1360922  75.8280716
  78.1730881   6.8348889  75.9067383  77.9045181   5.4001546  76.3072281
  73.8737183  27.3574142  42.3707047  74.7583160  27.4004593  42.7338295
  73.8580627  26.5390205  41.8745003  46.3067970  63.6672783  37.0294838
  46.5743446  62.8255615  37.3984795  47.1283264  64.0944138  36.7868500
  12.2312851  63.1930504  57.8574181  11.4984035  63.6714554  58.2450371
  12.6874599  62.8068771  58.6050835  37.3066864  56.1429253  82.8830948
  37.3972816  56.3903389  81.9628677  37.0831566  55.2124748  82.8600616
   7.7775140  24.9740143  73.0285416   7.4589744  24.2919769  72.4372864
   8.6739988  25.1427994  72.7386169  17.2130852  26.3989010  11.0241222
  16.7237587  25.9376526  11.7053280  18.0070553  26.7030373  11.4638319
  78.5105743   0.6907510  26.1358299  78.6092300   1.1689951  26.9591045
  78.7577133   1.3226564  25.4606628  17.1089001  63.7177925  41.2309685
  17.4285870  62.8738861  41.5501099  17.2369270  64.3162842  41.9669380
  20.0923443  57.9453697  54.0220985  19.7419014  58.6999969  54.4953423
  20.1915112  58.2527046  53.1210175  63.0437851  41.1563377  60.4565811
  62.5719833  41.8752975  60.0361862  63.2688522  40.5651131  59.7382317
  86.2680969  26.4437714  18.3662224  86.1247253  26.1803455  17.4572220
  86.4682465  27.3784637  18.3159962  47.8341331   9.9365425  13.1380577
  48.1687889  10.2663383  12.3041077  47.4047699  10.6920376  13.5394382
   4.2440696  42.2630234  27.9804821   3.7033336  41.4953766  27.7945881
   4.7278023  42.0291023  28.7726402  68.3047791   4.9488783  55.6126556
  68.1836624   5.6198354  56.2845039  69.1342468   4.5289173  55.8403511
  80.7180023  50.6823311  24.8586960  80.4320679  49.7689018  24.8694344
  81.3590088  50.7243156  24.1490593  53.1439514  37.6426048  16.8798332
  53.6821365  37.5493011  17.6658878  53.2061920  38.5711288  16.6557732
  56.2003250  47.8821869  22.4645538  55.3850708  47.7917252  21.9711895
  56.7834778  47.2241020  22.0862789  18.5861340  65.2243500  82.9538574
  18.2881145  64.5697937  83.5854950  19.5120392  65.0226669  82.8187561
  46.0741463  67.3268661   2.5628145  46.4479256  66.4638519   2.7409427
  46.8337555  67.8988724   2.4531088  33.2572899   4.6626143   2.2908578
  33.0709229   5.5811343   2.0963850  32.4770317   4.1924701   1.9969363
  39.2092171  70.3847427  49.2683487  39.2468567  69.6114655  49.8312531
  38.6694107  70.1142654  48.5255966  78.4079514  17.9416237  27.0062256
  78.8435516  17.8019733  27.8470478  77.5481720  18.2931690  27.2373695
  76.8173599  16.4549179  88.9846115  76.1677628  15.9130421  89.4325333
  76.4277725  16.6384048  88.1297531  28.6214333  49.7769508  42.0793495
  28.4378662  50.7078438  42.2057419  29.3046608  49.7563782  41.4092674
  80.0328751  29.8092175  55.3382797  80.1587524  30.7345543  55.5483742
  79.4969940  29.4714260  56.0558815  69.4230881  27.7454662  65.1766281
  69.6548920  28.6586323  65.0074387  70.1450348  27.4095669  65.7078476
  20.8771000  71.0613480  87.4242020  20.6896114  70.3142319  86.8559647
  21.8327007  71.0950470  87.4680481  34.1484871   3.8235354  73.0491486
  33.7692566   4.1905441  72.2505722  34.0887032   4.5318799  73.6901703
  34.7781448  65.6970673  72.7608185  35.2287827  66.2854996  72.1550903
  34.4583740  66.2698746  73.4578629  66.5673294  52.5033913  46.8582764
  67.4487762  52.5425034  47.2294312  66.7062912  52.3122253  45.9307098
  72.2960968   5.8803515  64.4834976  71.3655167   6.0660720  64.3579559
  72.3159790   5.2015171  65.1580505  22.2755432   8.0961504  71.6348724
  23.1880836   8.3815880  71.6799011  21.7733669   8.8493395  71.9459305
  83.7338638  37.5401230  86.4539185  83.4540100  37.0290947  85.6944656
  84.6771393  37.6501961  86.3341293  41.1106834  40.2077065  17.1271877
  41.9030342  40.4824219  17.5886497  40.8805008  39.3682365  17.5253582
  55.6052170  36.8251343  34.5530319  55.5290756  37.7534676  34.7735519
  55.0812492  36.7239609  33.7583923  81.7035828  39.3931923  82.8831863
  82.0496826  38.9763870  83.6723175  82.2858810  39.0998993  82.1823730
  63.5931664  11.7091408  43.2555046  63.5585518  10.9099379  43.7811546
  63.0230484  12.3241854  43.7169342  64.7511139   9.8680868  44.8875847
  65.4289474   9.7074623  44.2311058  65.0498886   9.3913231  45.6619644
  60.9214439  71.5137024   3.2598157  61.7331238  71.0162048   3.3593376
  60.5752525  71.5876236   4.1491523  27.3987484  63.1158447  14.2798872
  27.5446587  62.7280045  15.1427450  26.9412346  63.9369659  14.4606342
  74.6234436  55.2428703  81.5242386  74.9045639  56.1111145  81.2355270
  73.7459793  55.1403885  81.1557541   2.5199013  10.8865576  45.0291367
   2.9087579  11.1086159  45.8751335   2.1027265  11.6970758  44.7371445
   8.6078882  28.5826263  79.0111923   9.4606247  28.9842453  79.1778412
   8.0121670  29.3233547  78.8986282  23.6207981  26.8461742  74.2857513
  23.7027378  26.8163853  75.2389679  24.5180912  26.9575272  73.9715881
  53.3644447  30.7812061  21.3341961  53.7631760  30.4929104  22.1552505
  52.6044998  30.2098541  21.2234058  50.3639565   4.0201759  75.9023285
  50.0202026   4.7634411  76.3979263  49.8712959   3.2668164  76.2278519
  10.9782085  70.8602524  76.9994125  10.6627979  71.7547684  76.8706055
  10.2219849  70.3873367  77.3468475  43.9870872  32.9871712  16.4382210
  43.6637917  33.7740707  16.8769684  43.2786140  32.7349205  15.8460503
  16.7205467  71.2020721   0.6179734  16.1200562  71.8770370   0.9343148
  16.8726997  71.4278641  -0.2996871   6.1437697   6.4501424  74.9908905
   5.4946747   6.0207748  75.5481567   5.9789090   7.3857002  75.1082916
  12.4996443  52.0681725  78.1618500  12.2180109  52.2395058  77.2632065
  12.4657688  51.1152687  78.2459030  27.0505886   3.1087306  69.9722748
  26.6625175   2.2847638  70.2667389  27.8617973   2.8488677  69.5356522
   1.3342154  71.1326752  74.5441132   2.0952544  70.6429520  74.2323151
   0.7806947  70.4737778  74.9632721  64.0398560   9.1275120  19.8447914
  64.7499237   8.4944210  19.9508228  63.2556152   8.6575060  20.1281414
  80.8604355   7.5047712  83.9534225  81.6776657   7.5110898  83.4550934
  81.0301895   8.0803432  84.6991653  49.7005081  56.9081230  65.9048386
  49.6860542  57.3885651  65.0770721  48.8136940  57.0030365  66.2523727
  81.5240326  64.6483078  47.8246613  81.9229050  63.8691902  48.2120972
  80.7165146  64.7766342  48.3223228  21.8390179  11.6808386  51.4467773
  21.0416088  11.3653345  51.0215378  22.3733883  10.8957396  51.5663567
  14.8333626  53.3145332  68.2152023  14.0746355  53.6103592  68.7182465
  15.5842276  53.7051392  68.6622620  63.7649345  24.6683445  75.4265213
  63.0501251  24.5654907  74.7982712  64.2751999  25.4050865  75.0902634
  76.6874466  70.1665955  44.3051109  76.1385727  69.5872803  44.8336525
  76.6374512  69.8031082  43.4210243   4.6865602  19.1762085  20.1026917
   4.8565946  20.0429249  19.7337437   5.0350947  19.2223015  20.9929905
  73.3515854  24.7200489  53.2817955  72.7101974  24.1251526  52.8932762
  73.0784378  24.8032551  54.1954117   8.7851601  34.6623878  42.4975357
   9.1251316  35.4375648  42.0505981   9.4973278  34.3871574  43.0748520
  42.5605392  65.8524933  40.1895332  43.5119705  65.7655716  40.1307831
  42.3164597  66.3471298  39.4072304  48.5600777  27.2814655  75.3218842
  49.3998680  26.8750648  75.5359421  48.4409447  27.9531193  75.9933853
  62.6642456  23.1737232  33.2391357  62.5327187  23.2235641  34.1859436
  62.0204544  23.7816505  32.8755608  54.9869003  16.4092503  17.3467216
  55.1239204  15.4621487  17.3253441  54.0370178  16.5150776  17.2942181
  21.3323326  54.0386009  83.0631790  20.8232803  53.3021202  82.7245178
  20.9617214  54.8062706  82.6277924  68.5493317  63.2641563  67.8061447
  69.0355988  62.4450836  67.9004898  68.8134384  63.7879753  68.5625153
  54.5705070  54.8779373  70.9599075  53.9567909  55.5762024  70.7318573
  55.3222389  55.0226440  70.3852768  60.0700302  63.1050720  62.9574890
  59.6979752  63.5227547  63.7342415  60.4024162  62.2648468  63.2733574
  22.2723522  17.6119270   2.9162788  23.1655979  17.7258015   3.2408981
  22.2829285  18.0043373   2.0432761  70.6895142  48.3843613  14.0068388
  70.4865494  48.3462906  14.9414978  70.9176712  49.3003693  13.8484049
  57.3178482  24.1081238   0.8999949  58.1167717  24.6112309   1.0575918
  56.7989502  24.2272472   1.6954750  36.3320503  51.0399666  16.0758667
  36.2554436  50.1902351  16.5098228  37.2659264  51.2461014  16.1160641
  23.0367718  44.0802193  84.4521408  23.6142063  43.4220543  84.8389511
  22.6210194  43.6312103  83.7160873  85.8911209  63.6443405  30.6998444
  86.0970840  62.8213196  30.2566223  86.0914230  63.4770699  31.6207848
  44.9881821  13.9720135  62.6639481  45.3961029  13.6951389  63.4844170
  44.6408043  13.1646729  62.2847862  39.8918266  61.9511070  59.6442795
  40.0035934  61.7382431  58.7177658  40.5382805  61.4074783  60.0946045
  47.2326660   6.1836195  43.2743454  46.5034981   6.4040365  42.6947212
  46.8323402   6.0931497  44.1390915   0.2987690   1.1355711  79.1409454
   0.2176557   0.5916644  79.9244156  -0.4677810   0.9113955  78.6133270
  34.8935928  35.4083557   9.8564196  34.6145973  35.8001251  10.6840134
  35.7587471  35.7840004   9.6932297  13.8174324  69.1143570  59.5910721
  13.7191315  69.1671524  58.6403999  13.2273312  68.4080505  59.8540192
  10.5037336  65.1552811  29.9988155  10.0013180  65.9605255  29.8747501
  11.0791044  65.1118927  29.2350750  79.1485291  28.4363251  42.6155052
  79.9349899  28.7965164  43.0253487  79.4048386  27.5571613  42.3369293
  10.6332016  35.1092987  12.6849451  11.2967978  34.4857979  12.3897867
   9.8249426  34.8158226  12.2644444  66.6386490  33.0282173  19.1868687
  67.5957794  33.0383873  19.1926079  66.3999863  33.4206810  18.3470821
   4.4679561  15.2382374  80.4189529   4.2006397  15.4997692  79.5378342
   5.2780066  14.7456083  80.2871704  78.2204132  25.1590881   1.1665698
  78.2881241  25.9595642   1.6870376  79.1241989  24.9492569   0.9312280
  50.7379494  64.3456268   2.2583930  51.3478050  63.8272018   2.7833202
  50.9697876  64.1428986   1.3520890  78.0548553  40.8470993  68.7481232
  77.6515274  41.4912834  68.1662445  77.3465881  40.2390289  68.9598770
  23.0886002  20.5615807  65.2992630  23.8598671  20.1579056  65.6972961
  23.4397411  21.2750683  64.7664719  15.5523367   3.5101986  68.8450394
  16.3829212   3.0414989  68.7633057  15.7845688   4.3372488  69.2672806
  22.4092312  45.5609474  73.6781311  21.5465736  45.8998718  73.4390106
  22.3484955  44.6187592  73.5205765  15.5194044   3.8719976  12.6506281
  14.5653191   3.9012578  12.5792379  15.6841965   3.3959794  13.4645586
   9.0995998   2.2409818   1.5156006   9.9235477   2.2645116   2.0022087
   9.2120237   2.8916667   0.8226344  59.6151276  54.6443939  54.7931442
  60.1760941  55.3407059  54.4515305  58.7239876  54.9657288  54.6558876
  18.7814159  16.1042023  74.8138657  19.1816692  16.0724030  75.6827850
  18.3889599  16.9757481  74.7626953  19.8349419  70.7259293  77.7342682
  20.2870502  70.8519363  78.5685043  18.9306278  70.5297775  77.9791641
  68.6751709  51.1817055  82.0259171  68.1337662  51.4995995  82.7484512
  69.4846878  50.8885193  82.4441833  47.3724289  54.2801781  48.6933060
  46.4492073  54.5272522  48.6399231  47.8328514  54.9691887  48.2142410
   8.0183182  35.9092331  26.4635162   8.1065073  35.7494125  27.4031506
   7.1512780  36.3033638  26.3679390   6.9145594  57.0265198   9.5755949
   7.3610406  56.4137688  10.1599083   6.1538067  56.5414734   9.2558823
  59.5815773  41.5453987  85.8651199  60.2559090  41.2636566  85.2469559
  60.0531464  42.0723724  86.5102234  76.4761581  33.7432442   6.6373286
  75.6930466  33.3190727   6.9881010  77.0051270  33.0231743   6.2939343
  65.0656738  45.2171593  42.2651062  64.3236847  45.5303841  41.7478256
  65.1535568  44.2950325  42.0238876  59.1728363  34.1272774  65.2207565
  58.5451698  33.4158134  65.0939178  58.6410332  34.8657990  65.5174103
  67.2065811  55.9727821  61.3588562  66.9811859  55.1737709  60.8823967
  66.5761490  56.6226959  61.0483704  58.6796989  64.8303375  61.1087685
  59.5093231  65.3067322  61.0771217  58.9021835  63.9879913  61.5052414
  61.6645012  52.1626091  12.6663542  62.3873558  52.7771683  12.7929697
  61.3464851  52.3457565  11.7822971  16.8569984  32.2417068   7.4154973
  16.0802460  32.7572708   7.1985159  16.8148823  31.4866238   6.8287210
   6.4469314  38.9696579  27.4438248   7.3472753  38.7095718  27.6386795
   6.0411668  38.1794090  27.0873260  27.6407185  50.3664742  66.7944183
  27.2716160  50.7796402  67.5749817  28.0516052  49.5652390  67.1191101
  53.3568954  63.0439491  54.0942764  53.3053398  62.6993065  53.2027626
  52.6445923  63.6812515  54.1462517  83.2715607  63.1501770  10.5148802
  83.8356323  63.1468239   9.7415466  83.5320282  62.3701363  11.0047045
  48.2268562  44.2034187  46.0106506  48.9426651  44.7561684  46.3242035
  48.2555885  43.4310951  46.5753746  19.5599499   3.1752841  39.5743408
  19.1412907   3.3238139  38.7264671  19.2502003   3.8952661  40.1238098
  44.0416260   2.2167397  55.6688805  43.5138702   2.4017673  56.4457169
  44.9250488   2.4980390  55.9069290   7.3970923  70.5453491  66.3321075
   6.6984372  70.8802567  66.8942032   8.1634798  71.0696716  66.5644150
  17.3195496  26.5053673  82.5428619  16.6743336  26.0482502  82.0034485
  17.2042942  27.4296856  82.3224487  11.8061152  11.6478376  78.0991821
  11.5269909  11.8170652  78.9990082  12.6873550  11.2843933  78.1861115
  62.8990021  62.1238441  12.9622059  63.3699379  62.5459061  12.2436543
  63.3830681  62.3781090  13.7478666  62.4783516  69.6229248  23.5999012
  62.2650871  70.3662872  24.1639557  61.7470818  69.0163574  23.7163506
  17.6050472  39.0244293  80.2528229  18.0851994  38.2105408  80.4053802
  18.1442947  39.5067711  79.6260910  68.3573074   5.1643071   9.9346476
  68.1413574   5.5994163  10.7594376  69.0581894   5.6971707   9.5590839
  67.2175369  68.7431335  63.0422325  67.7914658  69.3631897  62.5923805
  66.4766998  69.2728577  63.3368301  27.2668095  43.7428474   1.6063491
  27.6946793  43.2802353   0.8858286  27.9576950  44.2854958   1.9864019
  37.4224777  29.0636730  10.0371466  37.4646187  29.7008839  10.7501812
  36.7830658  28.4155369  10.3326216  54.6846848  41.9510460  69.5588379
  54.3984146  42.8408051  69.7652588  53.8919373  41.4202690  69.6366425
  57.8342171  49.6710663  43.1319656  58.3937378  50.4462051  43.0837631
  57.5790558  49.6167488  44.0529289  46.3876610  40.7048798  19.8804016
  46.3901367  40.4825783  20.8114262  47.2780457  40.5131187  19.5860004
  29.3338223   1.8077306  27.2481403  29.2671204   0.8599958  27.3646812
  29.7164860   2.1233685  28.0667820  12.0727911  46.9020386  14.1212683
  12.9817686  46.6171150  14.2151318  12.1315794  47.7478943  13.6770773
  48.1501923  12.7437820  61.5401917  47.5015030  12.2992792  62.0859451
  48.9673805  12.6726913  62.0335274  11.9956398  71.3219376  20.6871643
  11.7374411  70.5015640  20.2669849  11.1739130  71.6990356  21.0014763
  73.2636032   4.0528760  62.3871918  73.0830231   4.5780001  63.1668510
  72.6072540   3.3565223  62.4101334  65.3891907  32.7135468   0.5354763
  65.1581650  32.7762833   1.4622571  64.9177704  31.9413700   0.2228570
  86.6387405  49.7461395  71.2822876  86.0374222  49.5654755  70.5597839
  87.4173508  49.2268486  71.0814438   1.4527786   3.0099003  29.1149216
   1.9337583   3.4233563  29.8318214   0.7197027   3.6016657  28.9456711
  72.4198914  45.6951218   9.6104841  71.7817993  45.4337120   8.9466000
  71.9189606  45.7247772  10.4256048  19.9308186  36.6602135  20.2231541
  19.2947941  36.0172081  19.9097061  19.6066895  36.9164696  21.0865803
   0.2782944   1.8220705  73.7696152   0.8260663   2.3955777  74.3055878
   0.4045992   0.9507208  74.1451492  27.5371971  58.9946747  54.8151665
  28.1268425  59.6579323  55.1738281  26.7839279  58.9993172  55.4057579
  50.2894402  22.0732441   8.9934626  50.1160011  22.9154816   8.5730047
  50.5085411  22.2976303   9.8978281   2.4377880  71.0009232  47.0640564
   2.0269418  71.8496399  47.2287369   1.7058576  70.4122467  46.8797531
  85.0067444  65.9382935  23.6278286  85.7334976  66.0774384  23.0206165
  85.4210663  65.8850632  24.4890728  76.6303024  46.2262421  17.5200806
  77.4576340  46.5926056  17.8323860  76.8659286  45.3673515  17.1693363
  48.7568092   2.4430730  43.4500008  49.3679924   3.0771079  43.0749207
  49.2217331   2.0789714  44.2033310   9.5753193  19.0189533  69.9496231
   9.0290108  19.7798634  69.7526550   9.4253130  18.4205151  69.2177734
  68.5870056  62.6442871   7.6908317  68.2109451  63.1853638   8.3851271
  68.8591080  63.2705116   7.0199857  47.8039360   1.4010066   7.6596837
  47.4099159   0.8833069   6.9575663  48.7320595   1.1679600   7.6371961
  80.3726807  48.8616219   3.9862196  81.3091660  48.6696472   4.0349813
  79.9966965  48.4142609   4.7443299  43.5462875  33.3244209  68.9157104
  43.7610512  33.9737892  68.2460632  44.2853394  32.7162056  68.9052963
  59.1333237  42.3343849  34.0177574  58.6631851  41.5317764  33.7918739
  58.6573105  42.6872978  34.7694855  80.4060440  64.0742035  41.4237137
  81.0914230  64.6953888  41.6699295  80.6728210  63.7520485  40.5627403
  31.7013073  20.4571438  68.9289474  31.8488846  19.6019897  68.5250092
  31.4798965  20.2573853  69.8385162  29.2713718  51.1336594  44.8827438
  29.3481636  51.9390030  44.3711166  28.3368378  50.9272957  44.8657417
  47.6679192  63.4706879  42.4921646  46.7787132  63.4631653  42.1379128
  47.6776009  62.7571983  43.1301842  71.9655914   7.8138032  67.1575317
  72.2391815   7.7236233  66.2447052  72.6718979   8.3098955  67.5713654
  44.1949425  52.4273643  73.3890991  43.7082634  51.6213570  73.5615082
  43.6055527  52.9517250  72.8469772  83.4116669  62.0341148  60.6098328
  83.4378204  61.6667404  59.7263260  84.3056335  62.3363914  60.7700920
  37.7892685  12.9221983  81.3926544  38.0823517  12.1391554  80.9266357
  38.0234871  12.7589083  82.3062820  71.3480225  35.2673645  60.9188156
  70.9482880  35.2367096  60.0496178  70.8926010  35.9801445  61.3668861
   4.7864118  52.8128471   5.0883222   4.6553588  53.7261162   5.3432584
   4.3508315  52.7362785   4.2394176  65.3832779  68.3599701   8.6669302
  65.6571350  69.1660919   8.2294312  65.6859283  68.4624481   9.5692234
   9.6653385  66.3612823  84.6854630   8.9313040  66.7711258  85.1431274
   9.5169868  66.5669022  83.7624588  25.0608311   1.5768845  38.1016083
  25.4238529   2.4076905  37.7946777  24.6353741   1.7933533  38.9312859
  83.1559143  58.9977112  65.4749832  82.9256134  59.0463448  64.5471725
  84.1050110  58.8735008  65.4799881  57.1435699  57.9662399  81.5135422
  58.0089722  58.2080154  81.8434753  57.2854538  57.7754135  80.5863495
  80.4676743  28.8564930   2.5323186  80.6129303  29.6555023   2.0256476
  81.3111496  28.6806202   2.9492686  24.3443794  52.7175064  16.2820625
  24.3427982  53.6297455  16.5719700  24.3025093  52.7695732  15.3271971
  84.4167862   4.1776824  30.5224400  84.9702225   4.6168776  31.1682281
  83.5516739   4.5693507  30.6424637  82.8419495  39.7157402   5.7336769
  83.5008545  39.0261497   5.6528444  82.1815414  39.4941292   5.0771852
  64.0109329  71.3450165  48.4966621  64.4627686  72.1412125  48.7762032
  64.2261353  71.2610855  47.5677490  24.0273495  66.5107498  60.0433884
  23.2887821  66.7650299  59.4901314  24.0822449  65.5599518  59.9475060
  49.7429657  57.0844917  22.8328362  50.1634598  56.3728943  22.3500843
  50.3784714  57.7998199  22.8068581  47.8797684  65.9364166  20.9127598
  47.5684395  66.8344040  21.0264339  48.7481689  66.0317001  20.5215664
  13.0097466  71.4622803  87.9573669  12.3152399  72.1036758  87.8073578
  12.5658321  70.7201462  88.3677521  15.5635271  36.2764206  58.7987251
  15.7494621  35.3957825  59.1245117  16.3035355  36.8040924  59.0990295
  49.6224937  38.0701485  59.0728378  49.7874603  37.8396606  58.1585655
  50.2220192  37.5151978  59.5716705   1.0696884  43.1928520  72.4409180
   2.0131032  43.3489189  72.3979797   0.7079250  43.7133942  71.7237015
  39.3812523  63.7934113  61.6583633  39.7715950  63.2322006  62.3283691
  39.6658592  63.4096527  60.8289299  59.3314323   8.4152975  67.9699631
  60.0104256   8.5610209  68.6287231  59.4107819   7.4882426  67.7452316
  66.8308411   7.5198708   6.6489124  66.9206314   8.4676685   6.5496655
  67.5703659   7.1568861   6.1615000  62.3035927  11.8490610   5.7220979
  62.6856079  11.6332235   6.5728083  62.0564880  12.7707443   5.7974119
  63.7976303  52.2432137  54.3189430  64.1426926  52.6070786  53.5036125
  62.9385529  51.8945351  54.0809517  49.1027756   0.3139189  33.8184166
  48.8808174  -0.4812902  33.3340492  48.3218193   0.8629330  33.7482567
   0.4982171  43.6789818  39.0189781   0.9565002  43.9204102  38.2140427
   1.0574307  44.0104141  39.7215919   3.9107780   1.1286682  62.5864410
   3.5009604   1.9556483  62.8401833   3.4594254   0.8747731  61.7814255
  50.2210007  13.0840588  27.4559784  49.8579025  13.4893160  28.2434788
  49.8379478  13.5805025  26.7327595  68.9228210  70.3499146  27.1943417
  69.5375519  69.8936615  27.7689476  69.0108643  71.2725067  27.4337254
  68.2513275  63.8438911  65.1169052  68.3001099  63.9394150  66.0680771
  68.1666031  62.9010811  64.9749069  67.9247894  11.7475758   7.4863276
  67.3906631  12.3231134   8.0337753  67.2900314  11.2031422   7.0206013
  53.4663277  30.4731541  76.2219772  53.4650726  30.8244305  77.1123886
  54.3718147  30.2007618  76.0732346  76.9197235  21.6202316  42.3489494
  76.7681503  20.7429504  41.9973335  77.0891190  21.4789715  43.2803917
  81.5338516   1.7557521  26.7500477  80.9902573   1.2212746  27.3289013
  82.3052826   1.9688134  27.2751541  71.4987411  35.0741692  39.8307953
  70.7137833  34.5530128  39.6620522  71.5173874  35.7158737  39.1207962
   0.7072839  57.9970093  28.8885365   1.2017133  57.4545746  28.2740955
   0.1757363  58.5658951  28.3317089  28.2477036  47.4679642   6.1396809
  28.2223282  47.5011597   5.1833930  27.7289543  48.2222252   6.4193678
  56.5959663  56.5987320  69.7211304  57.3268700  57.0351410  70.1588135
  56.8878593  56.4925766  68.8157272  16.5329418  48.5182152  64.4906769
  17.2022038  47.8876228  64.7565231  15.8011532  48.3561020  65.0860214
  68.2529144   3.3278885   6.2342134  67.5433502   3.8850508   6.5540833
  68.5451202   2.8447845   7.0071683  21.2004700  52.4990807  65.0148315
  21.0718842  53.2891083  65.5397568  22.0341129  52.1414986  65.3204575
   1.3114243  52.2849426  56.7268333   1.9493823  52.9980774  56.7007484
   1.8119086  51.5267639  57.0283508  59.2153931  59.4221115  66.1190262
  60.1288948  59.4402962  66.4043579  58.7652245  58.9082870  66.7895203
  71.9814529   8.3783655  40.5706100  71.2879410   7.7804089  40.8494034
  72.7713470   8.0435848  40.9951286  30.6515369  19.5218945  88.4411240
  30.6671124  18.7527161  89.0106430  30.0553970  20.1307507  88.8771744
  16.1978779  13.7018547  86.7688446  17.1126728  13.6305113  87.0414047
  15.7000713  13.3479958  87.5058670  47.6244392  37.1523132  37.2790680
  48.4470177  36.9636841  36.8273888  46.9494362  36.7750320  36.7149239
  67.4307709   7.0629811  79.6791992  67.5245438   6.1324205  79.4754944
  66.5950699   7.1238370  80.1419449  62.5422173  60.6073532  42.4540672
  61.9496346  59.8675423  42.3208046  62.4230118  60.8471909  43.3730316
  33.6489449  25.2069263  86.6857224  33.2472000  25.9919510  87.0579758
  32.9611130  24.8195934  86.1443405  26.2349682  30.2526569  80.0676346
  26.7593269  30.6287251  80.7746353  26.3169842  30.8796425  79.3490295
   2.7407870  31.4201813  48.3964996   3.1869478  32.0093460  49.0048218
   2.1018584  30.9562359  48.9375687  80.0576477  25.4816151  57.4013176
  79.1424179  25.2109547  57.4743538  80.4588699  24.8198929  56.8379593
  41.8057938  49.9137154  52.4021072  41.0847931  49.2875977  52.3360481
  42.5909348  49.3938942  52.2301369  74.0627213  31.4677067   4.7465386
  73.3821945  31.6126614   4.0891867  73.5857697  31.3967628   5.5734138
  17.3590508  12.5812817   9.9173412  17.0210648  11.7757511  10.3086462
  18.0423698  12.2866964   9.3152390  40.8788071  60.0961380  88.8226242
  41.4123726  60.7524872  88.3745804  41.3372841  59.2698784  88.6698990
   4.4829135  25.0490513  38.6516380   3.9646366  25.8456326  38.5372772
   5.2610836  25.3361340  39.1294098  24.2311401  24.0310345  11.3433809
  25.0772934  24.4655075  11.4505844  24.2399025  23.3264446  11.9912281
  16.4136505  57.9186592  43.8946571  16.5953312  58.3638077  43.0669708
  16.5241070  58.5971184  44.5607834  86.3775558  70.5544815  26.3222275
  87.1366882  70.8415833  25.8147621  85.6365433  70.6609650  25.7257442
  26.9851055  24.5989532  69.1331024  26.5553207  23.7809849  68.8832169
  27.8874035  24.4977226  68.8300476  64.2973480   5.4218478  76.6918259
  63.5167618   5.2663898  76.1600876  64.0625076   6.1621742  77.2512894
  62.7728348  54.2693100  85.5874329  62.8325500  54.2828941  84.6321945
  61.9948387  53.7428665  85.7713089  24.4757652  39.1734962  69.2780838
  24.0566311  39.9116783  68.8357620  25.1040382  38.8368340  68.6392059
  83.0496750  36.2336121   6.2551312  84.0053787  36.2831879   6.2349863
  82.8388138  36.0456123   7.1696959  46.7022209  56.6582718  80.2993240
  46.8149033  55.8088074  79.8727646  45.8341255  56.9518509  80.0228271
  80.5558472  69.1290512  54.9644394  80.9337006  68.8316727  54.1367798
  80.1100769  68.3579254  55.3149986  12.3811741  17.6561413  21.2530937
  11.9721727  18.4066658  20.8222084  13.3180523  17.7691593  21.0927258
   6.2521291  42.1068268  13.6640043   6.3971219  42.9519615  14.0893984
   5.3126240  42.0884895  13.4817257  76.4413528  24.1643543  56.1160240
  75.6939697  23.6540070  55.8042755  76.9800949  24.3006897  55.3366623
  64.6094818  27.3862247  43.3575516  65.2440262  27.5856724  42.6692200
  64.0908585  26.6639271  43.0032272   7.5006709   3.6093671  33.5211830
   8.2762527   4.1661096  33.4523201   6.8357077   4.1728573  33.9168282
  50.0425568  69.0353470  63.6521950  50.5139122  68.5403061  62.9821281
  49.3661461  68.4336395  63.9630661  61.7372818  29.6428604   2.4452918
  60.9839821  29.6602383   3.0356021  61.9670753  28.7161331   2.3774433
  40.6550064  22.0640030  80.2740326  39.8029480  21.6453724  80.1516571
  40.9667778  21.7310867  81.1155777  69.8404083  26.5416622  53.3330536
  70.1448212  25.6395473  53.4318123  70.5231857  27.0712757  53.7448311
  20.2604980   1.6251776  37.1101341  19.7866001   1.5689899  36.2803802
  21.1043606   1.2097090  36.9326134  86.0864792  30.2179775  56.5925713
  85.7427597  29.7842827  55.8115501  87.0357895  30.1154537  56.5252571
  77.1344147  14.5252905  20.8430290  76.2176971  14.6968756  21.0584869
  77.0986481  13.8551798  20.1604576  51.8464012  28.0507679  79.2553711
  51.8570137  28.1621017  80.2060165  52.6694641  28.4396706  78.9594727
  34.3596382  70.1894302  84.0951385  34.0522461  69.3614655  83.7260590
  33.6251984  70.7917709  83.9767532  54.3564949  71.4094925  42.2178307
  54.5356789  72.1989517  41.7070732  54.3141479  70.7081451  41.5677910
  58.6754150  12.1537647   4.9562702  58.5446205  11.2228222   5.1364670
  59.6123886  12.2338133   4.7776456  35.8608093  32.3252563  13.9518766
  36.5890160  31.7043591  13.9310932  35.6384125  32.4644737  13.0313396
  21.3414192  16.2402706  11.5566101  20.6240082  16.0244350  10.9608183
  22.1337242  16.1005077  11.0380039  73.0841370   8.1415005   1.6285273
  73.0612411   8.2507782   0.6778612  74.0116806   8.0243855   1.8338864
  60.2981911  33.4276314   9.9527855  60.4451752  33.0126839  10.8027544
  60.4498482  32.7293205   9.3159227  55.7324295  60.0157890  40.3906975
  55.3420830  60.0646515  41.2633209  56.3919754  59.3257179  40.4616432
   0.1757614  40.3232918  69.2291718  -0.5252697  40.3992767  68.5818634
   0.9663801  40.1766319  68.7098999  49.4072495  18.1366158  81.0600128
  48.6011276  18.6415634  80.9531021  50.0036125  18.4955330  80.4029236
  43.2341423  54.4602089  14.9888916  42.3203888  54.2160683  15.1361322
  43.2024956  55.3950081  14.7854671  15.2226238  60.7473183  48.0923119
  15.4003067  61.5475655  48.5865440  14.3939314  60.9206543  47.6457062
  61.9960327  61.0902977  36.4723053  61.0461731  60.9729233  36.4873161
  62.3467636  60.2384758  36.7323494  74.0672073  65.9519577  17.3299980
  73.5119247  66.5108261  17.8736572  73.4594803  65.3359451  16.9208241
  69.5984573  48.8830795  86.3415070  69.5634232  47.9703140  86.6276169
  70.5256348  49.0436592  86.1660385   5.4077778  71.5172577  43.9381561
   5.4924569  70.5783920  44.1042938   6.1475177  71.9101486  44.4014587
   1.8151326  70.4837418  40.5732956   1.2463571  70.9132843  39.9343758
   1.9497875  69.6040421  40.2208252  18.4578857  61.3709488  42.6010590
  19.1785564  60.7571678  42.7429504  18.8691006  62.2347221  42.6331711
   6.3150654   1.2832156  70.4075623   6.9516292   1.7701784  69.8842239
   5.8016372   0.7932720  69.7652435  52.2998695  14.2189531  54.9492760
  52.4015198  15.1701345  54.9153061  53.0108986  13.8824635  54.4038925
   2.9612556   5.4254527  16.9361115   2.8170962   4.7236338  17.5708561
   3.5867171   5.0585380  16.3112888  82.0485229   9.3551397  11.8791227
  81.7805328   8.9149809  11.0724773  82.9771042   9.1418819  11.9712105
   1.1638571  60.4470825  59.7370033   1.8012860  60.4544601  60.4510498
   1.6445658  60.0894775  58.9904976   5.1242676   9.3619165  39.9439125
   4.6384015   8.5600729  39.7510033   5.7955456   9.0904665  40.5699577
  79.0255814  13.5204048  77.5240097  79.2876663  14.2638512  76.9810257
  78.7507629  12.8511591  76.8972626  57.9982605  38.1639977  38.2701111
  57.0455780  38.0759964  38.2998276  58.1468277  39.0736122  38.0117264
  33.9098625   2.8404291  45.9369659  34.0270576   3.7353806  46.2556496
  33.8351974   2.9322670  44.9871140  49.5559273  39.9604378   6.6711125
  49.5240936  40.8657875   6.3619900  50.4850082  39.7943573   6.8306637
  85.6604233   7.0814071  29.4270935  86.1926956   7.3576941  30.1731415
  85.9744263   7.6159739  28.6977978  60.0673676  33.4968643  36.9836502
  60.3594131  33.2767487  36.0990677  60.5292511  34.3086090  37.1933250
  34.7117386  68.5873260  63.7259216  34.7721634  69.1510315  64.4971695
  35.6055260  68.2737961  63.5877991  37.3534126  34.7461929  85.5946198
  36.7695351  35.4801064  85.4030762  38.0265007  34.7920799  84.9155884
  56.6329765  29.0908241  69.1293259  56.5627327  29.4889069  69.9969864
  56.7481079  29.8318310  68.5344467  43.3464394  67.4137115  89.0273895
  44.0174179  67.4319611  88.3449783  43.2049866  66.4827728  89.1993561
  23.0674286  67.2168427  37.5393753  23.7780190  67.8446198  37.6704750
  22.8456116  67.2964630  36.6116409  10.4917049   2.2510321  82.3663254
  10.9253101   3.1015563  82.2968521  10.4400282   1.9341636  81.4645767
  24.7191067  70.0248337  53.4307137  25.4162159  69.4385071  53.1366196
  23.9903164  69.4421997  53.6443367  25.7786312  48.0282631  28.1782227
  25.8465576  48.9830208  28.1710720  26.1562748  47.7675629  29.0182552
  44.2723846  15.8566933   0.2265598  45.1059151  16.2421684   0.4965022
  44.2915535  14.9693956   0.5851239   8.3405228  12.5027914  84.1359177
   7.4321499  12.7246857  84.3404999   8.7378874  12.3127604  84.9857559
  42.4803886  55.8618774  58.5635605  42.5736732  56.6430626  58.0183296
  42.3757629  55.1445847  57.9384384  72.2452087  70.8172684  34.3650589
  72.5278168  70.6038132  35.2543297  71.2986298  70.9396744  34.4374504
  53.7354355  67.8254318  31.3994522  53.9470711  68.6932602  31.0554771
  52.8065987  67.7086411  31.1998196  66.7577133  63.4532585   3.3417792
  65.8622742  63.5449715   3.6673720  66.8180771  62.5402031   3.0608463
  29.6682720  65.5950012  17.1892319  29.7330341  65.6733398  16.2374439
  29.7606449  66.4920273  17.5102253   1.9282212  68.5494080   4.8053789
   2.5191042  68.6085434   4.0546517   1.6838419  67.6248016   4.8455796
  73.6442719  59.0946541  71.6606522  73.7314682  58.2069206  72.0078659
  74.3443985  59.5885773  72.0873718  64.9673309  70.1381073  63.9981499
  64.4445572  69.8664932  64.7525787  64.3464050  70.1543579  63.2698517
  79.2258377  21.4955978  26.6403961  79.4927979  20.8534184  25.9826946
  80.0241547  21.6761608  27.1367054  48.6555481  62.1158142  29.7326279
  49.6103592  62.0834389  29.6733055  48.4095764  62.8848915  29.2185745
   1.7075320  17.1575451  73.9874191   1.2947524  16.4371910  73.5110474
   1.1576993  17.9173679  73.7961426  41.6599922  10.3175888  72.7311707
  41.5148354  10.8398895  71.9422684  41.1376457   9.5271873  72.5945969
  69.7604141  16.3918629   5.2098966  69.5300140  17.2662315   4.8958507
  70.5946884  16.1962852   4.7833166  76.9111328  16.2360077  25.1218109
  76.9828491  16.2433643  24.1673279  77.3959808  17.0114441  25.4044075
  79.6989670  57.3688011  57.4312096  79.0749054  57.7625313  56.8214951
  79.1546783  56.8811760  58.0494347  45.1304779  67.6893387  38.3591461
  45.5088844  67.0964966  39.0084343  44.7100296  67.1108627  37.7228966
  75.2413635  21.8000298  31.0022850  76.1866074  21.7340717  30.8666935
  74.8592911  21.4818764  30.1843414  15.3359985  62.9629478  20.4208069
  15.0955162  63.4338226  19.6228867  16.2373180  63.2333870  20.5960770
  51.9055481  60.5454750  78.4726486  51.5132256  61.3707237  78.1875458
  52.1194000  60.6878777  79.3947220  58.7418976  53.8537140  63.4874229
  59.1010780  54.0439796  62.6208076  58.3912735  52.9662590  63.4118080
  37.9491730   0.7228479  18.0323505  37.1393852   0.9253439  18.5008278
  38.3266411   1.5778985  17.8258610  41.0411034  54.8338013   9.8169174
  40.8099594  55.6994476  10.1537571  40.2102318  54.4625969   9.5201082
  20.6055336  53.6130371   1.3181052  19.9103050  53.1978531   0.8077003
  20.5419445  53.2082443   2.1831667  43.0366364  27.7586689  10.6306772
  43.4192543  27.8716183  11.5007801  43.6276093  28.2328606  10.0457621
  25.5751400  18.9744720  79.8079224  26.1264839  18.7810059  80.5660858
  25.4001522  19.9133320  79.8723602   0.2410811  24.9855595  51.5706024
   0.5190764  24.0951042  51.3560333   0.9920548  25.3681335  52.0243721
  85.4670944  62.7035637  45.1905975  84.8877716  63.3720016  45.5563965
  84.8783646  62.0003891  44.9164124  62.6143951   6.4529786  35.0987778
  61.8043785   6.9607792  35.0514488  62.5127106   5.7768574  34.4288902
   5.7630887   8.0550947  48.2943382   6.1426702   7.4161525  47.6910934
   4.9020262   8.2510595  47.9250107  28.9747715  11.6648140   7.8231759
  28.4408779  12.2142010   8.3970785  29.8543301  11.7107010   8.1980114
   9.4434042  56.7218018  55.0645790   9.6751022  56.9460602  55.9658279
  10.2844763  56.6275406  54.6174240  40.7453156  38.7329788  68.9069977
  40.1241875  38.0049744  68.8859253  40.1992950  39.5103607  69.0243454
  69.4117889   7.5370588  53.0616608  69.7419968   8.4320564  52.9830666
  70.1925125   6.9871187  52.9962883  23.2910233  10.4823017  58.8832588
  23.9841919  10.9612341  59.3375397  23.1578064  10.9683294  58.0694618
  69.4973373  61.3286705   5.5096364  69.0377426  61.5229263   6.3265028
  70.1782455  60.7044563   5.7605209  35.8367996  23.1621113  16.3031673
  35.7730255  22.4473553  16.9366398  36.6518135  22.9916821  15.8310070
   4.1763220  61.8885651  84.7715836   4.5776148  62.5495720  85.3357391
   3.3026595  61.7576141  85.1400909  52.8193550  49.6543350  16.0264015
  52.6814880  48.7647896  15.7009277  52.0095749  49.8679695  16.4899178
  49.1733093  69.1850891  28.1613312  49.9271431  69.0681915  27.5831451
  48.4483681  68.7662582  27.6973572  84.6309814   1.2258556  74.5539169
  84.3930206   0.3234519  74.3411407  85.4219055   1.3922670  74.0411072
   5.4982772  71.0083618  87.8082275   4.8601475  71.5983276  88.2094345
   4.9785810  70.2640228  87.5047379  10.6129932  66.0216827  54.5644646
  10.0539312  66.6205978  55.0594292  10.0791426  65.7607422  53.8140335
  63.4178047  70.7144852   4.0178733  64.0943222  70.0667038   4.2151980
  63.9036217  71.5135574   3.8136575  59.9708176  49.1491203  40.6025887
  60.2402534  48.9980049  39.6966095  59.0309715  48.9677124  40.6063919
  80.9087524   2.8892434  49.1934814  81.7208557   2.4527490  49.4507484
  81.0337601   3.1019528  48.2686272  44.0223770   3.2627540  80.9195023
  44.4191322   3.7589297  80.2035217  44.2928085   2.3580539  80.7626038
  77.9811249  55.8559723  17.6633396  78.4676208  56.0314751  18.4687901
  77.7355728  54.9330788  17.7281132  14.0077114  15.3961296  18.6722507
  13.8607607  15.8416424  19.5066109  14.8251944  14.9144859  18.7986317
  68.3534775  25.5484638  51.1425667  68.7651291  25.9907169  51.8849869
  67.4734421  25.9224472  51.0989418  67.1105576  40.1575089  54.5498161
  66.7840729  39.3389244  54.1762466  66.6249313  40.8415985  54.0889244
  39.4666862  41.0995178  69.7332535  38.5878296  41.2003174  69.3676300
  39.9363556  41.8830376  69.4473495  18.6477604  23.7047443  82.4910202
  18.2585926  24.5435581  82.2436829  19.5301590  23.9281368  82.7871628
   8.6963177  41.2616692   2.0553863   8.8884354  41.9223137   2.7208717
   8.8337793  41.7134018   1.2227552  44.5017662   5.9910903   5.9523740
  44.2254829   5.0780849   6.0318675  44.2430840   6.2432985   5.0659733
  57.5250549  57.6484337  36.8976059  56.7852249  57.1157990  37.1894722
  57.9717827  57.1034012  36.2498360  82.2084885  10.6848364  78.1915741
  82.0542145   9.8879519  78.6989288  82.7955093  11.2070122  78.7383652
   7.4889207   8.9568710  80.0745316   7.4005327   8.8565035  79.1267242
   7.5704031   8.0617170  80.4036102   1.3824024  13.3586397  44.6591911
   0.9326659  14.1848269  44.8363457   2.2756820  13.6162605  44.4313431
  72.1100922   9.2874489  23.3544121  71.7638245   9.1408501  22.4741611
  72.8557816   8.6909895  23.4208660   0.6678518  56.9582443  53.9177628
  -0.2018882  57.3413086  53.8035431   0.5448226  56.0264206  53.7366676
  29.4596062  43.4004936  82.3504257  29.1374855  43.2283783  83.2352066
  29.5046940  42.5370407  81.9397583  13.0302057  44.8547287  58.2232170
  12.7526703  45.4413109  58.9268684  13.4195538  45.4339409  57.5681190
  18.5549412  32.5886497  85.7066879  17.6102982  32.4371681  85.6760864
  18.7075806  33.2803230  85.0628586  53.0745277  18.7911777  65.1799011
  53.2400169  18.0167122  65.7175293  53.7426262  19.4197655  65.4533157
  52.0461998  46.9670448  84.3953094  52.2401543  46.3421249  85.0939484
  52.4732475  47.7773170  84.6733780  27.8294716  42.6816978  84.5126114
  27.3521690  43.0109520  85.2741928  27.2141285  42.7753906  83.7854233
  25.8416195  44.2672997  83.3980103  25.0680141  44.0035820  82.8997955
  25.8895588  45.2161713  83.2814713  69.9983749  49.0309181  89.1528778
  70.4745026  49.7287178  88.7027664  69.2468872  48.8507805  88.5880356
  32.9901619  58.5008736  20.4141655  33.8561478  58.8408241  20.1889305
  33.0201530  57.5794525  20.1566429  73.4234390  66.9789505  10.2363787
  73.6382523  67.0426483   9.3057728  74.2726593  66.9324570  10.6755819
  32.8005371  62.8354988  55.4631310  32.7941475  63.4315186  54.7141647
  33.6457253  62.9900665  55.8850250  66.3441772  35.1524086  78.4470215
  66.5849915  34.8908997  79.3357544  67.0057831  35.7985077  78.1998978
  61.4963722  43.1999207  35.8773193  61.1857033  42.8798866  35.0303841
  61.6189766  42.4087715  36.4019928   6.1005578  12.8411646   7.5371556
   5.8608837  12.2571039   8.2566423   7.0573015  12.8640747   7.5558176
  52.8953934  64.9305115  38.0494423  52.4096336  65.0280075  37.2304382
  52.6498451  64.0633087  38.3717690   1.1715873  25.5243969  13.5496759
   1.5720775  24.6555786  13.5812044   1.0451185  25.6961136  12.6165361
   9.8675785  36.5788956  54.1213913  10.2399321  35.6977463  54.1555290
   9.9285717  36.8997154  55.0211601  73.4880905  50.4831581  45.7670174
  73.5833969  50.0202026  44.9346581  73.6360168  49.8116264  46.4328918
  40.1841965  28.2568493  82.1392212  39.8887901  28.4020844  83.0380402
  40.2616348  27.3058147  82.0632782  67.9030151  13.2387209  41.6879082
  67.1364212  13.7965679  41.8197289  68.2766876  13.1344709  42.5629692
  12.1949587  52.0561790  23.5507870  11.6346045  52.3438644  24.2715321
  12.7192955  51.3472862  23.9233055  16.9098778  59.7216377  20.2932358
  15.9916172  59.8292198  20.0453281  17.2969418  60.5868568  20.1597805
  41.7632179  67.4453049  55.7620583  42.6641960  67.1982498  55.9704742
  41.3873062  67.7105026  56.6014595  56.0905495  58.1550293  67.4416885
  55.3912239  58.6415825  67.0052948  56.3933678  57.5290794  66.7838669
  69.7538147  56.5694733  26.0980015  70.6549988  56.3544998  26.3385887
  69.6658401  56.2587128  25.1969337  54.2246437  71.2068176  82.0026932
  53.6201630  70.8822174  81.3352585  55.0784912  70.8629913  81.7400970
   3.4272525  70.1708374  35.1958580   4.2685528  70.4148636  34.8099861
   3.1018548  69.4665833  34.6351624  38.0381241  35.2553177  12.3096170
  38.4228783  35.5725441  13.1266651  38.5101700  34.4440918  12.1216974
   0.0993250  53.5957451  86.3236694   0.2198533  53.0065727  87.0683746
   0.9775001  53.7024040  85.9580688  27.0685158  42.5527191  53.4662018
  27.7258053  42.1306152  54.0194054  26.2316189  42.2276192  53.7980843
  30.4807796  40.2669716  63.9974976  30.3141289  39.8345947  64.8350601
  30.1692066  39.6445198  63.3404503  30.2824860  48.5428391  63.8738251
  29.4027576  48.3149605  63.5731926  30.8637085  47.9802475  63.3620605
  40.5959358  61.6077538  19.3495045  41.3523407  61.2049103  19.7758827
  40.9676704  62.1005554  18.6179371  81.8837433  44.9220657  24.8692226
  81.4236145  45.1381798  25.6802769  82.1661377  44.0152664  24.9883862
  82.4347229  37.6717834  47.8761520  83.3109131  37.9911537  47.6604462
  82.5878983  36.8581009  48.3564529  76.1580734  10.2399206  20.4556522
  75.2702637  10.5857267  20.3637600  76.0805588   9.3153715  20.2202129
  48.3313332   5.3297839  20.5338306  47.7333488   5.8033090  19.9555378
  49.1154938   5.8776469  20.5680218  63.2863274  62.7162285  88.5473404
  63.1405487  61.8564415  88.1526871  64.2347565  62.7676086  88.6659927
  70.4069366  33.4306335  43.5781555  70.5917206  33.2945824  44.5074425
  70.2837067  32.5487976  43.2268524  17.3541126   4.3190198  34.6875992
  17.9584198   4.8618526  34.1812592  17.5379887   4.5429382  35.5998917
   5.3858314  32.9043884  43.5477715   5.6795459  33.3959122  44.3148193
   5.9908123  33.1619835  42.8521614  62.9435616   1.0124831  18.8265457
  62.7377014   0.7708179  19.7295685  63.2325058   1.9233260  18.8822918
  65.5541229  68.0031204  50.5298424  66.1058350  67.2211151  50.5475464
  66.1070099  68.6945877  50.8937340  49.2813072   7.1677184   0.7058581
  49.1846199   7.1324639  -0.2457936  49.7421875   6.3592453   0.9298924
  38.0872345  34.2863350   5.3280153  37.4708023  35.0160789   5.3889685
  38.5840378  34.3235588   6.1453485  26.0248451  57.3312416  86.9039154
  26.0513554  56.8715515  87.7430878  26.9193535  57.6467476  86.7752914
  41.7022858  67.2303085  70.5360031  42.3335609  67.9434509  70.6316681
  41.1926689  67.2512894  71.3459930  79.3090820  61.6919403  79.6295013
  78.4780350  62.0538635  79.9370880  79.3962097  60.8612328  80.0970078
  84.3439865  59.3145714  44.5533104  85.0641632  58.8781319  44.0982399
  84.3935165  58.9857140  45.4508820  13.0692949  21.0306816  74.2577057
  12.1893873  21.1743851  74.6060562  12.9550247  20.3545589  73.5898514
  76.9124222  37.8446121  36.1482925  77.2026138  36.9442253  36.0022583
  75.9961395  37.7611122  36.4122810   4.4203448  20.7654457  30.5524883
   4.8543282  20.4224720  29.7712975   5.1151590  21.2127686  31.0355682
   1.1466532  10.8839512  20.9841499   1.4001262  11.7554960  21.2881107
   1.6580043  10.2831469  21.5261707  44.5833778  22.0388317  17.4181786
  43.9611816  21.3707485  17.7058697  44.1587982  22.8695831  17.6322231
  81.4314804  22.1580162  48.9345818  82.2012177  22.6998730  49.1081505
  81.6367569  21.3142929  49.3373528  45.3496628  31.1305256  82.4161606
  46.1391983  31.1311226  82.9573288  45.2833557  30.2329655  82.0902481
  10.6757202  17.4436169  31.7733746  11.0810957  16.6291428  31.4758320
  10.8828459  17.4871635  32.7068825   5.1201611  50.9911613  66.5707626
   5.7372360  51.5119934  66.0567703   5.2984900  50.0864182  66.3141098
  76.0971298  22.2725296  82.4636688  76.7001343  22.9834652  82.6809006
  76.5885010  21.4741745  82.6571121  39.0271187  44.6641922  23.2162285
  38.2953835  45.2796021  23.1708508  39.8023376  45.2013512  23.0527363
  51.7499542  37.0312767  84.6438522  51.0271378  36.4652748  84.9148026
  52.2023621  37.2487373  85.4588776  82.6673889  46.9095306  17.6318417
  82.2474518  46.0500641  17.6665516  83.4294052  46.7811470  17.0669765
  40.6793518  54.1740379  68.0025330  41.2265511  54.1697235  67.2171707
  40.1477623  54.9657326  67.9197159   2.2165947  40.6651344  83.1831284
   2.2832205  41.5757980  83.4703293   1.4711157  40.6572685  82.5827637
  85.0436020  66.8388138  73.8404770  85.8505173  66.7194290  73.3396225
  84.5742874  66.0106964  73.7395096  60.9075699  19.1283836   1.3757644
  61.7447357  18.8361816   1.0152037  60.7444725  19.9703293   0.9506047
  54.2666435  22.1936531   9.5063648  54.3397408  21.4146309  10.0577393
  54.3717880  22.9268970  10.1126070  47.7865105  56.5884209   1.8336489
  48.6464806  56.1812172   1.7293903  47.3290405  56.3948021   1.0154394
  46.4840546  68.0931320  70.8699722  46.7281151  68.3218307  71.7668381
  45.8596764  68.7710190  70.6113968   7.2635407  51.8846931  51.4624023
   6.9611950  52.1946945  52.3160515   6.5918436  52.1811676  50.8482704
  26.9987278  71.3855896  38.4426422  26.2663383  71.9862747  38.3047447
  27.0582504  71.2948303  39.3936691   5.3986044  28.5432529  20.8116035
   5.2581992  28.7667160  19.8915043   5.2310305  27.6019650  20.8577347
  80.7502060  33.6655006  80.0204544  81.4502563  34.3058662  80.1473160
  81.2062073  32.8318596  79.9049530  86.3965988   5.0374684  27.5622311
  85.9838181   5.3906417  28.3503380  86.7669449   5.8027143  27.1223755
   8.4048872  40.3225136  32.9291344   7.8755136  39.5372925  33.0685081
   8.5435114  40.3530083  31.9825172  65.7709274  58.4767952  53.8796501
  66.4816055  59.0019989  53.5117798  65.2423477  58.2250862  53.1223640
  55.8916435  10.8386936  53.8375053  56.8309288  11.0138645  53.8948708
  55.6143303  10.7194176  54.7458572  45.7102051   5.0107350  64.4607773
  44.9584656   4.4869852  64.7379074  45.5201988   5.8917599  64.7831497
  12.4461565  67.2641220  26.2449913  11.8997040  67.5179901  25.5012360
  12.1024971  67.7728500  26.9793777  33.4784927  36.9921913  74.5822144
  33.8156929  37.5558472  73.8859253  33.8679810  36.1356125  74.4066849
  13.7274408  62.3783379  87.4780731  13.9394588  62.0445099  88.3497543
  13.2143955  61.6795464  87.0722351  25.1400127  13.2476444  64.7068176
  25.2738304  12.7883015  65.5358734  25.5598373  12.6887751  64.0528793
   6.3928642   2.0245981  86.1830292   5.7761264   1.2935203  86.2203293
   5.9617977   2.6734571  85.6267929  14.5006037  11.0211105  78.6408844
  14.9297686  11.0020065  79.4962692  14.9133892  10.3106403  78.1498871
   2.4446950  41.9280472  50.3303185   3.1720066  41.3058548  50.3192215
   1.6668327  41.3898582  50.1836472   0.5020357   7.1099992  70.7757034
   0.6519878   6.6800275  71.6176453   0.7222718   6.4442325  70.1241760
   7.8412867  10.5434666   7.4934034   7.3149529   9.9986916   6.9082327
   8.7463188  10.3624706   7.2396541  29.7345371  45.7768211   2.5841544
  29.2401066  46.5113373   2.9478316  30.5868397  45.8239708   3.0172684
  47.4098740  59.9789009  75.4479218  47.2702560  60.3723488  74.5865631
  46.6763420  60.2931442  75.9765167  14.0843897  60.5534019  80.0337143
  14.1237411  61.1572037  79.2920227  14.5084858  61.0259438  80.7500076
  11.6443233  34.8988113  30.3428669  11.7333660  35.7260437  29.8695889
  11.9537420  35.0943756  31.2273140  48.3874855  47.7034607  78.1925201
  47.9596176  48.5021896  78.5010452  49.1993942  47.6563721  78.6973114
  10.2947092  61.1680641  33.2142258   9.4191608  61.4350586  32.9342957
  10.3960161  61.5538902  34.0843468  52.9961967  52.1791115  20.6676216
  52.4788246  52.3843918  21.4463482  52.4180908  51.6353989  20.1324577
  63.4235764  70.0441208  80.4401932  64.3057175  69.7952042  80.7160492
  63.5607033  70.7459869  79.8039398  19.8359375  41.9990540  20.6396351
  18.9800014  42.0460472  20.2137260  19.7647305  41.2561913  21.2390614
  18.4373074  51.0877457  11.0851192  17.7017574  50.6661491  11.5294800
  19.2116852  50.6409988  11.4271564   3.8676994  43.2930450  48.5908051
   3.6121070  44.1777954  48.8518105   3.4032354  42.7198334  49.2006645
  54.8456955  18.7502995  47.3333015  53.9027977  18.8993607  47.2629280
  55.1604881  19.4648857  47.8869286  79.4749451  12.7395191  67.1980820
  80.1301498  12.7904997  66.5021362  79.9861526  12.6467800  68.0020065
  54.3899345  59.6749153  51.4193230  54.1915245  58.8090324  51.0627937
  53.5412369  60.1151695  51.4654427  47.6770897  61.6935463  38.3966942
  48.3517227  61.5050278  37.7443428  48.1633034  61.9977264  39.1630516
  75.1644897  55.4558029  67.7508545  76.0461502  55.4486504  68.1235046
  74.8794403  56.3663521  67.8275299   3.2159297  50.2221375  32.8526192
   2.7011402  49.9280853  32.1011162   3.6015344  51.0511131  32.5691757
  47.7978859  23.0703869  11.4862642  47.1230125  23.3559704  12.1020737
  47.5610313  22.1678123  11.2729750   9.0034142   3.3593357  71.2019501
   8.9488029   3.0461364  70.2990952   9.9359198   3.3176887  71.4139252
  57.5143127  27.3614235   8.1987438  56.6590576  27.7652760   8.3459616
  57.5971107  26.7138882   8.8987980  16.9290333  29.0296841  81.6432953
  17.6533051  29.6131020  81.8697586  16.1484833  29.5796490  81.7104568
  60.5874062  37.2864609  85.7835693  60.0305443  37.2780762  85.0050659
  60.9028435  36.3861504  85.8621216  32.4349060  71.2880249  65.1332703
  32.5110474  70.7109146  64.3734207  32.1911736  70.7057266  65.8528214
  49.0106544  55.6877174  54.5764313  48.2574539  56.2738762  54.5033302
  48.9259529  55.0946579  53.8298836  45.5997696  31.7030144  85.6293640
  46.4521179  31.7258987  85.1943817  45.3895683  30.7715263  85.6955261
  85.3063812  32.0802193  19.1010323  84.7760468  31.3208160  19.3424587
  86.0869751  32.0117569  19.6507683  69.8880310  28.1935635  50.2662086
  69.8522644  27.2485962  50.4144859  69.0746765  28.3943119  49.8031960
  74.1525803  14.4475336  42.9246902  74.4020691  14.8611002  42.0982857
  73.7724533  13.6076784  42.6670494  71.5435944  39.7571831  24.0342731
  70.9651337  39.1185722  23.6173859  71.3213501  40.5896606  23.6173534
  16.7752762  41.5405159  24.6079540  16.4609108  41.4806480  23.7058334
  17.6922436  41.2700500  24.5604992  70.7955704  52.6403809  63.5762215
  70.6882629  53.0378876  64.4403458  70.8863373  51.7040215  63.7529182
   9.9404984  15.3681126  76.4940796   9.4490023  15.0281229  77.2417831
   9.3232756  15.9449310  76.0440216  60.0592651  43.3537979  38.2709389
  60.0454483  43.7825012  37.4152184  59.6907768  42.4852142  38.1096535
  51.6829567  46.3632660  36.5826035  51.8121758  45.5175056  36.1533852
  50.7823219  46.3329391  36.9053497  60.0553398   7.5254526   8.4415960
  60.6012764   8.1495285   7.9633565  59.2325821   7.9915791   8.5900259
  55.9700089  53.8714561  65.8035812  56.3698883  54.5194550  65.2235565
  56.5566864  53.1163940  65.7597580  60.1171417  46.8318062  75.6058655
  60.1626663  46.2966576  76.3981857  59.6216621  47.6074181  75.8688431
  65.5190201  21.2313480  31.4890690  64.6982574  20.7394447  31.4642773
  65.5242844  21.6451302  32.3521957  64.9813538  47.6422997  11.1728630
  64.3199081  46.9980316  10.9205999  65.4968643  47.2038383  11.8497925
  52.5697021  35.0897484  87.9756088  52.2668457  34.1995201  87.7967072
  53.4607964  35.1142006  87.6269150  25.0197487   0.9815530  50.4109688
  24.8803959   1.5651945  51.1567421  25.2638893   1.5650511  49.6925278
   3.5027032  16.5789299  43.7823792   4.2488890  16.2879486  44.3065643
   2.7423491  16.4290390  44.3441849  76.7291946  17.1672783  53.9721603
  76.0006638  17.6036701  54.4137993  77.3315048  17.8760853  53.7462425
  59.7910919  60.3543205  16.0699310  60.1913834  61.1949883  15.8479395
  60.5163269  59.8230858  16.3986473  77.0631332   1.3591989  51.4014015
  76.8360977   0.4385539  51.2706375  76.3494949   1.8432282  50.9858704
  29.6439114   7.0915399  42.0500221  29.6454315   7.7806015  41.3856239
  29.5178680   7.5565877  42.8771095  62.3959656  32.9210167  70.6306152
  62.7632484  32.7961273  71.5056839  62.2689629  33.8668900  70.5569229
  55.3644638  19.1080666  21.4471855  55.7812119  18.2476387  21.4001369
  56.0578232  19.6937180  21.7513123  61.5137596  65.1989975  15.1191063
  61.9425240  65.5056686  14.3201399  60.8477821  65.8614960  15.3029480
  26.5313435  12.4182539   9.3849630  25.5828934  12.3437386   9.4904232
  26.7584515  13.2345381   9.8303099  23.3329830  70.8941269  49.3875275
  23.4927292  70.0413742  49.7919197  24.0186672  71.4598083  49.7425957
  41.5518112  13.9744635  84.1021500  40.7454567  13.4621115  84.0428162
  41.3111610  14.8391838  83.7696152  68.7236252  32.2841301  79.3958206
  68.0699005  32.2077522  80.0908356  68.9952164  33.2016106  79.4222336
  36.7699852  47.6832962   6.2958584  35.8898315  47.6793671   6.6720829
  36.6337128  47.5026169   5.3657956  60.4485893  52.3802299  67.4674454
  61.1758080  52.6478806  68.0293579  60.8379745  51.7602501  66.8508148
  52.6972351  23.9712639  69.3839035  52.9448662  24.3378620  68.5350723
  51.7503242  23.8451138  69.3232651   5.8832331  32.8217926  73.9395447
   5.9743214  33.6550865  73.4774246   5.3891077  32.2663155  73.3366165
  52.8447380  61.8252029  36.6223412  52.8693962  62.2442589  35.7621002
  53.7196083  61.9680176  36.9834976   5.4615560  66.7422256  88.0374146
   5.5439653  66.0360565  88.6783295   6.0660176  67.4173203  88.3458099
  77.3413467   8.6526794  50.4112549  77.2015076   8.1299143  51.2008057
  76.5806198   9.2321739  50.3698387  60.8242493  12.6575584  43.6984825
  60.2274590  12.7272549  44.4436111  60.4735985  11.9351387  43.1775322
  56.7881699  34.4946404  83.6684799  55.9998055  35.0354996  83.6217194
  56.5506287  33.7750778  84.2533188  37.3991661  70.5226669  15.6362162
  36.4451332  70.5890656  15.6767979  37.7114716  71.3795395  15.9268522
  31.5570087  43.0893898  66.9190521  32.2619553  42.5909386  66.5057373
  31.4161282  42.6532707  67.7593994  28.5215263  53.2335243  85.4682770
  28.0504131  52.7951202  86.1768570  27.9349022  53.1688309  84.7146759
  16.9141006  53.8592110  48.5618248  16.1008739  53.6114769  49.0017357
  17.4728184  54.1951294  49.2626991  62.4023438  48.4822388  48.9640846
  61.6952400  48.0104065  49.4040909  62.4481812  49.3233604  49.4186668
  59.5097313   4.1027522  14.7168713  59.7479439   4.7586532  15.3720655
  58.8772087   4.5469723  14.1522322  79.4346161  45.2949448   0.8476605
  78.5750275  45.3848114   1.2590792  79.4939194  44.3678932   0.6168123
  50.2078171  56.4011497   6.7999811  49.7216225  55.7419434   6.3047104
  50.9022255  56.6838570   6.2049136  70.1043243  52.4224777  39.2231750
  69.6463318  52.2667198  40.0491409  70.0628433  51.5834198  38.7643776
  11.1105461   6.4182777  30.5987720  11.5133066   6.0473008  31.3838768
  11.3156986   7.3521972  30.6428089  47.0595436  42.8096504   1.9271164
  47.4235077  43.4827805   1.3520865  46.4930611  43.2907066   2.5303721
   3.8548493  50.5191154  62.6861382   4.4469409  50.2422256  63.3854179
   4.2501898  50.1724586  61.8862839  59.0279121   1.4480979   9.2392044
  58.5837250   0.6252872   9.0344753  59.4485931   1.2893726  10.0842276
   9.2079763   7.0147696   8.5234413  10.0947170   7.0767279   8.8785229
   8.7236834   7.7120876   8.9655266  46.6375580  56.4150848  50.8155708
  47.2104874  55.7093239  51.1153831  46.8516083  56.5198669  49.8885117
  40.5552330  66.9153900  44.7706795  40.3336945  67.8059921  45.0426750
  40.8069801  66.4730072  45.5813293  40.4316673  46.5103111   9.8651438
  39.5498886  46.7350540   9.5681877  40.8795776  46.2051125   9.0761805
  13.5160074  38.6499825   7.0284281  13.4862099  39.5321465   6.6581202
  13.8085709  38.7787209   7.9306836  59.0032959   0.2419312  65.0506973
  59.1519470   1.1843654  64.9735413  59.3554344   0.0135568  65.9109802
  49.4825325  53.0783119  50.1680412  48.8357430  53.3480148  49.5159988
  49.2997475  52.1506462  50.3172455  49.8165588  54.6478310  79.2244949
  49.2378922  55.1374779  78.6400070  50.6905975  54.9912033  79.0390549
  11.6821222  38.5918159  85.9671555  11.7594070  39.4632568  85.5787659
  11.9098415  38.7190094  86.8881302  30.4797707  69.6898422  56.8777275
  30.1547470  70.5476532  57.1511421  29.8241425  69.0714111  57.2000961
   9.4145107  60.0571861  36.0448112   9.3035297  60.8648186  35.5431671
   8.5425529  59.8691788  36.3920517  38.5084534  48.7100182   4.0775762
  37.5977364  48.4154663   4.0855422  38.7361526  48.8093300   5.0019789
  73.0094681  63.3394547  11.6776333  73.3873672  62.8564377  12.4125605
  73.3845139  62.9251251  10.9005222  66.2207336  35.2940788  52.6766090
  65.3027725  35.0228424  52.6728935  66.7020874  34.5140038  52.4009018
  83.3439255  41.9573669  59.4292259  83.3926468  42.8808060  59.6764603
  83.6175461  41.9402008  58.5121269  67.4145432  25.2742043  54.5154266
  68.3053207  25.3561974  54.1748161  67.2528152  26.1035347  54.9651947
  33.8088303  12.8450890  68.2693634  33.6817436  13.1872625  69.1542358
  34.6790314  13.1530924  68.0161514  61.7732506   2.3790503   0.7409747
  60.8198433   2.4350023   0.8051511  62.0941772   2.9428084   1.4448307
  13.2107658  48.7629433  51.7715149  12.4142857  49.1975632  52.0764046
  13.7562551  48.6859741  52.5542984  29.6658936  38.7796555  88.3266907
  29.9416904  38.9358063  89.2299042  28.7161331  38.8977203  88.3424606
  52.7155800  32.8487244  42.8862076  52.9942436  31.9423046  42.7558975
  51.7822685  32.7855530  43.0891190  30.2360306  64.5821609   2.7450738
  29.4702168  65.0375443   2.3952317  30.2870007  64.8656998   3.6578944
  73.9862213  35.4655952  19.5299263  73.1156845  35.0876617  19.6546955
  74.5439072  34.7173347  19.3170300  68.5988159  52.2366600   9.6077757
  67.6830750  52.1796722   9.8805389  68.5900955  51.9826889   8.6849241
  66.9094009  11.5480995  75.0788651  67.4083176  12.3297787  74.8415909
  67.5243454  11.0153913  75.5831528  32.4808960  59.6672859  33.4296227
  31.5275440  59.5842667  33.4510231  32.6786919  59.9253502  32.5293427
   7.6710486  54.3873482   6.9581676   7.4415774  54.2755508   7.8807049
   8.3244905  53.7084274   6.7899170  39.1407013   3.5087092  40.3070297
  38.7375984   4.2881355  39.9246254  39.3412933   3.7605686  41.2084541
  69.5102386  25.2163162   0.5228742  68.7905350  25.7373428   0.8789598
  69.8675537  24.7523861   1.2800558  63.5137520  48.4949379   4.5685234
  63.5988846  47.5848122   4.8525186  63.2868538  48.4360275   3.6404724
  84.8427124  53.4072914  60.2319221  84.0088348  53.0009117  60.4680061
  84.6146240  54.0483780  59.5587082   2.4968972  26.2258644  60.6006775
   2.8981092  25.5316181  60.0779114   2.1341918  25.7731514  61.3620758
  -0.0227499  63.8055763  33.5274124  -0.1800519  63.6388550  34.4567642
   0.4135863  64.6573029  33.5073738  61.4011192  70.5186386  52.1327744
  62.0143547  70.1626129  51.4897995  61.8988876  71.1977386  52.5880470
  77.6121826  34.9565735  17.8742828  77.1690521  35.5805931  17.2994137
  78.4222565  35.3986015  18.1284733   1.6848392  54.8239059  42.1993065
   1.0403966  55.3766670  42.6413231   2.5308788  55.1937637  42.4516029
  72.2653427  23.4387226  79.4312515  73.1728516  23.4460678  79.7355499
  71.7664032  23.8141098  80.1567688   8.4968405  51.3668404  26.5813713
   8.6705523  51.8657875  27.3795624   8.4089098  50.4614296  26.8792496
  74.0476837  38.9592323  53.0707741  73.5204315  38.6330566  52.3414955
  73.4834900  38.8596420  53.8375816  62.4806938  45.0187988  44.4772682
  62.3382454  45.7600594  45.0658836  63.4325371  44.9542656  44.3993950
  16.7272091  47.2057838  60.7266159  17.6315918  46.9122581  60.6163177
  16.7679062  48.1552429  60.6121445  46.4569931  20.7332134  78.4932480
  46.6536674  21.6502151  78.6847153  46.0477486  20.4038982  79.2934341
  13.2364464  42.2491989  64.7589722  12.6689587  41.5922241  64.3557739
  14.0639687  41.7918243  64.9081268   4.8477354  24.0181980  25.5554867
   4.8041301  24.6927948  24.8778076   3.9346919  23.8609924  25.7960491
  48.5813866  34.7329636  23.7645893  48.3457642  34.1287193  23.0605984
  48.5713196  35.5967331  23.3522358  83.7677994  25.4166813  28.0646553
  83.4422379  26.0775280  27.4534874  83.3953094  24.5936508  27.7482605
  28.2285824  13.8903198  75.7642212  28.4527435  13.8682432  74.8339005
  28.8191376  13.2543888  76.1680374  60.0378532  46.1827545  22.5040874
  59.4393654  46.2738075  23.2455425  60.7940445  46.7204475  22.7392349
  77.5896988  62.5190315  56.0377502  77.5319138  62.5441017  56.9928741
  77.3832245  61.6127892  55.8090096  46.4582329   1.0793411  39.7639656
  46.7609024   1.4001191  40.6135063  46.0208092   0.2514193  39.9625587
  84.9172440  36.5898438  27.1487675  85.1308136  35.9494133  26.4701920
  85.7430954  37.0428505  27.3190079  25.2375107   0.1816487  84.2032700
  25.5200920   1.0177288  83.8326645  26.0180798  -0.3713482  84.1695023
  73.2039719  27.7891331  73.5077896  72.6299286  27.1297169  73.8974991
  74.0740585  27.5802631  73.8477173  71.2957230  59.5523148  15.1770315
  71.9086380  59.8366814  15.8550472  71.8531342  59.2052460  14.4805689
  24.1350842  41.9276848  68.3486786  24.2712307  42.1294975  69.2743988
  24.8737545  42.3414917  67.9021759  66.1206589  20.3276329   1.7969964
  66.3727951  20.0140305   0.9284829  66.4050751  19.6352024   2.3935537
  17.3614407  20.3178806  82.2483292  17.4491920  19.8818970  81.4007187
  18.1222000  20.0233536  82.7490616  79.9707413  47.6266098  20.3209476
  79.2781982  48.1607094  20.7100067  80.2677612  47.0624352  21.0348892
  83.9756088  55.6000671  71.3012390  84.3138123  56.1368294  70.5844879
  83.0241013  55.6511879  71.2104111  23.0593834   3.0034280  58.1077347
  22.9591312   3.9509668  58.0163498  23.9072170   2.8926764  58.5380211
  74.9277039  53.0640030  73.6779251  73.9812393  52.9323349  73.6222382
  75.2348175  52.3574104  74.2459335   9.7330408  68.6530685  64.9579391
  10.4101686  68.9850922  65.5474167   8.9120073  68.8074722  65.4251556
  34.5737152  58.8460846  81.7984619  33.9234924  58.2873116  81.3727722
  34.5090637  58.6239967  82.7272949  26.4727287  20.8526020  52.4614105
  26.5308876  20.0653439  51.9200478  26.6129971  21.5750618  51.8493576
  65.4464035  17.3652267  80.8036346  65.1535645  16.5241890  81.1545410
  65.6205368  17.9002724  81.5780029   3.9839990  18.3245983  47.6965904
   4.7794776  18.8533363  47.7588882   4.2683544  17.4373379  47.9160042
  75.0362625  38.9728928  71.6691360  75.7369537  39.1171837  72.3050995
  74.8860626  39.8338814  71.2787933  27.6893215   3.5084980  45.1345406
  28.0643635   4.3163490  45.4851837  27.7752037   2.8754437  45.8473511
  18.9997196  42.0273285  80.5816422  18.9510059  42.4831657  79.7413635
  18.0946636  41.7821121  80.7739258  77.8818588  24.2129784  67.2773666
  76.9382782  24.0576859  67.3195343  78.2089310  23.9341831  68.1326599
  42.9110374  38.9348602  67.4801483  42.7408905  38.4200211  66.6913376
  42.0784912  38.9316444  67.9524689  33.1167030  60.5882111  37.4651566
  33.3199692  61.2866821  38.0872917  32.2028961  60.3664932  37.6441307
  47.8657646  57.1840820  39.6964340  47.2965927  57.5381584  39.0131302
  48.7468567  57.2388763  39.3264198  31.4099274  70.3823776  85.2643661
  31.3431435  70.5964661  84.3338089  31.5073376  69.4303589  85.2847214
  15.4509783   4.8651481  65.2028122  15.0814142   5.0854640  64.3477554
  14.9583168   4.0946317  65.4853363  66.3988190  54.5247002   8.0793810
  66.3012543  54.7440834   7.1527824  67.2980347  54.2058411   8.1566305
  14.5078421  68.9289551  48.6144791  15.3207617  68.9464874  49.1195374
  14.7855492  69.0662918  47.7088013  46.6984787  66.3253174  84.6668930
  47.4347649  66.1753387  84.0739136  46.1786766  65.5235062  84.6108932
  78.2340546  68.4891052  85.4597168  77.7960434  68.5120316  86.3105087
  79.1067047  68.1442032  85.6488113  71.8961029  63.8124695  61.1338387
  71.3255768  64.3076248  61.7216797  72.4466019  64.4764862  60.7187920
  33.1241684  43.2623978   1.0444179  32.4919548  42.8267212   1.6160159
  32.7102928  43.2568550   0.1813380  25.7513428  41.2865219   8.5395327
  26.2025013  41.5245171   7.7295656  25.7772560  42.0823021   9.0708427
  40.4795189  15.2771883   0.3488939  40.8819351  14.8904648   1.1265420
  41.2115326  15.4304180  -0.2485222  58.7274857  55.1538467  85.2844391
  59.1446075  54.5855789  84.6368942  57.9172363  55.4417343  84.8639069
  46.8432198  59.9121094  29.1687012  45.8914719  60.0134621  29.1804619
  47.1783562  60.7651405  29.4448414  62.3697395  57.1179008  15.9870796
  62.7043533  56.2711945  16.2826405  63.0951080  57.5039520  15.4961271
  22.0896683  56.8913078  74.6906815  21.2287788  56.8941536  74.2722397
  22.6106586  56.2863998  74.1625824  78.4895096   6.4182501   0.2196654
  78.3621750   5.6743960   0.8084773  79.4135437   6.6472483   0.3194267
   8.3852444   2.9678133  14.0483742   8.8889503   2.1548417  14.0085096
   7.5487838   2.7517681  13.6361971  36.6235237  63.2278404  53.2001991
  36.4000549  62.3070564  53.3360481  36.1709709  63.4673386  52.3914566
   5.6185985  54.6064758  37.2684898   6.4423418  54.1422577  37.4174194
   5.8844938  55.4825439  36.9891434  38.8704071  12.6932783  84.6233063
  38.4532967  11.9693375  85.0903854  38.7416573  13.4516716  85.1929550
  66.0701828  58.7565002  26.1856041  65.4666519  58.7501144  25.4426785
  65.7560654  58.0544472  26.7554131  24.3194008  42.8104630  70.8268356
  24.3943024  43.4395027  71.5444183  25.1958084  42.4342232  70.7456818
  27.0999718  37.5115204  80.6157684  27.9102631  37.1441345  80.2626572
  26.4993305  37.5269814  79.8706360  38.9657211  70.7332916  60.3130455
  38.4082527  71.4248810  60.6696434  39.2246437  71.0556412  59.4497452
  41.2643318  43.4639206  17.4894810  41.0948639  43.1827164  18.3886108
  40.5722656  44.0981865  17.3024292  76.6225204  19.1805725  41.1217957
  77.5098343  19.0350285  40.7935829  76.0685272  18.6331387  40.5653458
  80.9503708  39.8088150  88.5507965  81.2860336  39.5464745  89.4079666
  80.0994110  40.2051735  88.7378693  79.1489029  46.5106201  17.9133129
  79.7485886  46.9392700  18.5239410  79.7182388  46.0027847  17.3352203
  31.8393497  54.1044769   0.7156768  31.2863560  54.0708847   1.4962534
  31.2920780  53.7426376   0.0186857  21.7239017  23.5868034   3.0846653
  21.0463314  24.2296982   3.2939880  21.3838348  22.7602386   3.4272673
  54.8533058  16.9597435  59.9162140  55.2376671  16.2778854  60.4671860
  55.2939682  17.7645893  60.1887436  76.0675812  40.7594452  77.2821503
  76.2328415  41.6022377  76.8595123  75.3050690  40.9162521  77.8391266
  75.8708725  29.1870613  13.9729662  75.4996033  29.4710350  13.1376514
  75.1710281  29.3354206  14.6089201   7.8867664  39.3807297  70.6288757
   7.0975714  38.8789024  70.4249802   8.0392942  39.2194061  71.5599670
  69.4291077  48.3261337  59.4879799  68.7381287  48.2603340  58.8288536
  70.2406311  48.3611107  58.9815750   4.7458205  65.7886124  55.4942017
   4.3353672  65.1331635  54.9301643   4.1179891  66.5107498  55.5183678
  10.5911636   2.7248783  19.3829269   9.8891697   3.3750386  19.4098911
  10.2000246   1.9344965  19.7551346  86.4728012  67.7347565  44.7403450
  85.9044571  67.8467712  43.9783249  87.3607101  67.7841034  44.3862228
  31.6037617  58.3475723   7.3582087  32.0592270  58.9969826   6.8224387
  31.0308514  58.8639984   7.9250484  32.2978325  15.6891260   5.9712071
  32.4488297  15.0186481   5.3049560  32.9381676  16.3723927   5.7728353
  34.3103867  38.9399719  63.3402023  35.0420151  38.7014542  62.7709351
  33.7014236  39.4041481  62.7658005  40.7414551  37.0976448  88.1422577
  41.0123482  37.1604385  87.2263412  40.1004982  37.8001747  88.2511597
  49.0071335  38.6942902  86.1777496  48.3147583  38.4107246  86.7747726
  49.3772888  37.8802414  85.8363647  71.8482742  28.2493515  80.1098785
  72.1829071  28.1815872  79.2156372  71.0046310  28.6919289  80.0170059
   7.1126094  54.2342720  33.6391220   7.7489305  54.2142525  34.3539124
   6.3825955  54.7493248  33.9826813  70.1242599  63.6010056  21.4924965
  70.5414963  63.0268250  22.1347275  70.8490448  64.0870438  21.0991898
  83.2376099  70.4655151  36.8995323  82.4711838  70.6591415  37.4392815
  83.2343140  69.5123291  36.8120308  16.9165611  20.3085861  77.0617294
  16.0391998  20.1466694  76.7149582  17.1202183  21.2034531  76.7897568
  45.7704048  54.4787750  38.0927925  46.2907791  55.1707916  37.6846848
  44.9206543  54.5282555  37.6549530  62.2355881  12.1074266  47.9655800
  62.0711250  12.8087368  48.5959358  62.3095551  11.3170853  48.5004845
   4.8374858   3.1124151  51.9254417   5.4028320   2.5132182  52.4128647
   4.3074627   2.5420454  51.3686790  51.0718842  41.2769966  25.5026360
  51.3364449  40.8114891  26.2960739  51.0977516  42.2019272  25.7477150
   9.9916439  12.1036663  21.6803703  10.6252155  12.8024035  21.8434181
  10.2946949  11.6892881  20.8724842  11.5131512  26.3212452  12.2137308
  12.4503527  26.4584751  12.0757017  11.1274166  26.4081669  11.3420172
  83.0371170  47.0713120  75.6922760  83.4154053  46.3343658  75.2126465
  82.6942825  47.6497879  75.0110550  53.8853378  37.9304047  23.4428596
  54.7445564  37.5784569  23.6754684  53.3284988  37.1579666  23.3453960
  57.7067871  53.6758957  23.5118752  57.0727730  53.0025177  23.7584877
  58.4788475  53.1858444  23.2290325  42.4047966  57.8739243  88.0702209
  43.1226807  58.4889984  87.9200439  42.4499931  57.2678680  87.3307037
  86.2470703  70.6803436  51.0211716  85.4802017  70.3499451  51.4891205
  86.9695969  70.5734634  51.6398468  81.1877441  23.5949936  55.6511383
  80.5413513  22.8896542  55.6209450  81.7810059  23.4074860  54.9237366
  36.8548813  44.5931244  30.1342850  35.9116249  44.7044029  30.0154610
  36.9340591  44.0109558  30.8899593  77.9976196  18.3663368  16.3354130
  77.9115601  17.8545189  17.1396942  77.4655685  17.8956070  15.6938753
  28.1920586  45.0669441  71.0574799  28.4568024  44.7036362  71.9025574
  27.2944603  44.7580032  70.9345703  82.1500244  57.4322891  67.6899872
  81.5935135  56.6595879  67.5926971  82.1848526  57.8143234  66.8130188
  11.9912930  44.2269363  38.7222710  12.8047895  44.3253593  39.2170105
  12.2328882  43.6883278  37.9687691  25.5260773  18.3460808  10.0718393
  25.8845882  18.3416119  10.9593544  25.7914982  17.5040283   9.7020664
  79.6173935  15.3260298  56.7117996  79.2135010  15.1846571  55.8555794
  79.6804047  16.2777214  56.7926979  24.2676525   5.4068804  26.6069393
  23.5935249   5.1411781  25.9814892  24.6372166   6.2076874  26.2349682
  19.0518970  58.7025375  47.8079491  19.8519497  58.5834846  47.2961159
  18.4608498  58.0196495  47.4908333  56.3348236  22.2102928  65.5389328
  56.9798775  22.5108223  66.1791000  55.8909912  21.4803448  65.9706955
  61.6145020  60.6483917   8.7359943  61.5022964  60.4606552   9.6678715
  61.7235451  59.7885056   8.3298702  24.9438610   0.7451584  34.3748817
  25.6117744   1.4025638  34.1800957  25.2086334  -0.0226644  33.8683510
   1.7047752  30.9070873  84.7755280   2.2786825  31.1439838  84.0470047
   2.2657108  30.4091244  85.3701782  55.7009468  54.1822662  28.0504360
  56.4348755  53.7532997  27.6104698  55.6593094  55.0523796  27.6537018
  72.7375412  66.9236145  50.8174629  73.3190689  67.6007919  50.4717941
  73.2247543  66.5384445  51.5458145  76.5415268  37.6250534  83.7894287
  75.9466858  37.9966278  84.4408340  76.3506165  38.1099815  82.9865341
  79.6063690  10.0180597  55.4362755  80.2934494  10.5413561  55.8489609
  79.2374039   9.5001640  56.1517334  74.8946457  67.3292389  62.0637703
  74.1797943  67.5900269  61.4830666  74.6873016  67.7451477  62.9005852
  46.5701561  54.0548439  34.5194969  47.0891380  53.6771660  33.8093910
  45.9532051  53.3633728  34.7592163   7.7348809  57.4957848  59.9885406
   7.8619523  57.1012497  60.8513412   6.8188705  57.3169823  59.7759705
  33.8102341  68.0485077   3.4871616  34.6674385  67.6949615   3.7247231
  33.1881294  67.5345917   4.0020490  86.5526123  46.3836517  32.4387474
  86.8249588  46.0836678  31.5715294  85.8437195  45.7898331  32.6858940
  42.7903023   0.0300337  21.3614635  42.3992233  -0.3510340  20.5752850
  43.1287842   0.8778986  21.0737343  49.5542603  53.4659882  23.7065487
  49.2098541  54.3569832  23.7677593  49.2382355  53.0320778  24.4990635
  52.9502602  -0.0260719  66.9594116  53.7456779   0.3563894  66.5889282
  52.6009254   0.6562902  67.5326309  41.0370064  50.6917229   3.4782391
  40.6265182  51.5466194   3.3483181  40.6237221  50.1259880   2.8260324
  75.2932281  10.5709982   9.8813896  74.6529388   9.8795242   9.7136707
  75.9639359  10.4442596   9.2103329  81.3011017  70.5723953  40.8265724
  81.0243301  71.3233414  40.3014908  81.7362061  70.9588623  41.5865479
  33.6692390  48.3804970  25.4571152  33.3069878  48.1715889  26.3181400
  33.4055138  49.2871132  25.2998676   5.7747450  52.4178123  70.5756760
   5.2781868  51.6044502  70.4856644   5.7687864  52.8004074  69.6982803
  21.7475853  46.1291695  41.4258995  21.8143673  45.1800385  41.5304108
  22.6443138  46.4145241  41.2507324  44.9932899  44.9504395  64.5259476
  45.4857635  45.0327682  63.7092934  45.2483940  44.0961914  64.8743973
  43.5141640  62.9313049  73.0017319  44.1349831  63.5496750  72.6164627
  42.7216110  63.0272179  72.4736328  62.6626930  44.2040443  29.9100895
  63.0755501  43.8542786  29.1205044  62.7167015  43.4898224  30.5450706
  68.1854630  42.8239784  69.7541962  67.7435760  43.1881027  68.9871445
  67.5443039  42.9039650  70.4604187  76.8416367  26.3520412  84.2361603
  76.1259766  25.8058414  83.9110031  77.5357971  25.7309647  84.4566879
  69.8220978  11.2972965  38.6758728  69.2227631  11.6491089  38.0176468
  70.4431152  10.7677717  38.1756973  60.8749237  48.0645409  72.0155945
  60.7631760  48.3849754  71.1205750  60.3195839  47.2863159  72.0624619
  21.6828423  60.7686157  19.2804241  21.2476177  61.0286407  20.0923328
  21.1876316  61.2109032  18.5909443  23.2782764  59.8781242  41.6761513
  23.5376835  59.6888275  42.5778732  24.0218639  59.5889664  41.1472855
  83.5020523  38.0408707  22.4549637  84.2609940  38.4592056  22.8614559
  83.8768539  37.4017105  21.8489685  36.7583199  27.2887592  14.4898663
  36.4874382  26.7081108  15.2009945  36.7336159  26.7373543  13.7078342
  45.5052147  69.7043381  42.6452446  45.2904587  70.4252243  42.0532722
  45.7551765  70.1329498  43.4638062   2.3891089  50.4433403  46.0041237
   2.3560910  51.2643509  46.4951286   3.1707797  49.9991074  46.3325691
  77.4653091   7.9994664  15.3879490  77.2310028   8.9042330  15.1812334
  76.8712921   7.7543287  16.0973740  70.3028717  56.7765236   0.5964717
  70.0075760  57.3810539   1.2773317  69.9964676  55.9181633   0.8889889
  58.9963837  39.5628777  32.8578682  58.2849388  39.8427734  32.2818985
  58.5553513  39.1459427  33.5980644  63.3373260   2.8151708  47.5064163
  62.8764648   3.6387365  47.6663437  62.8779602   2.4240425  46.7632904
  71.4970703  26.8607998  85.1923370  70.6300278  26.9767609  85.5809479
  71.3730469  27.0636597  84.2651367  61.9323959  48.3641319  52.5484924
  61.1186028  48.7434654  52.8802681  61.6491890  47.7181931  51.9013519
  18.1202583  27.0006199  13.7347641  18.0261517  27.9466839  13.6236734
  18.7860088  26.9044800  14.4157667  31.8422451  31.3879890  84.9628220
  32.6067963  31.2648258  84.4002151  32.2039757  31.4601593  85.8460922
  27.3805752   4.8008442  76.5222321  26.8385334   4.0247216  76.3806076
  28.2785454   4.4693642  76.5207748  76.0745163  51.0664291  75.2763138
  76.4907074  50.6056938  74.5477982  76.8016968  51.4651642  75.7542725
  17.3852615  67.5351791  54.5025635  17.3330441  67.6977615  55.4444084
  18.0910587  68.1064453  54.1996651  33.7219505  13.9625158  79.1957550
  34.2355003  14.3631468  78.4943314  34.2300110  14.1290655  79.9897156
  81.9914322   8.3075161   0.8824961  82.5076752   9.0362501   1.2269838
  82.1113281   8.3563061  -0.0659103  83.6316910  50.6336708  78.2246323
  83.1443710  50.7606392  79.0386581  83.0020828  50.8402405  77.5338669
  39.1128159  40.6077652  55.4945145  38.7048416  40.7905464  56.3409081
  38.4248161  40.1804810  54.9842949  23.7005043  30.3412571  83.1683273
  24.0464725  29.8112411  83.8863983  24.2782059  31.1036720  83.1334686
  10.2664442  64.3717346  86.5958023  10.0249815  64.9561310  85.8771820
  10.0689278  64.8717117  87.3877869  54.3128395  65.5061417   7.1600595
  54.6911545  64.7836761   6.6589065  53.9803238  66.1100082   6.4959745
  69.7210999  40.2579918  34.4914627  70.3542480  40.3369980  35.2049904
  69.8816757  41.0256386  33.9426765  16.3740482  62.3728218  61.2038918
  16.8805523  62.2127838  60.4076042  15.9986801  61.5203476  61.4243736
  14.1278458  21.1197777  21.4260712  15.0000687  21.4087620  21.6942997
  14.2882576  20.3535957  20.8751965  11.4062452  31.1526031  61.3844833
  11.2253160  30.2259350  61.2270584  10.5445786  31.5437717  61.5285301
  85.7707138   4.7859964  61.3941460  84.8994904   5.1267786  61.1914711
  86.3721390   5.4478931  61.0529518  14.6759548  13.1549339   4.3710618
  14.4374561  12.6074810   5.1191559  13.9066534  13.7045240   4.2215323
  24.0459709  48.8538628  56.4553566  23.8205051  48.6390686  57.3604851
  23.5794792  48.2026978  55.9313354  12.4226418  54.0027199  70.8182907
  12.0249081  54.7653351  70.3982162  13.1221962  54.3660431  71.3612900
  84.9833832   5.7990746  18.8716354  85.8411255   5.9586091  19.2654133
  85.0078506   4.8789644  18.6088963  35.4292564   6.6741147  72.6384888
  35.7553139   6.0802050  73.3146439  34.4763451   6.6153984  72.7073669
  45.3953667  22.1855717   2.0803237  46.2512016  21.7852249   2.2336228
  44.8044357  21.4442825   1.9479537  61.4309082   6.1783199  75.9809036
  60.5278778   6.0022926  75.7167435  61.9542084   5.9483991  75.2130966
  34.7676888   8.5655537  82.2250671  34.0192566   8.9884462  82.6460648
  35.5261192   9.0658503  82.5262604  83.1563339   7.4351463  82.0573273
  83.3590393   8.3658695  81.9630051  83.8899994   7.0798812  82.5590744
  49.9907188   0.5230079  47.9389763  50.5907440   1.0827364  47.4461250
  49.4216385   0.1371038  47.2730484   6.8868775  57.2214279  53.9480019
   7.0534987  56.7545547  53.1291618   7.6598487  57.0467339  54.4848747
  53.1386528   6.7498412  49.1260757  53.5595131   6.6852040  48.2687950
  53.0066185   7.6886821  49.2579002  13.3539686  36.4731865  54.4759560
  14.1641779  35.9666061  54.4196815  13.5034676  37.0847588  55.1969719
  76.2659454  30.4777374  57.7670135  77.0705032  29.9605942  57.8055267
  76.5355682  31.3119106  57.3827057  80.3708649  16.9164124  24.1836948
  81.1633072  16.4973469  23.8480663  79.6727676  16.6046696  23.6077538
   2.9701998   9.6222420  72.7514572   2.7533607   8.7266998  73.0107193
   2.1930838  10.1324387  72.9795380  86.0115128  24.0732117  27.1431904
  85.7974014  23.7158318  26.2814102  85.2832947  24.6601429  27.3467541
  64.2638474  23.7907639  36.7230148  64.6234741  24.5603409  36.2818184
  63.7183456  24.1491661  37.4231644  36.9383049  34.0831108  75.1224670
  37.6055450  33.9593925  74.4473953  37.1409264  34.9363976  75.5059738
  65.9331894  65.6094360  64.0794601  66.4005432  65.0626602  64.7110062
  65.5020218  66.2767792  64.6132812  15.7439747  66.0178299  72.2150040
  15.8099241  66.3606186  73.1062851  16.0786285  65.1231918  72.2770996
  14.5381641  42.3134880  77.2379913  14.1695929  43.0769157  77.6824722
  13.7811728  41.8717651  76.8531876  17.6518517  38.9658432  45.7711029
  17.7611103  39.4975052  44.9826698  16.7038193  38.8913040  45.8802414
  58.9580879  21.1586819  14.6648006  58.5912514  20.4161167  15.1446571
  58.1972580  21.5969868  14.2836685  18.2920876  61.6827736  80.0477142
  18.4516354  61.1556511  79.2648239  18.0664577  61.0444374  80.7243576
  27.7439251   6.0369587  38.7591209  28.6384125   5.8205562  38.4958839
  27.4965115   5.3377166  39.3641663  70.2204437  15.6839724  15.9806776
  70.7640457  15.0363712  15.5319681  70.7217865  15.9175081  16.7619267
  28.8750172  66.3939743  75.7147217  29.0127106  66.3045197  76.6577377
  29.7298851  66.2031708  75.3286896   2.0845716  25.7555065  41.3246918
   3.0080807  25.5904388  41.5147285   2.0401905  26.6957016  41.1506348
  29.8909092  58.2387276  31.6445312  29.3759975  58.0448380  30.8612652
  29.4874249  59.0273018  32.0072746  49.1674919  26.8618298  24.3487949
  49.0194397  27.3860912  25.1358528  48.5228386  27.1863842  23.7200546
  77.3370361  32.1100502  85.3101730  76.4510956  31.7749500  85.4482040
  77.3082199  33.0072594  85.6424637  75.8756866  68.4051361  87.3244934
  76.0541382  69.3343735  87.4690857  76.1800995  67.9755707  88.1238861
  17.3903446  48.1186676  22.6717339  17.2356529  47.2465897  22.3087139
  16.8299236  48.6965485  22.1538448  31.6313782  37.7500343  58.8596191
  31.7792034  37.7157784  59.8047142  31.3282013  38.6432381  58.6968346
  85.0491180  55.1181793  87.7609863  84.2920609  54.6640091  88.1308899
  85.4296341  54.4893074  87.1478348  35.6514778  45.9284744  36.2277718
  36.4045181  45.8727417  35.6395111  35.5161591  45.0301666  36.5293808
   3.1466949  44.3798485  23.8172913   2.9685450  44.7047539  24.6998615
   2.4197783  44.7100029  23.2892532  79.3403549   4.2858014  41.9431038
  80.1489334   3.7807975  42.0291519  79.0411530   4.4141006  42.8432426
  72.1273041  16.5529728  17.7020779  72.8772507  16.5520973  17.1072617
  71.8769913  17.4743214  17.7705536  79.8313522  11.7997198  63.5940819
  79.4923096  11.6778450  62.7072754  79.0501480  11.8399563  64.1457443
  53.6965714  31.5561714  78.9006042  53.5016479  32.4795494  79.0606384
  54.4339981  31.3632126  79.4795685  29.0324154  37.5696259  68.3679428
  29.4438553  36.7284355  68.1695786  28.0932178  37.4001541  68.2943268
  46.1312904  20.3496799  85.6116867  46.0004044  20.9390926  86.3544464
  45.4159241  20.5587635  85.0110550   9.9996424  56.3475571  22.7434425
  10.8908615  56.4759674  23.0682049   9.9566193  55.4169540  22.5235329
  25.4157581  30.1628838  23.1430683  24.6901436  29.7326336  22.6907406
  26.0648479  30.3215885  22.4577026  32.4432793  53.5408859  78.4049759
  31.5986862  53.1326714  78.5953674  32.4024506  53.7519379  77.4722214
  39.7169228   4.8945246   8.0300722  40.2603149   5.3248982   8.6901751
  39.4106178   4.0942593   8.4566669  49.8897095   2.8350070  71.6795883
  49.7166634   2.0198002  72.1504669  49.4178314   2.7385941  70.8523865
  27.8125973  28.1971378  85.8852539  27.7615471  27.3727016  86.3689194
  28.7262707  28.2546730  85.6057510  81.7012787  11.5901470  56.2147446
  82.2209473  12.3154583  55.8681870  82.3474045  10.9263859  56.4559555
  15.4641542  58.6605530   1.2248629  14.6076508  58.3269615   0.9577495
  16.0891552  58.0310173   0.8652943  17.9485035  15.1097136   9.3793268
  17.7735043  14.1925430   9.5900526  17.6547604  15.5931377  10.1514978
  25.1920700  33.1511421  83.7706223  24.2592392  33.2127762  83.9761963
  25.3548717  33.8824539  83.1748810  19.1277580  30.0479946  75.4572601
  18.8657875  30.6635342  74.7726364  19.5285206  29.3191757  74.9835129
  23.6429100   0.6261761   2.0401196  22.7698402   1.0106916   1.9618467
  23.9625454   0.5723607   1.1394703  64.2509079  12.1033354  54.0987320
  63.8382721  12.8632927  54.5091324  63.7691193  11.9818916  53.2805824
  69.6370773  31.5279579  56.7185173  69.3903656  30.6041222  56.7620125
  70.5851288  31.5167446  56.5869446  51.0772514  19.1043129  60.4187698
  51.6333504  19.1629944  61.1956520  50.6030884  18.2796669  60.5253639
  55.7992439  16.4333591  20.1596127  54.9201889  16.1189003  20.3708191
  55.7573051  16.6548386  19.2293320   3.5256336  68.7335663   1.9845439
   3.4585598  69.5812378   2.4240727   4.4615960  68.6243668   1.8163735
  76.4261932  27.6571178  55.2352905  76.8478775  28.3596897  54.7405090
  76.1890411  27.0072441  54.5737343   1.3367302  66.4120255  71.1112137
   1.8918768  65.6627350  71.3271027   1.7601215  66.8129654  70.3521271
  69.2633743  13.2345133  25.4716072  68.4212646  12.9152918  25.7959156
  69.0371552  13.9663734  24.8976421  52.1118202  45.5569458  56.9916153
  52.8512840  45.7471352  57.5688972  52.1152344  44.6037598  56.9041328
  76.7509003  55.5466919  75.6694489  76.8467407  56.4235535  76.0411530
  75.9263306  55.5809212  75.1845322  34.4540253  46.9559441  67.3436432
  34.4308853  47.3065834  66.4532776  34.5431557  47.7277374  67.9027634
  46.8171005  53.6343651  15.2432833  47.6712379  53.2485123  15.4377155
  46.1855392  53.0133476  15.6061907  64.9551468  34.0941429  17.1904469
  64.0935364  33.9569969  17.5842056  64.9675598  33.5103073  16.4320183
  84.3889999  45.4649467  38.8099632  84.8247833  44.6640282  39.1012573
  83.5340576  45.4423599  39.2398376  60.7203140   1.0868726  87.2977219
  61.2010078   1.5350524  87.9936371  61.1584663   0.2402851  87.2108536
  21.4170380  18.3182430  88.4698944  21.7566128  18.7849827  87.7062988
  20.8901825  17.6087227  88.1021500  81.7681351  49.5575523  66.2080765
  82.5788803  49.5597534  65.6992264  81.0783768  49.4189758  65.5590363
  65.5990677  37.1542625   1.7747952  66.2370682  37.8335838   1.5563629
  65.7023010  36.4981804   1.0854982  40.7839127  37.7570190  18.3126354
  40.2391701  37.0961151  18.7400684  41.6697502  37.5775948  18.6277943
  78.9749146  48.5697937  55.5048599  79.0763779  47.7585030  56.0026016
  78.2384262  48.3999290  54.9175224  30.9531002  51.4884415  46.8063049
  30.3912449  50.9530487  46.2460327  30.3552227  51.8737679  47.4468498
  66.9580612  36.3208046  80.9065857  67.4056168  36.1348572  81.7320251
  67.2182159  37.2160187  80.6894531  69.2302322  27.9240341  38.5963135
  69.9093323  27.3290310  38.2784691  69.0125046  27.5949726  39.4684067
  74.2400970  71.0778046  13.3616266  73.9863739  71.6677475  12.6518230
  73.4503403  70.9920273  13.8956261  53.4803429  12.6219912  15.3681393
  53.2513046  12.9805431  14.5106945  52.6777802  12.7024755  15.8835506
   6.1977072   4.9321871  19.2122002   5.5848970   4.2824712  18.8678684
   6.3263359   4.6792421  20.1263695  85.5012665  45.2741966  67.8491974
  85.6264648  44.5608215  68.4750137  85.8517303  44.9346695  67.0257111
  46.9632378  52.4161987   1.0424143  47.2504959  53.0965996   0.4335056
  47.4571686  52.5881615   1.8440946  24.5182743  29.2119331  15.6639986
  25.4175663  28.9769783  15.8926935  24.4572487  29.0395794  14.7244234
  39.8258362  13.4211435  78.7641144  39.8132858  14.2022638  78.2110062
  40.6148415  12.9503021  78.4957657  38.9996223  50.7130203  56.5852356
  39.9533577  50.7538643  56.6555901  38.8192215  49.8204689  56.2902184
   4.2866917  65.0943298  21.2449532   4.9820018  64.6127777  20.7967548
   4.4441905  64.9321365  22.1750717  31.8530407  69.0632935  24.1532936
  32.6603699  69.0352783  23.6398087  32.1180611  68.7895279  25.0313873
   5.6229815  52.6251068  60.0102539   5.4960055  52.9276543  59.1110458
   5.2247071  53.3072014  60.5509529   9.4804192  27.2276936   7.7796330
   9.0784111  27.2024994   8.6479568   8.7713270  27.4955101   7.1950879
  72.7642288  24.7325611  60.8643417  73.4090500  25.3228474  61.2542038
  73.0412598  23.8590050  61.1407204   6.3398800  63.3105278  53.4669724
   5.4483757  63.2832069  53.8143997   6.2284694  63.5059509  52.5365829
   3.0970850  50.0180664   0.9927594   3.8777230  49.6440048   0.5842073
   2.6811950  49.2787132   1.4361864  75.7181549  36.2739563  15.9523449
  75.4647293  35.4673843  15.5035133  74.9150391  36.5734444  16.3784161
  25.8357468  65.9275055  26.7532883  26.6950397  66.2695160  26.5065632
  25.5087490  65.5055771  25.9587574  45.7980309  71.7574463  77.7712631
  45.1642685  71.2371750  78.2651291  46.2229347  71.1277161  77.1889191
  71.7258987  11.2175102  40.5468712  70.9269638  11.4152155  40.0581512
  71.8567581  10.2775803  40.4218140   4.7995634  26.5374241  55.3232384
   4.8058457  25.8854694  56.0240555   4.6655507  27.3715401  55.7732658
  11.8079329  43.4700851  72.1442566  11.4122334  42.6061516  72.0290527
  11.5390768  43.9620514  71.3684235  61.1469650  13.8818655  16.3312569
  61.0530968  13.4194736  15.4984207  61.7295570  13.3264341  16.8492470
  32.7339516   2.9104786  86.9942169  33.0689507   2.2001457  87.5414200
  33.3174896   3.6474614  87.1746979  67.5077057  32.7616615  64.9719467
  66.7844543  32.8422546  65.5937576  67.0825806  32.7037315  64.1162872
  57.6989784   4.9404879  57.9813194  57.0598450   5.0577383  58.6841660
  57.3731270   4.1903696  57.4839516  54.8262939  20.4056110  66.9590454
  54.5116730  20.6344509  67.8336182  55.2210274  19.5400982  67.0653763
  27.4927616  14.7289848  10.0005083  26.7203846  15.2834787   9.8900471
  28.0495834  14.9419584   9.2516270  62.5587502  25.6976223  45.5897751
  62.0096321  25.1267853  45.0523338  62.3049240  26.5843620  45.3338547
  53.0979538  13.0237322  21.9167843  53.7381935  12.5038958  22.4026775
  52.5594063  13.4339724  22.5934696  21.7097950   6.7154608  82.2798615
  21.2008152   6.8708520  83.0754929  22.2760582   7.4834571  82.2039642
  52.2190247  41.1644821  83.7202377  51.7438316  40.9166985  84.5133514
  52.6106796  42.0121613  83.9306641  47.5532875  65.1820908   2.0856740
  47.7738457  65.2757034   1.1589470  47.8868370  64.3174210   2.3250995
  12.1928377  56.5456734  81.3204651  12.1551476  56.2291489  80.4179001
  11.8287659  57.4299889  81.2795563  45.0105705  43.5384483  70.2716293
  44.1871758  43.0529099  70.2215881  44.9297066  44.0658531  71.0663223
  75.3044968  55.8477516  52.8354874  75.4568024  55.3033218  53.6079063
  74.3557968  55.8255768  52.7101212  20.3779850   7.9239831  73.8347931
  21.0039597   7.2044306  73.7533493  20.2329369   8.0097666  74.7770462
  26.9565735  17.0507145   4.4787440  27.7740631  16.7762642   4.8942194
  26.7024040  17.8436546   4.9508390  85.3933868  29.2176285  43.4909859
  86.0050201  28.9153442  44.1623726  85.0429688  30.0379696  43.8380928
  54.3606758  28.1621456  77.8953323  55.0973663  28.6658592  77.5492249
  54.1446991  27.5434608  77.1976089  76.5600052  54.3056259  30.2137527
  77.3301620  54.5845871  29.7185020  76.3389053  53.4483147  29.8499413
   8.5324106  10.6041632  63.7780228   9.4860334  10.6770725  63.7390480
   8.2871447  10.2181454  62.9371529  34.3730469   3.7315776  23.2334766
  34.2980766   3.7313893  24.1877346  34.0302658   2.8787837  22.9661274
  63.5089874  27.2212944  31.7458725  64.3885498  27.5359402  31.9546719
  63.2716446  27.6879177  30.9445229  85.0182037  43.5699463  40.8738441
  85.2906876  43.5112610  41.7895622  85.8336716  43.5059090  40.3767204
  65.2346649   4.5123696  16.2266788  65.4122696   4.1469436  15.3599882
  65.0709305   5.4416451  16.0658379   1.1131531  29.8359985  49.9673920
   1.3512671  28.9088936  49.9639854   0.2673365  29.8676910  49.5203743
  81.4421616   1.4633293  24.1023293  80.5716934   1.6928157  23.7769833
  81.3852005   1.5907801  25.0492954  15.6044540  51.8013763  14.6260853
  16.0922489  51.8377380  13.8033047  16.2249584  51.4354935  15.2564297
  41.9683914  25.2553253  11.8021212  42.4743805  25.3017540  12.6133251
  42.1386185  26.0899906  11.3655558  27.5944195   6.6084356  74.2933884
  28.5192413   6.6132078  74.0465775  27.5412598   5.9770870  75.0108871
  48.1235962  59.4020729  49.7792130  47.8121338  58.6507454  49.2745094
  48.9846649  59.1344795  50.1004372  50.9186630   8.4870749  47.1587791
  51.3647804   8.8767967  47.9106636  50.3824844   7.7885647  47.5340538
  20.5882397   4.0763016  72.2901764  19.7982235   3.7507999  72.7216415
  21.2122402   3.3534503  72.3560486  66.8429947  38.3519821  10.3708916
  65.8946381  38.4236526  10.4791317  67.1617737  38.0743637  11.2296915
  52.3408890  29.6164303  48.3788605  52.9504013  29.1399536  47.8152122
  52.9007378  30.1711807  48.9220505  26.6784210  46.3387184  30.1563950
  27.5133343  46.7285385  30.4156075  26.8313770  45.3947716  30.1988449
   3.4207909   8.4006510  46.8401489   3.6442003   7.8989496  46.0561752
   2.4652321   8.3648090  46.8832130  58.1433372   7.5483694  25.1984234
  57.2612152   7.6550145  25.5544033  58.5730820   6.9414830  25.8011189
   8.0751677  53.7246056  71.8513107   7.3539200  53.4351387  71.2925186
   7.8880363  53.3345757  72.7051773   1.7109693  37.6357269  69.8959351
   2.3451056  36.9281769  69.7798462   1.6002184  38.0042839  69.0195084
  55.1615143  16.4672470   2.6613386  54.6564255  16.9697552   2.0221207
  54.6639366  15.6577272   2.7767816   3.7440333  17.8023815  14.2989216
   3.3002827  18.5492954  14.7007141   4.3858132  17.5250340  14.9527016
  30.4800930  67.0952988   7.3324165  30.0713253  66.8308792   8.1565657
  29.7466297  67.3466797   6.7711024  27.5732040  55.9321060  46.8481789
  27.3027687  55.4558678  47.6332245  28.4684639  55.6354828  46.6846046
  14.7060108  39.2000351  62.0671387  14.3482065  38.8079987  61.2705765
  15.5890179  39.4766617  61.8221741  51.0469093   5.1836514  79.7455597
  50.2175827   5.2667317  80.2162476  51.2005539   6.0530519  79.3757401
  80.7887115  50.3913879  34.1725807  81.2674026  50.3319397  33.3458061
  80.3577347  49.5413361  34.2614708  83.0221939  44.9527206  59.7372932
  82.6435242  45.1768494  60.5873604  83.7631607  45.5508232  59.6399689
   1.4946922  17.9127655  34.3703995   1.7937658  18.5256786  33.6987419
   0.9946775  17.2542362  33.8881569  24.2637959  45.4183998  86.2935104
  23.6803246  45.4417458  87.0519638  23.6834965  45.2559204  85.5498199
  74.5065765  21.3483963  28.3679409  75.3487396  21.0505638  28.0240135
  73.8687286  20.7340355  28.0046959  61.4420547  13.9061279  35.0106583
  61.2496681  14.8286829  34.8429985  60.6222229  13.4515009  34.8172264
  13.5527802   8.4181356  88.7618408  14.1904240   8.3179216  89.4686661
  13.0234537   9.1720676  89.0218964  70.9193726  57.0507202  18.2514019
  71.7546463  56.6019287  18.1204910  70.4738007  56.9785042  17.4073124
  70.4572067  10.7521219  66.1604004  69.6242752  11.0697689  65.8117371
  70.2135849  10.0378218  66.7491760  61.8758965  33.3639565  24.9540138
  61.5103188  32.8580284  24.2283268  61.1213264  33.8089180  25.3398438
  60.2921410  41.6791267  41.0993805  60.4420052  42.4810638  41.6000557
  59.3421021  41.6393929  40.9894867  73.0066910  16.3015614  70.1030579
  73.6590271  15.6023979  70.1462173  72.7425919  16.3262920  69.1833420
  68.7712784  25.1548557  60.1243019  68.7478104  25.7061882  60.9064217
  67.9435425  25.3356476  59.6788902  51.8962402  32.9322014  84.4544296
  52.2711143  32.4668694  85.2022095  51.3547935  32.2782669  84.0123444
  74.7654343  32.4835930  29.0395184  75.1635132  33.1337852  28.4607143
  74.4224777  32.9939842  29.7730808  71.9705353  59.4924850  18.4618988
  71.4189835  59.9530640  19.0942726  71.6987686  58.5771294  18.5290127
  10.5567350  53.1444817  25.5161171  11.1578245  53.4905930  26.1757603
   9.8897152  52.6789131  26.0206566  48.7257500  34.1164131   7.5942378
  48.4476700  34.2959328   6.6960859  48.4528122  33.2128639   7.7534027
  83.5203323  31.3233852  67.6772995  83.1244507  31.8417721  66.9767380
  83.0245819  31.5613480  68.4607773  56.7676659   6.4442000  65.8512344
  56.5257416   7.2890606  66.2305984  56.1689301   6.3329988  65.1127319
  84.2332306  21.3277435   0.2561717  83.8943939  20.4458637   0.4101509
  83.8746567  21.5767479  -0.5956806  73.2930984   8.5269651  43.1411858
  73.0882950   8.6149616  44.0720711  73.4861069   9.4191246  42.8530312
  46.2451324  12.4029846  87.5742569  45.3063889  12.5812712  87.6308975
  46.6153107  12.8188744  88.3528671  51.3247948   1.4352275  62.6561699
  50.6613808   1.4893470  63.3440514  51.1469574   2.1878848  62.0921555
  73.5400085  69.4124985  85.7168579  74.2605591  68.8584518  86.0169754
  73.5325317  70.1482239  86.3291397  35.6387787  49.2726364  23.0547657
  36.0675316  50.0202065  23.4713478  34.7597656  49.5875320  22.8440285
  14.0922794   6.2133975  76.8730240  14.8058767   5.5754628  76.8659058
  14.0159359   6.4975429  75.9621658  22.1050644  28.7090626   9.8082180
  22.7837124  28.9785080  10.4271412  21.7702446  29.5300503   9.4475145
  42.3249435  63.3228722  82.0317230  42.9866562  62.6347504  81.9620514
  41.7264366  63.1541786  81.3040085   6.3904171  60.5267601   2.8332746
   6.7794881  60.0892105   3.5905108   5.4809880  60.6827393   3.0879123
  56.9071388  59.9406700  55.5633698  56.7958298  60.2481194  54.6637497
  56.0911064  59.4815865  55.7622833  46.9859085  69.0311890  11.7512197
  46.7746506  69.1474380  10.8248892  46.8250656  69.8895493  12.1431103
   8.7804394  57.8686104  86.1192245   8.6234379  58.4215698  86.8846130
   9.1255264  58.4679680  85.4574738   3.5016913  61.3925896  70.0255432
   4.0929799  61.0812607  70.7108765   3.3378847  60.6217690  69.4821854
  77.9523926  20.9357262  30.0634403  78.0093307  20.1133175  29.5769920
  78.4526062  20.7757702  30.8637142  10.3064995   4.3013110  74.5843430
   9.7156668   3.5535204  74.4951324   9.7627563   5.0619555  74.3794174
  81.0365143  38.0392227  71.0605621  81.5912628  37.2710991  70.9246521
  80.5310440  38.1158180  70.2513275  32.3136749  11.7434778  72.9395065
  33.0581322  11.5909548  73.5215225  31.5468864  11.5248356  73.4690933
  31.4479847  15.7392006  31.1817207  31.5018463  15.1514330  30.4281559
  30.5785675  15.5790424  31.5487328  16.4167061  14.1606617  19.4363747
  16.5059052  13.2132530  19.5397816  17.2317295  14.4333849  19.0149574
  85.3211365  45.5044823  49.0070038  85.2044754  44.6455803  49.4130974
  85.0357590  46.1265602  49.6761894  12.0171652  28.9539604   9.5123348
  12.8935881  28.5965805   9.3695221  11.4309807  28.3276215   9.0876951
  15.7595949  10.7805920  23.4604435  16.2000332  11.0490150  24.2667904
  15.3505421  11.5816088  23.1329060  72.0375595  32.5830536  67.1268311
  71.5450134  33.0880127  66.4798050  71.3846359  32.3267174  67.7781448
  44.1145058   3.2903249  73.4739838  45.0185204   3.0316851  73.2948303
  43.7064896   3.3490191  72.6100922  33.3995857   4.6488695   9.7517395
  33.1441727   4.7430735   8.8340683  32.5832100   4.7563105  10.2398176
  25.1415577  39.5997238  73.3090591  24.8111763  39.0461464  74.0166168
  25.9497204  39.9764633  73.6571579  25.7367077  63.2828255  33.3085480
  26.3756218  63.2850952  32.5957947  24.9187756  63.0051079  32.8961220
  76.2629242  10.1384296  77.2593536  76.8409653   9.3763428  77.2229462
  75.4818268   9.8699160  76.7756042   1.2237233   8.9336052  42.4782906
   0.9729260   8.9047270  43.4015961   1.3301017   9.8656559  42.2880325
  49.2970047  15.8410854  40.6504021  50.1687431  16.1996117  40.8170204
  49.3305130  14.9538918  41.0081673  83.1766663   9.9203491  15.8986444
  83.5576248   9.4044781  15.1880264  83.2996750   9.3802614  16.6792889
  84.8818130   3.1189947  57.6270447  84.6377869   3.4231048  56.7528610
  85.6794128   2.6081223  57.4889336   8.1475010  61.2517548  21.3181572
   7.2651844  60.9245224  21.1430302   8.5612993  60.5602112  21.8346577
  69.0688400  33.4475708  26.2426643  69.5973434  33.0098305  26.9099712
  69.7007217  33.9496307  25.7279949  14.6326666  51.8433075  61.1790695
  14.6239328  51.2607536  61.9385376  14.2292242  52.6524811  61.4932404
  42.2070541  55.2085571  33.5841827  41.3055687  55.1534882  33.9012299
  42.3548851  54.3754158  33.1366882  11.4761200  42.1007881  78.0827332
  10.8506622  41.3980560  77.9060898  11.8141193  41.9064484  78.9569321
  49.2666092  29.9641609  86.2964096  49.6246986  29.1674042  86.6877899
  49.3398705  30.6236935  86.9862442  58.4137306  46.5745888  54.0347519
  58.6356926  45.6638031  54.2282295  58.7268600  47.0641861  54.7953300
  53.6232796  39.8136215  28.1645603  53.4624786  39.1730804  27.4716816
  54.3666878  40.3270035  27.8483067  22.8506203  44.2423973  57.2888641
  23.4998360  44.2506599  56.5855255  22.0959110  44.7041779  56.9236145
  67.3372192   7.1417994  14.5665436  66.9284515   7.3502741  15.4065886
  67.8477249   7.9215980  14.3485203  44.6994171  53.7786751  19.2383308
  44.3696518  54.6117172  19.5752697  44.8160591  53.9290657  18.3002434
  46.0302162  37.9015999  61.4791412  46.8294945  37.5231133  61.8453827
  46.2637100  38.8084373  61.2807541  44.6834793  24.8365021   9.4136705
  45.1850586  25.4680290   9.9292526  43.8279953  24.8034115   9.8417892
  80.9682541  30.1845474  60.4595146  80.9212189  29.3113022  60.0703316
  80.4902649  30.7451820  59.8484116   4.6195164  41.0760994  31.0146847
   5.0146775  41.8591995  31.3978710   3.8171191  40.9414978  31.5189381
  21.3059349  47.3703651  70.1058121  20.5409203  47.0493546  70.5832367
  22.0461731  47.1749268  70.6803436  58.6987686   7.1469359  51.9249496
  58.8147392   6.9549937  52.8555069  59.5665627   7.0149026  51.5431976
  31.3832073   8.2630043   3.7110524  30.6537323   7.6462398   3.6502154
  32.1024628   7.8293104   3.2519109  39.6371841  37.8192749  73.7950439
  39.8296471  38.7352219  73.5944672  40.2783279  37.5808830  74.4646225
  62.1770515  26.9628105  15.2541571  61.5066299  26.5099335  15.7656927
  61.9530334  26.7718811  14.3433371  75.8411942  34.2968330  27.4984932
  76.3883133  35.0820999  27.5142841  75.0691147  34.5529556  26.9939976
  78.5880508  55.7501297  48.1347389  78.8235168  55.4480972  47.2574921
  78.6418228  54.9656715  48.6806030   7.8558631  64.7602234  41.9513092
   6.9107213  64.8426895  41.8242683   8.1552057  64.2507935  41.1982422
  34.5175858  61.6835747  41.4126892  35.0630417  62.2957954  41.9065475
  34.6315193  60.8457184  41.8612938  62.9063606  42.0711441  45.4589539
  63.7081604  42.5135040  45.1802635  62.2165756  42.4680748  44.9270973
  66.0894699  62.9101486  39.2134247  66.5785828  62.1488724  38.9012413
  65.1999512  62.5839233  39.3496628   0.2762206  24.7627201  66.0907059
  -0.1504486  23.9058743  66.0915527   1.1797299  24.5801239  65.8327103
  25.0745335  33.7509422  22.3071098  25.0974579  34.4975777  22.9056416
  24.8108902  33.0121918  22.8557186  68.6126556  58.2498512  19.8436298
  69.0966263  59.0354881  20.0981369  69.2435074  57.7311172  19.3444614
  80.6856003  57.9540901  51.3366776  79.8214722  58.3445587  51.2060661
  80.5216675  57.1882362  51.8869743  38.0893440   7.3387475   7.3907847
  38.7974625   6.7097416   7.5291758  38.1445160   7.9304395   8.1411762
  14.2582197  17.0282211   4.8808584  13.8998413  17.2223263   5.7469525
  14.8817596  17.7354279   4.7156677  77.1224976  30.2150249  53.1919174
  77.0857391  29.6764660  52.4014549  76.2102051  30.2936611  53.4707985
   5.6945119  25.0732479  70.0457077   5.1392417  25.2939034  70.7935104
   5.3177080  24.2650223  69.6978226  75.9011688  71.0162888  69.7065506
  75.6251831  71.5259628  70.4683228  75.8708954  70.1067200  70.0031815
  82.8728409  11.2164917  32.4088211  83.5206223  11.0769796  31.7180614
  82.9124146  12.1559219  32.5880852  80.8473892  59.8666077  86.5667038
  80.1112747  60.3148689  86.1502609  80.8155212  58.9766808  86.2156296
  22.2225666  43.1088066  59.9318504  22.3314381  42.1583939  59.9648781
  22.4448090  43.3441849  59.0310555  78.9692078   8.0126677  18.4466534
  79.6999588   7.7383904  19.0007343  79.3774719   8.5220346  17.7465858
  76.1254730  64.5470734  78.8539352  75.7678680  64.4496689  77.9714050
  76.5675583  65.3959732  78.8408813  44.4532547  65.8916550  46.4682617
  45.3523750  66.2196960  46.4823990  44.5187759  64.9986115  46.8065147
  70.5797501  23.5977192  77.1943588  71.1233139  23.4615974  77.9704056
  69.7841568  23.0946045  77.3679504  22.2042255  13.7924328  53.1677551
  22.2962685  13.7318068  54.1185875  21.9985428  12.8999205  52.8896446
  51.0322037  54.3119698  55.6275940  51.6446228  54.2683716  54.8932419
  50.1933594  54.5397148  55.2267113  71.9653320  39.9940147  40.0736084
  72.1081772  39.8541946  41.0097046  71.9421844  40.9457779  39.9743881
   3.3752487  65.9889374   1.3525535   2.9926078  66.8576050   1.2291137
   3.2889636  65.8203354   2.2908292  65.7337112  47.5163651  86.5510559
  66.3407135  47.6373138  85.8208847  64.8912582  47.3345871  86.1345825
  30.8760395  32.4598160  -0.0813944  30.9465466  33.0652504   0.6566488
  30.2015476  31.8350258   0.1849383  31.0985088  25.7449608  16.2336655
  30.3751945  25.9218082  15.6321888  31.7966576  26.3344975  15.9485950
  34.6684113  41.9103775  10.2444935  34.0316849  41.2366524  10.4830475
  34.7738342  42.4326096  11.0397234  61.0805359  60.5650253  63.1762810
  61.6288757  60.7437630  62.4123383  61.6412964  60.0530815  63.7591057
  57.6498871   8.0869312  22.5130329  58.0170860   7.9119759  23.3795128
  57.2365608   8.9461899  22.5971031  59.9720345  56.1260490   5.3029051
  60.3120575  56.7257500   4.6388478  59.6378899  55.3806725   4.8039112
   2.6207325  12.3514671  61.5240479   2.8427815  11.5538607  62.0044136
   3.4632025  12.6927891  61.2240906  37.6337204  27.1314697  65.7215042
  38.0439377  27.1435452  64.8567429  38.2636833  26.6748657  66.2790756
  65.1483459  70.3708344   1.1756986  65.3572540  71.3038177   1.2218233
  65.8826599  69.9390945   1.6122901  43.3062897  39.8412399  26.7688980
  43.9927254  39.3014641  27.1609211  43.4800873  40.7241020  27.0953712
   9.0614271  11.3140926  81.5695343   8.3145285  10.7373943  81.4089355
   8.8522425  11.7529278  82.3940964  43.0985794   4.2064643  65.1466293
  42.3102875   3.7040977  64.9405746  43.1582069   4.1775880  66.1015396
  75.8737488  33.7821083  42.5750847  75.5235214  33.0197792  42.1141777
  75.1429749  34.3995323  42.6065788  78.4421616  41.1234283  15.6016216
  77.7414932  40.5083580  15.8183775  78.7087173  40.8800926  14.7150726
  31.1788578  14.7041616  72.2438736  31.4570866  15.3168039  71.5630798
  31.9914627  14.3021851  72.5509872  26.2983532  71.2445297  40.9385757
  25.9618282  71.7215118  41.6971779  25.6610355  70.5452805  40.7933044
  22.4659672  14.9694014  59.9997826  22.8514042  14.6549768  60.8175888
  22.9887085  14.5545559  59.3135796  15.8035297  21.1289501  67.0508270
  16.2673721  21.9425392  66.8529510  16.4212551  20.4372959  66.8136292
  76.7115326  42.8409195  74.8573227  77.2610550  43.5830460  75.1093292
  76.6369553  42.9104118  73.9055634  53.3984413   8.6957617  69.0173416
  54.3329124   8.6776371  68.8107834  53.1402016   7.7743282  69.0398254
  63.0823936  35.5030251  88.5201187  62.3151703  35.6260109  87.9611282
  62.9099350  36.0491257  89.2871017  49.8268318  16.3785763  62.7822495
  49.0007553  15.9334841  62.9712448  49.9148903  16.3261185  61.8305550
  55.8712883  55.9821548  48.5626678  55.4548073  56.2741699  47.7518044
  56.4414444  55.2620468  48.2932281  22.8322010   3.1431375  77.3944931
  22.3282967   3.9354775  77.5802612  23.0068417   2.7630026  78.2554398
  78.0639038   7.7525139  84.3387833  78.0288467   7.9360747  85.2775650
  78.9433823   7.4028010  84.1958008  70.3816147  20.3375702   2.8929722
  71.0408401  19.6515503   2.7879393  70.3915634  20.5380249   3.8288949
  63.8619232  22.3317738  48.3613510  63.6527596  21.4807396  48.7463455
  63.4556808  22.3090572  47.4949341  28.8486347  22.1317062   4.5164456
  28.2186394  22.8502483   4.4613671  28.4547539  21.5145683   5.1330752
  52.1380386  11.2600574  66.3800888  51.2874641  10.8934927  66.6217117
  52.0102882  12.2078762  66.4194641  25.3028126  12.1576490  59.8418121
  25.1661739  12.9452839  59.3153229  26.2089977  11.9053335  59.6646156
   5.0734558  57.1261597  59.5689964   4.5446873  57.3751793  58.8109550
   4.8475623  57.7698517  60.2404594  47.0130959  49.2082596  62.4461250
  46.2578735  48.7901649  62.0325165  47.7102814  48.5549965  62.3877487
  62.8464775  46.9341011  25.5223293  62.4126244  47.5655060  24.9484558
  62.2321510  46.2024117  25.5812168  21.4927292  32.1140404  82.3638153
  21.8383522  31.2502518  82.5888596  21.6451130  32.6442261  83.1460648
   3.4383206  53.6540871  88.5266876   2.6451099  53.1223297  88.5921097
   3.1252379  54.5575905  88.5701904  21.0994778   8.8175488  23.2702026
  20.6344700   9.6160984  23.0205669  21.3665733   8.9693871  24.1767559
  83.6379700  50.0726852   1.7025120  84.2694168  49.3904495   1.4743356
  83.4474792  50.5099792   0.8726205  27.4856987  22.8332405  78.8212891
  27.0869465  22.7692471  79.6891174  28.1770725  22.1712646  78.8259735
   5.7030292  28.6840878  46.8855362   5.5546694  29.3735771  46.2383690
   5.4527917  29.0808830  47.7198982  14.0403242  46.3665009  60.4656754
  14.9223909  46.6848679  60.6575928  13.7407465  46.9139252  59.7398567
  18.4555626  42.9814911   8.3875341  19.2789822  43.4655952   8.3254814
  18.2655945  42.9512253   9.3252058  26.3414326  50.3553848  74.7296600
  26.0536098  50.1656303  75.6226273  27.2796135  50.1655998  74.7349854
  25.0776367  57.3204880  65.8433838  25.6111279  58.0778885  65.6026306
  24.2018375  57.6797714  65.9852371  42.4375153  60.1826134  64.7110596
  42.6646805  59.8076363  65.5619583  41.6041946  59.7707672  64.4826050
  45.5904083   0.8868809  37.1635323  45.3526115  -0.0211125  36.9758301
  45.9763985   0.8573141  38.0389595  83.1805267   8.2563105   5.0391378
  83.9824600   7.7401514   5.1211109  83.4662476   9.1626263   5.1539679
  58.6129112  51.6508484  77.0801697  59.4535789  51.4192162  76.6853867
  58.0230293  51.7687302  76.3356094  23.2575855  59.3003197  11.9669180
  22.3234196  59.3618393  12.1663685  23.6815643  59.8346825  12.6384306
  81.2768021  18.0220871  27.0832863  81.9330826  17.4143333  26.7424564
  80.5156403  17.8949547  26.5169849   1.9951954  60.0110474  38.6037712
   1.0704330  59.7673683  38.6446075   2.4263084  59.4191017  39.2201920
  77.4151077  34.7252998  70.8286133  78.3135757  34.5898705  71.1296921
  77.0948334  35.4592209  71.3530273  49.5359154   6.6025805  69.7750549
  50.1427879   7.3392348  69.7024002  48.9641113   6.6871781  69.0120926
  68.0749054  55.7900772  56.0415459  68.7817383  56.0007362  55.4314270
  67.5055542  56.5593224  56.0233078  35.9785156   3.3292875   2.3864801
  35.1104088   3.6569645   2.1514292  35.8157997   2.7071178   3.0954647
  16.3228073  55.9677887  32.2642365  16.7617970  55.7701607  31.4369144
  16.5116043  56.8930855  32.4204979  36.7757721  18.7321663  73.5839767
  36.6087189  18.1482563  74.3238220  36.9180412  18.1441879  72.8421783
  78.0185852  27.5989590   2.8461637  77.4370193  28.3567429   2.7846839
  78.8996811  27.9729691   2.8504648  77.9737396  22.2855949  85.0474091
  77.9907684  23.1478024  84.6320267  77.5316238  22.4313622  85.8837814
  27.8366508  45.8010788  65.3237000  28.6451359  46.2445831  65.5803909
  28.0169754  45.4631271  64.4464874  64.4923248  12.1633282  38.9639091
  64.0578232  12.6847887  38.2889900  64.8131104  11.3901367  38.4996910
  15.3691664  47.7308807   9.6185980  15.2432775  46.7918358   9.4822989
  16.2745762  47.8100510   9.9189291  44.5794830  52.2727356  16.1584530
  44.3751030  51.5898857  15.5195656  43.8987770  52.9331589  16.0291882
  82.8450317  38.3868370  80.2148819  83.4401779  38.9332924  80.7281189
  83.0898361  38.5552750  79.3049774  33.2859726  59.4766655  46.2266884
  32.9820671  60.1231117  45.5895195  34.2407684  59.5311699  46.1863899
  34.7535133  55.3894119  43.7016296  33.8965111  55.1459312  43.3516388
  35.0296440  56.1317482  43.1641159  14.5833635   3.8270345  42.1084099
  14.2742548   3.1010058  41.5665932  15.4742270   3.9934270  41.8003387
  42.1144295  30.4639416  17.4162426  41.4464111  30.0274239  17.9448605
  42.2771606  31.2904949  17.8707314  77.8951645  29.6579857  67.6719666
  78.6354446  30.0174503  67.1830826  78.1453629  28.7521133  67.8536987
  67.9482117  35.6744652  22.7365017  67.3778534  36.2982178  22.2872181
  67.3863449  35.2686996  23.3967247   3.3131752  45.5614014  67.8157349
   3.6139965  46.4302864  68.0817871   4.0703259  44.9926605  67.9553299
  12.8376427   2.6340587  23.1788902  11.9733467   2.8327458  22.8186836
  13.2404375   3.4906180  23.3213463  84.7919083  48.3747063  14.7954636
  84.4823761  47.5978737  14.3296824  85.4614563  48.7471008  14.2216511
  48.2440605  46.2928162   5.7566528  48.9017754  45.9938202   5.1287665
  48.5406113  45.9454308   6.5978489  15.8224945  30.2094765  62.6902542
  16.3014755  31.0131588  62.8925018  16.0178242  30.0397110  61.7687035
   3.8529217  59.3508873  29.7653313   3.6299927  59.2670822  30.6924305
   3.7076092  58.4764748  29.4040585  17.3385010   5.8401241  69.4059143
  17.3378849   6.7417331  69.0844574  17.4830132   5.9220395  70.3485870
  39.0827789  36.5503235  70.8252945  39.6456680  36.3760986  71.5796432
  39.0512657  35.7184868  70.3527679  65.5078583  32.0903091  41.1663322
  64.8928223  32.3668861  40.4870186  65.8656464  32.9077721  41.5127106
  42.4167290  34.8376427   7.4349399  42.3655624  34.1399422   8.0882635
  42.8047600  35.5765953   7.9035621   3.2738054  66.0972366  60.9635696
   3.7491477  65.6002274  60.2977905   3.7316926  66.9366302  61.0082245
  14.9064503  47.5119171  83.2845840  15.0344992  48.1185150  84.0138779
  14.0233402  47.1657791  83.4131851  32.7467041  28.6550159   6.7885423
  31.9539223  28.8827553   6.3028860  33.4077911  29.2693748   6.4695430
  64.5805969  17.3566475  24.0474777  64.5802994  18.1974144  24.5050201
  65.4614410  17.0087147  24.1863251  57.4343033  67.1944962  30.0579777
  57.3404121  66.2436523  30.0004692  57.9028091  67.4376450  29.2594681
  80.7736969  42.8434258  31.2695675  80.3254166  42.0451965  31.5490456
  80.9218292  42.7192154  30.3320942  31.2448654  38.5024719  25.0254288
  31.9272175  38.5160179  25.6965809  30.5642872  37.9348907  25.3872242
  59.2866135   6.7245164  86.6293793  59.3220901   6.2993073  87.4862137
  58.3981476   7.0762229  86.5731354  78.4187088   0.6637699  15.7512589
  77.9619751   1.2125973  16.3887653  77.9665146   0.8303965  14.9242229
  14.6687307  19.9307156  84.1953659  14.3690128  19.0253220  84.2770004
  14.9214067  20.1804295  85.0841980  68.4760818  12.3557196  22.8700523
  69.3427200  12.7453918  22.9854622  67.8913345  13.1037836  22.7487869
   7.2578917  32.1544037  50.7979660   7.3488617  33.0793533  50.5690079
   8.1232805  31.9008999  51.1190109  75.0613022  51.6554871  71.2033386
  74.7648392  52.2743454  71.8706894  74.7040482  51.9975891  70.3838501
  68.5771790  28.9192448  31.6684017  69.3508072  28.6220036  31.1894588
  68.8921204  29.6475048  32.2038269  16.9194756  13.3347158  65.3961258
  17.7112255  13.3118315  64.8586884  16.3599319  12.6511545  65.0275040
   7.5181198  55.6691360  86.3097687   6.7145023  56.1620941  86.1441727
   8.2099066  56.3306885  86.3064270  84.0343628  52.7928658  80.2114487
  84.3699341  52.0077820  79.7787018  83.1759949  52.5334282  80.5462952
  19.7136269  44.3123894  34.8309860  19.6310329  44.6969910  35.7036247
  20.1555347  43.4762344  34.9786110  12.9988184  37.2220650  17.5277596
  12.3671188  36.5103645  17.4244804  13.8530102  36.7922325  17.4849911
  71.1653671  13.1382465  27.2497368  70.6498795  13.2761536  28.0443993
  70.5468445  13.2861338  26.5343437  49.5054054  13.1290150  37.1697311
  49.8174248  14.0210447  37.3219147  48.7979393  13.0113144  37.8036613
  85.2246552  65.9059143  61.3723183  84.6172180  66.3106155  60.7530594
  86.0800705  66.2667160  61.1392441   6.0544333  29.1215477  15.1498117
   6.7901812  29.6310616  15.4893751   6.4062991  28.2385139  15.0372314
  13.3100491  20.4690094   0.4409316  13.2920599  20.8977604   1.2965486
  12.6177397  19.8097305   0.4887936  52.9283638  51.7120705  88.1604614
  52.4982681  51.2113304  88.8536530  53.7733231  51.9618874  88.5344467
  50.3199310  67.6027374   8.6049871  49.9544487  67.1443329   9.3616390
  49.5864792  67.6806030   7.9948936  77.6689758  69.6943817  81.2844391
  77.6520767  68.7991104  81.6227264  78.5585632  69.8071213  80.9495468
  63.7401924  64.1516190   4.2214689  63.0787544  64.7045364   3.8055191
  63.5416756  64.2028809   5.1564541  18.6746082  31.8492146   9.5013857
  17.8725834  32.1544075   9.0773048  18.4681015  30.9614220   9.7936335
   0.5326775  43.6337738  18.0235481   0.9300396  42.9811859  18.6001434
   0.9760469  44.4522209  18.2467060   7.2156949  55.8288078  15.6254044
   7.4992952  56.6654243  15.2567930   7.6332941  55.7923622  16.4859352
  31.8767338  18.3822689  78.1972733  32.0740433  17.4806252  77.9436188
  31.1364765  18.3052120  78.7991943  17.8354511  41.2925072  68.4316254
  17.1042557  41.5649567  68.9860229  18.5638199  41.8503609  68.7045898
  66.7122879  37.8153152  20.8784370  67.4384155  37.9780655  20.2763672
  66.0145493  37.4668312  20.3235111  52.4232140  42.9235268   9.7997122
  52.6830444  42.3682938   9.0645695  52.2834740  42.3128319  10.5234222
  42.9979210  69.4591446  59.2084427  43.1928177  69.5062485  60.1444054
  42.7163162  70.3443756  58.9775848  56.1845551  26.0042152  19.0635967
  55.7183075  25.6594486  18.3020306  57.0818329  25.6878624  18.9585171
  48.2883530  63.9384155  25.3355064  48.6071396  63.5084534  24.5419445
  48.6659393  64.8172760  25.2999115   1.8336548  54.4284554  48.5149918
   2.1410084  53.5250549  48.5900383   1.2003317  54.5258331  49.2260818
  31.3004761  57.9257393  60.3796997  31.9593334  58.5698853  60.6389580
  30.8444214  57.7090034  61.1928864   1.9608622  56.1496773  27.6352329
   1.2994239  55.4681625  27.7547054   2.4346895  55.8878212  26.8458347
  26.5211201  43.8767624  86.8786621  26.2423916  43.1507378  87.4367218
  25.7344971  44.4113007  86.7703781  58.7924728  24.7357750  64.7746048
  59.3066902  24.7335892  63.9672585  57.8868484  24.6333809  64.4820404
  61.8283539   9.4810362  15.7804489  61.9581642   8.7321882  16.3623505
  61.3437347  10.1144667  16.3097324  34.0431061  21.2730370   1.3763869
  34.8285942  21.7166843   1.0563680  33.3575439  21.9397182   1.3342979
  82.9838181   1.6234230  21.7834377  82.6751938   0.7442268  21.5643559
  82.5177917   1.8470206  22.5890789  48.7342529  59.0360069  -0.0899049
  49.1500626  59.3664856   0.7064111  48.0211220  59.6512184  -0.2607521
  26.7224083   2.2517493  86.1169815  27.5064259   2.0177770  85.6201859
  26.0576897   2.4215152  85.4494781  27.5632648  45.5105782  43.2765770
  27.3112068  46.4177322  43.1040230  27.3755894  45.0501251  42.4586601
  39.1972084  46.5858421  51.1428604  39.7798729  46.5635109  50.3837585
  38.5007401  47.1928444  50.8924294  25.6996670  12.2982769  67.5422745
  25.4584942  12.0017090  68.4198303  26.6431370  12.1458435  67.4887924
  54.3306694  34.9390907   7.9636502  55.2441406  34.7307091   8.1595669
  53.8495560  34.1431808   8.1901283  81.3292389  44.0874634  53.2655983
  81.5391388  43.2203598  53.6124535  80.5812073  44.3792343  53.7866974
  16.3612232  62.0739861  44.3394966  16.9312325  61.7256241  43.6539536
  16.3018608  61.3680992  44.9832611  85.0145645  66.4541321  17.5885067
  85.6405869  66.3051682  16.8798904  84.8720627  65.5871811  17.9683914
  81.4404831  59.7317810  75.9255447  81.3963776  60.5552864  75.4396210
  81.2746353  59.0564041  75.2678299  51.1226311  59.7286301   4.2727222
  50.7461395  60.6015472   4.1608963  51.6259079  59.5804939   3.4720981
  54.2027130  62.8514938   6.3579865  53.4677849  62.3184357   6.6612453
  54.6270256  62.3154411   5.6880336  19.4976120  51.8054428  82.8290024
  18.8131218  51.4780617  82.2454529  19.7401752  51.0483398  83.3620987
  70.5014725  25.2522068  21.3324261  70.8042984  26.1206226  21.0671272
  71.1789017  24.6550331  21.0150833  68.9167252  59.7253799   8.7453804
  68.5577927  59.5104485   7.8844485  68.1779327  60.0978851   9.2266893
  49.0913277  48.2122536  59.3051491  49.1983986  47.8345947  58.4321404
  49.2533073  49.1477013  59.1829529  23.2365646  37.5762444  65.4225922
  23.5224228  37.3910599  66.3171463  22.5661526  38.2524033  65.5205154
  49.4158745   4.4074574  34.6235199  49.0964394   4.2010474  33.7451210
  48.8336563   3.9242094  35.2098007  85.8087997  59.6655121   1.8298473
  85.1750031  60.3777313   1.9151822  85.3321457  58.8854446   2.1136227
  80.4627533  70.9282913  85.1976013  79.9180374  70.9338913  84.4105301
  79.8986893  71.2887192  85.8818207  26.9928093  48.6792870  71.9417191
  26.5026436  49.2291794  72.5529327  27.1661186  47.8743248  72.4298096
   4.6823845  50.5971146  74.2423935   4.4215965  50.2374611  75.0902557
   4.8598285  51.5210876  74.4185104  85.1178894  71.0597992  34.9702148
  84.4571304  71.0249710  35.6618919  85.9331360  71.2650375  35.4279022
  78.6926041  11.1493845  39.2627792  78.7664948  11.9176617  38.6966324
  77.7619324  11.1016045  39.4814224  60.5412407  47.7919464  46.9253922
  60.4737778  48.6790924  47.2784538  61.4497528  47.5380058  47.0877266
  84.5071411  17.0967445  41.6569023  84.4961700  17.6891003  40.9050865
  83.6412506  16.6887665  41.6530342  80.7530975  64.2806091  52.8805885
  81.1966553  63.6103096  52.3607979  81.1730881  65.1009979  52.6221123
  22.6766796  66.9071884  34.9114571  21.8658028  66.4090576  34.8086090
  23.3708191  66.2517090  34.8425369  58.8271599  59.7201576  26.1902180
  58.5900955  60.4032860  25.5630264  58.4314308  58.9232292  25.8373222
   2.6841946  40.5382385  88.1814651   3.0539904  40.8780289  87.3665924
   1.7624707  40.7946663  88.1514511  57.9966545   9.1901226   9.0776234
  57.2037964   9.7079010   8.9379444  58.1864777   9.2896757  10.0105152
  16.8100414  60.9800377  70.1087418  17.2954216  60.4114265  70.7065048
  16.4568062  60.3857422  69.4467239  69.7724838   1.8929329  54.3839035
  69.0565796   2.2788277  53.8791237  69.9313507   2.5183604  55.0908928
  23.5672474  69.2036133  28.2377052  24.5091400  69.2185593  28.4075432
  23.2995186  68.3097763  28.4512749  65.2134018   7.2598624  56.1540298
  64.8983917   7.9647593  55.5882378  64.7437134   7.3864193  56.9784126
  81.7227173  15.0877504  69.5609283  81.7529984  14.1795530  69.2601089
  81.7175217  15.0236778  70.5159683  68.8209152  16.5034332  89.3065720
  68.5303650  15.5954065  89.3920212  68.3673248  16.8278427  88.5285950
  56.5396767  48.9009438   5.1679783  56.4956589  49.7435188   5.6200418
  57.4571266  48.6378059   5.2406197  27.9948978  30.7516518  70.7985840
  28.5554981  31.4243698  70.4120483  27.4580898  30.4396152  70.0700912
  78.9491653  62.5711555  10.9952078  78.2432251  62.9638748  11.5086679
  78.5000076  62.0678406  10.3161211  19.0635452  13.3764324  78.9893723
  19.4100151  14.2336788  79.2369995  18.2290764  13.3120832  79.4538651
  73.8999939  65.2069855  76.8287735  73.2403259  64.9571686  76.1817245
  74.7135239  65.2719955  76.3285980  28.2460651   4.5776386  42.2625771
  28.1759033   4.5073118  43.2146072  28.6011047   5.4538245  42.1126556
  85.3663330  52.6302872   0.9894978  84.7780991  52.6977158   0.2373907
  84.7969284  52.3806076   1.7172800  77.7341614  56.7283363  88.6234970
  78.2804108  55.9423676  88.6135559  78.0894089  57.2578964  89.3373566
  38.2383156  23.7202492   5.8745012  38.7973976  24.0868950   6.5595069
  37.7554626  24.4721775   5.5314398  45.2318764  46.0191040  27.8445473
  45.9035416  45.5220299  27.3776302  45.5583878  46.0781441  28.7423973
  53.9152679  37.0858765  86.1289520  54.6281815  36.4900284  85.8988419
  54.2557487  37.5935516  86.8655472  61.7175407  38.2808380  69.5550690
  62.4796295  38.4150238  68.9916458  60.9811935  38.2057953  68.9481125
  30.4829597  51.3108177  63.9411011  31.1953754  51.3144302  64.5803833
  30.3621197  50.3868141  63.7223663  47.6803894  17.5249023  38.6762314
  46.8139420  17.7513161  38.3382378  48.1602974  18.3531017  38.6790810
  68.9820709  45.0769157  65.9758377  68.5967178  45.9399834  65.8246841
  68.3097534  44.4603271  65.6859436  28.2656860  47.9914551   3.5571475
  27.3237534  47.8985863   3.4144220  28.5211906  48.7260742   2.9992180
  40.8917198  56.7014885   5.9070387  41.4286041  55.9250793   5.7483621
  40.0290604  56.3539696   6.1334853  24.6852589  28.1511765  19.4696369
  25.6211395  27.9594326  19.5295753  24.4013023  27.7105236  18.6687450
  23.5067692  41.5876122  85.4380112  22.9398727  40.8316078  85.5907135
  24.3139801  41.2141113  85.0842590  52.3975220   8.1546793  11.4404392
  52.5954170   8.7066488  10.6838684  51.5393715   7.7785673  11.2446022
  43.0993881   0.5733865  14.1258450  43.8026619   1.2184225  14.2004757
  42.9208298   0.5212824  13.1868916  73.3173141  26.2618771  51.0538406
  73.1901550  25.8070774  51.8864365  73.5043106  27.1673355  51.3016434
  38.6551094  66.7736664  72.9251480  39.1619301  66.2685852  73.5609589
  38.6403351  67.6617889  73.2818756  58.5462837  58.8298569  47.9788971
  58.0999680  59.0822868  47.1706200  59.3698654  59.3172836  47.9599953
  55.7231941  18.6081181  13.4960623  55.2826080  17.7638950  13.5930262
  56.0692520  18.5965862  12.6036806  74.2718048  58.6957436  53.2147293
  74.0593414  57.7747726  53.0633850  74.3124084  58.7787476  54.1674576
  62.2143326   4.8394399  44.2933807  63.1667747   4.7770114  44.3654099
  61.9816818   5.5911751  44.8383560  84.1612015  30.0348263  61.2537422
  84.5867615  29.8037529  60.4280663  84.6189346  29.5134907  61.9132271
  79.5701599  70.8141403  22.7429848  80.2971878  70.9265213  23.3553829
  79.5336075  69.8707504  22.5851383  76.0068588  65.7780991  67.8312836
  75.8079376  66.5434570  67.2919388  76.8968506  65.5321045  67.5790405
  23.5963097  50.0140724  82.9993210  23.7279778  50.9340668  83.2284698
  22.7376862  49.7972679  83.3626251   0.3313499  33.6021767  76.0032730
  -0.2305169  34.3667336  75.8768082   0.8642895  33.5626183  75.2091370
  52.0965805  44.3002548  22.1169720  51.8201408  43.4430733  21.7928543
  53.0505295  44.2895889  22.0388851   6.0346518   3.1617632  27.2382698
   6.0255346   3.2666080  26.2868729   5.7942677   4.0243063  27.5765991
  31.7782860  38.5505333  69.6974945  31.7747478  38.2582359  70.6089706
  30.8909855  38.3727722  69.3855133  30.8598862   6.7921686  66.2075958
  31.2134533   7.5567932  66.6620941  30.4649944   6.2629976  66.9006119
  75.2533798  13.1634102  55.5495262  75.2454147  12.3699427  56.0848579
  74.3300247  13.3965321  55.4530563  55.6688309  26.5636826  24.2467289
  55.4649963  26.2778721  23.3562241  56.5142555  26.1588345  24.4406013
  59.3854790  36.2820396  79.3983765  58.4342003  36.3559265  79.3219147
  59.6020622  36.7820320  80.1853561  57.9419479  40.3149452  21.7678986
  57.2991295  39.6770020  22.0778122  58.7735367  40.0144844  22.1345215
  68.4239349  60.7413483  87.2319336  68.0669479  60.4016266  88.0525360
  68.3284683  61.6910324  87.3041840  82.2400360  49.8646202  31.9713860
  82.6948776  49.0387497  31.8061962  82.6269455  50.4798965  31.3485126
  16.1701164  56.8649979   8.6355591  15.2224445  56.8635826   8.7702713
  16.4432755  57.7533226   8.8646755  56.5225601  17.4932480  87.0467377
  57.0833397  17.9547520  87.6702576  57.0500221  17.4314919  86.2503738
  63.2168732   0.3261949  53.4854279  63.9242287   0.7026587  52.9618301
  63.4539948   0.5299547  54.3901291  27.7612457  52.0076790  64.3794861
  28.6964760  52.0867348  64.1915283  27.7024860  51.2829552  65.0020218
  35.2900162   6.3491716  11.1210489  35.0093384   6.3366790  12.0360880
  34.6599770   5.7875156  10.6695766  78.7215805   2.5918672  79.6336594
  78.4107132   3.4895189  79.7512054  78.1143570   2.0589597  80.1470032
  42.1589851  62.6567802  17.2295723  42.7348328  61.9935760  16.8490601
  42.3453064  63.4512825  16.7292919  81.7703705  15.7281246  19.8123493
  82.1003952  14.9683542  19.3326950  82.5460205  16.2656479  19.9725609
  51.8784790  55.3732643  62.8926315  51.5919876  54.5100441  63.1909714
  51.3547096  55.9895973  63.4045181  63.0594025  26.9190483  37.1128197
  62.9796562  26.5238895  36.2446480  63.3679314  27.8091812  36.9433975
  81.6592941  16.3222198  34.3006973  82.5319366  16.7017097  34.4042130
  81.5873108  15.6888323  35.0147476   4.8213549  35.7836723  17.4171829
   4.7484093  35.5858650  16.4834900   5.7561374  35.9341202  17.5578213
  49.8242874  62.2448158   4.3318806  50.1763649  63.0238991   4.7623515
  48.9459648  62.5022774   4.0517097  45.7850037  45.0584869  59.1998558
  45.5675163  45.6735687  58.4994240  44.9401703  44.7070427  59.4808769
  10.0204773   0.7050464   7.1956758   9.2461615   0.2011228   7.4461308
  10.7035847   0.0468233   7.0678515  51.6594238  55.7640114  21.5129337
  52.1711273  55.2669411  22.1511459  51.7927628  55.3007469  20.6859894
  45.8263397  34.6410217   3.5011959  44.9140320  34.6385765   3.7908854
  45.9395905  33.7994919   3.0593457  26.9939518   8.0624065  10.7421703
  27.3957729   8.9187746  10.5958643  26.0535488   8.2396278  10.7637348
  26.7657223  15.2387829  16.2034760  25.8966846  15.6083097  16.0470924
  26.6304684  14.5942516  16.8981113  38.1485405  32.6752472   0.2826323
  37.2576752  32.5960045  -0.0584107  38.3726768  33.5970688   0.1551923
  36.1867294   8.5720720  35.1163368  36.7033768   8.6138506  34.3116226
  36.7341576   8.9996872  35.7748947  24.8717785  19.6864910  33.6083221
  24.4380341  20.1724491  32.9069366  24.8606262  18.7765102  33.3116035
  67.9900894  47.5470009  65.1066895  67.6865768  48.3028374  64.6038742
  67.4528198  46.8194427  64.7932816  45.3002968   1.8628660  12.2116289
  44.9069595   1.2195251  11.6220274  46.2429161   1.7686570  12.0744228
  78.7580185  48.5573997   0.4842449  79.6462784  48.3533821   0.7768192
  78.2036743  48.3440247   1.2348500  68.8002777   7.5632081  84.4522705
  68.9083023   8.5128994  84.4008026  67.8677597   7.4191532  84.2913513
  -0.2860604  53.7006149  40.6487312   0.3411661  54.1532135  41.2126236
  -0.0086205  52.7847214  40.6686935  85.4502258  10.0311069  67.5854111
  85.9058304  10.1542082  66.7526474  86.1463394   9.8356581  68.2126694
  86.6310654  40.8690872  13.5249710  85.7887802  40.4150581  13.5502176
  86.4564743  41.6704903  13.0315094  69.1528015   7.8517456  10.9312868
  68.2595673   7.8265591  10.5881758  69.6768646   8.1993294  10.2096386
  58.7548523  66.0564728  23.2794437  59.5442314  65.5295868  23.4039497
  58.1520538  65.7484055  23.9561710  52.7303276  43.6152000  36.0125618
  52.0894966  43.2238503  35.4189186  53.5327682  43.1155815  35.8618889
  31.2209244  39.4247513  19.5767879  31.3032246  39.0902863  18.6837082
  30.3125076  39.2432518  19.8177547  35.7213745  67.7581635  27.3093529
  36.1542740  68.5441589  27.6425838  35.0013428  68.0903473  26.7732182
  44.9021187   3.7967360  30.8190804  44.4127274   3.5943756  31.6164379
  44.3160439   4.3613496  30.3151340  12.8193922   6.4328985  54.2391205
  12.6205721   6.4277716  53.3028107  13.7330236   6.7141061  54.2884331
  17.0737591  33.8805542  20.4545116  17.4734764  34.1806221  19.6381683
  16.7952366  34.6838531  20.8942471  15.6660595  46.9672623   0.6971526
  16.4050350  47.4193306   1.1043186  15.1042747  46.7176247   1.4308493
  70.7048416  11.2297926  76.1761932  70.6349258  11.5826616  75.2891617
  70.2981720  11.8950968  76.7313690  24.2284966  70.5609512  31.9434452
  23.7652168  70.2394714  32.7169151  25.0983257  70.1660080  32.0038872
  54.9737473   1.5190274  65.9335632  55.2557335   1.0194273  65.1673279
  55.7886925   1.8056794  66.3457794  72.1229095  48.5776024  82.4726105
  72.4989624  49.4572487  82.5048981  72.7389374  48.0355301  82.9654617
   0.7594616  66.3271027   7.4607105   1.3978510  65.6467972   7.2465453
   1.2338865  66.9286346   8.0345707  43.9717369  60.1803894  49.1952591
  43.5242157  59.3624649  49.4119415  44.5275879  59.9586449  48.4482040
  20.1075039  54.9984589  46.4822197  19.3671818  55.5324440  46.7703400
  20.7907219  55.6330299  46.2659607  34.4895287  62.8486748  60.2547569
  34.3768578  62.0711365  59.7079735  35.1289368  62.5854263  60.9166374
  66.8394699  49.0833969  44.7173233  65.9992905  49.0756226  44.2587738
  66.6153412  49.2911949  45.6244202  18.9168987  57.7082672  58.0828705
  19.0111847  58.6455956  58.2524490  19.8152790  57.3879166  58.0021248
  17.4063549  40.8575439  43.9804726  17.9107456  41.0826683  43.1987190
  16.7526550  41.5530663  44.0522614  19.0503559  60.3962708   7.3104353
  19.5092106  60.6758194   6.5182643  19.3285751  61.0199890   7.9811053
  64.6810837  62.8686333  74.9159546  64.1127014  63.5333290  75.3049850
  64.1600723  62.4938316  74.2058105  59.0647202  68.8406219  33.4446983
  58.4184074  69.2240448  32.8518295  59.8911552  69.2567444  33.1995888
  36.3203087  26.5892811  69.5940018  36.1026955  26.8616619  68.7025452
  36.4962311  25.6511765  69.5215912  58.5806885  60.9512062  78.0274734
  58.7694473  61.4704208  77.2458038  59.0941925  60.1514740  77.9135590
  21.0574989  11.5723991  25.9592228  21.1750813  10.6265736  26.0476570
  20.1379242  11.6776590  25.7152233  10.8799791  61.6543884  25.9184914
  10.8490133  60.8655052  25.3772583  11.7013912  62.0806046  25.6738434
  24.1338825  42.0762939  77.6641235  24.0676308  42.9020844  78.1436234
  23.2282982  41.8475952  77.4547424  60.2294693  56.3864403  48.7329674
  59.6143723  57.0633316  48.4506531  59.8532410  55.5693741  48.4057159
   3.3935871  33.3153496  11.4149303   3.4251368  33.5350037  12.3460522
   3.1024103  32.4037628  11.3936234  65.0776138  29.3884087  48.3938560
  65.3453903  28.6150799  47.8973732  64.3017044  29.7106457  47.9352150
  19.1122818   2.3478882  33.3188324  18.5782814   2.6525230  34.0525017
  19.9585667   2.7772601  33.4440308  11.9396677  56.9598694  16.5739632
  11.4310198  56.5213737  15.8918839  11.9922609  56.3189049  17.2829266
  65.9553528  33.6085587   9.9596653  65.2269135  34.1953888   9.7565908
  66.4387283  33.5331879   9.1369267  29.5881062   0.2008713  54.4463196
  30.1644554   0.4902940  53.7390099  29.9834595   0.5612674  55.2400742
  74.2208405   8.5799179  56.9007530  74.9776001   9.0872145  57.1943359
  73.9932175   8.0325975  57.6523285   7.4855561  52.5756836  37.4736519
   8.2036934  52.1265335  37.9194908   7.0643735  51.8935547  36.9506493
  12.3001595  66.7514496  60.1493034  12.4829931  65.8160248  60.2375069
  11.3452187  66.8122482  60.1742668  59.9927788  64.2621841  80.6595993
  60.2357445  64.7953796  79.9026947  60.7441101  64.3267441  81.2491455
  77.9867630  63.7883720  16.2183495  77.9637909  64.7450790  16.1978836
  78.5127182  63.5778732  16.9899006  60.9013748  49.4409409   2.3162940
  60.5652008  49.3156624   1.4288682  60.9057884  50.3902359   2.4389560
  18.7823048   1.1221454  81.5728073  17.9603081   1.1521955  82.0623474
  19.4110069   0.7378048  82.1837463  81.4950104  12.7184095  85.8812027
  82.3174438  13.1425505  85.6363754  81.2827148  13.0850019  86.7395554
  21.6695480  59.0820465  59.9795456  22.4711456  58.7078476  60.3451271
  21.4326992  58.4899521  59.2657127  53.7771568  12.3605080  82.9517822
  53.7096138  13.0003386  82.2430649  53.9078407  12.8884640  83.7394485
  12.2998199  65.9837952  22.5365219  11.7652426  65.7900238  23.3065300
  12.5742569  65.1256104  22.2133503  55.3381882  26.0978336  85.6155167
  55.9582291  26.0628490  86.3439102  55.8524933  25.8397808  84.8505783
  60.1154861  47.9137383  63.0236893  60.0057602  47.0524178  62.6208038
  59.9410095  48.5334625  62.3153572  85.5569687   5.8142095  58.1712074
  85.7011795   4.8745937  58.0591469  84.7022858   5.8761640  58.5977135
  13.9134560  69.6074371  54.2567749  13.7459860  68.6653748  54.2302513
  13.6090021  69.9288177  53.4080963  24.5994797  49.8096619  51.7508926
  24.0398998  50.2287674  52.4046898  25.4412384  49.6974983  52.1925850
  55.1664467  57.4278564  78.0598373  54.9646645  56.9903870  78.8869629
  55.8049698  56.8548431  77.6353683  53.9972763  45.5250244  10.6886940
  53.2719269  45.0024986  10.3465405  53.9517517  45.4057884  11.6373472
  78.8304749  65.7021713  35.2698822  79.1605911  65.5806885  36.1601028
  79.6035156  65.6095505  34.7130470  30.6685314  48.8484840  86.6462250
  30.6639996  49.0333633  87.5853882  30.4976044  47.9085770  86.5863113
  76.5160980  34.2893257  33.2607346  76.9022980  33.9065895  34.0485077
  75.7015381  33.8031502  33.1328354  25.7526493  23.7053547  18.4201584
  25.4101658  24.3826942  19.0033817  26.7032394  23.8076515  18.4664726
  82.0157242  58.0714645  30.7246857  82.2324219  57.2764511  31.2117443
  82.6192627  58.7323189  31.0641670  27.0759125  53.1507568  29.4654675
  26.7040596  52.7336998  28.6882801  26.3931026  53.0685997  30.1312408
  42.3233261   5.3867178  12.6397390  42.0099602   5.5267997  13.5332775
  43.1097946   4.8509545  12.7429705  72.7126312  14.5375051  25.8171749
  73.6248245  14.2475939  25.8262997  72.2394104  13.8542910  26.2920589
  51.8554611   1.1263347  16.9265156  51.1599426   0.9704930  16.2876072
  52.5529747   0.5215966  16.6735382  66.0983505  16.6572533  39.9041367
  66.7717285  16.0546837  39.5883789  66.4507217  17.5279827  39.7200317
  13.7996159  21.2838631  81.8163834  13.9591932  20.9921932  82.7139893
  14.2844639  20.6627197  81.2729340  16.1381817  37.9583893  11.6385050
  16.2824955  37.0739784  11.3020210  16.6049519  37.9759064  12.4740000
  37.2110710  64.5455093  24.1701469  37.5773506  65.2328873  23.6137486
  37.6113281  64.6923904  25.0271454  51.9947853   7.4690433  14.0041933
  51.2373390   7.9708281  14.3053827  51.9349136   7.4949841  13.0492201
  19.8039398  69.9477997  69.7515869  18.9076214  69.7011871  69.9796753
  19.8172321  70.9016876  69.8300552   1.0840122  66.9039154  50.9725800
   0.5545474  67.2601242  50.2591324   0.6869947  67.2611618  51.7669258
   3.9954398  40.1364441  37.7104225   4.3588161  39.2605591  37.8408699
   4.0394158  40.5451775  38.5748520  66.5631714  41.1443214  86.7547760
  67.2266312  41.3503418  86.0962906  66.8292542  41.6432304  87.5271225
   5.3074770  27.7831230  59.9725380   5.5034189  28.6355476  60.3613968
   4.4119720  27.5926075  60.2518349  77.7520828  20.8165035   9.9916811
  78.5654831  20.5354404   9.5726280  77.1189728  20.8676262   9.2755861
   1.1855999  11.6789427  74.1179581   1.1714287  12.1756315  73.2998352
   0.3658533  11.9119081  74.5538177  86.3780212   9.2088404  61.6250343
  87.1945267   8.7716284  61.8666878  86.2352295   8.9615698  60.7114143
  85.6011200  60.7428627  41.1646233  86.3683472  61.2725182  40.9477043
  84.9052963  61.3815575  41.3199577  10.8766155  10.8125315  62.6195145
  10.5408039  11.5214233  62.0709381  11.7544498  11.0995760  62.8709984
   4.9881520  41.6073189  76.4536896   4.6456656  42.3334427  75.9324646
   5.5199275  41.1013832  75.8393021  28.9984608  34.4324455  73.6769943
  29.9257240  34.4365005  73.4395142  28.8393078  33.5477028  74.0058365
   3.0423048   7.8374496  65.3296967   3.9015722   7.4861031  65.0963593
   3.2225971   8.4676218  66.0272675  85.6887512  50.8453293  33.6527977
  85.3950348  50.0704231  33.1737518  86.4633865  50.5512772  34.1320801
  79.1953583  11.2011480  44.2971382  79.3103943  11.7781191  43.5420876
  78.2628860  10.9850073  44.2935410  24.3194962  43.7587776   3.9641972
  25.1470699  43.4446716   4.3284645  24.2545910  43.3287697   3.1114869
  83.5221100  56.3327446  22.7075386  83.7614746  57.2593842  22.6909504
  83.9397812  55.9916039  23.4983654  81.8323822  41.9146194  80.3831024
  81.7384262  42.8558846  80.2367096  82.7685928  41.7885284  80.5375519
  19.9471741  11.1810923  58.1720200  19.9904099  12.0684786  58.5282631
  20.5427456  10.6727123  58.7225456  84.0880966  52.5232506  32.5777435
  84.7454453  51.9685097  32.9977341  84.0331726  53.2965279  33.1392212
  14.1750689  38.4694901  35.4349556  14.0663252  38.3073769  34.4978714
  13.5191498  37.9110985  35.8523293  66.0518723  15.7686615  13.5225954
  66.2174759  14.8272142  13.4727573  66.9186783  16.1586704  13.6356440
  82.5397415  44.5021362  71.1500320  82.3030396  44.2175484  70.2672958
  82.6236267  43.6897049  71.6491776  21.6538963  40.8527145  68.1967163
  22.3719711  41.4505119  67.9887772  21.2468853  40.6639938  67.3511658
  18.8721848  10.0812969  16.9141026  19.1879883   9.2079735  17.1460629
  18.0352802   9.9249802  16.4766254  81.6812897  36.8768539  45.0439453
  81.8203888  37.3422699  45.8687286  82.4247131  37.1310120  44.4971809
  63.4636688  62.9721336  85.1233292  63.6679726  63.1508980  86.0412216
  63.5389481  62.0213737  85.0419693   0.0667006  64.4141159  51.3748207
   0.3772321  63.7802582  50.7282715   0.5312057  65.2229080  51.1595879
  73.5834656   5.3310943  47.0861320  74.0071106   4.7789621  46.4289360
  74.2953644   5.6032090  47.6652641  79.3236008  56.4168282  14.2616339
  79.2394180  55.7289734  14.9219360  78.6766891  57.0744743  14.5170374
  62.2406769  54.1076202   8.4104519  63.1407089  53.7900772   8.4835472
  61.7424583  53.3480263   8.1087494  12.1445627  14.6524925  24.6801243
  11.4336624  14.9692831  25.2373447  12.3214111  15.3783083  24.0816708
  27.1133728   8.1785412  59.3858681  26.4687996   7.6544328  59.8613358
  27.4104252   8.8284283  60.0227661  11.1487837  59.9899979   7.8926926
  11.4125528  59.8604469   6.9817181  11.9486628  60.2731552   8.3356905
  15.9542704  49.9122772  88.1763535  15.7418852  49.9528694  87.2438965
  16.7156296  49.3340645  88.2236328  53.2629700  34.8800850  28.8795605
  52.9049072  35.6875114  29.2484627  53.9778976  35.1716805  28.3138008
  54.9102211  11.0502014  56.3158112  55.6230354  11.6890373  56.3116417
  54.2330742  11.4504509  56.8612518  63.1088562   0.2076829  72.1347656
  63.6805000  -0.2780351  72.7293549  63.6995735   0.5599719  71.4690475
  28.5878353  55.7574310  86.3862076  28.6796703  55.0133247  85.7911377
  28.6055584  56.5249290  85.8144836  79.9779663  21.0389862  55.0023193
  79.0797806  20.8927097  55.2991295  79.8886642  21.6167240  54.2443810
  16.7286320  28.5628738   7.9142828  17.2805176  29.3407154   7.8329434
  17.3476105  27.8350906   7.9728608  36.6277924  36.9955864  16.3578758
  37.0011139  37.8274078  16.0664368  37.3000221  36.6167183  16.9242649
  35.8565025  21.0645237  85.8026886  35.8818207  20.2227364  85.3477325
  36.3169136  20.9053974  86.6266556  46.9600449  29.2850304   1.8402854
  47.4602127  28.5090752   1.5873891  46.2998924  29.3787880   1.1535258
   9.1466961  33.6074715  52.7233162  10.0374613  33.9538574  52.7760887
   9.2616806  32.6841393  52.4986801  59.5190544   4.1485915  84.8464737
  58.8906784   4.3280878  84.1470795  59.6877480   5.0036955  85.2421646
  18.8037300  54.4161453  39.6702271  19.3947525  55.1310806  39.4340363
  17.9536171  54.6825905  39.3201637  35.0850601  45.4541969  74.6657486
  34.9460220  45.0512505  75.5227966  35.0828323  46.3953323  74.8403625
  44.9418907  60.5342979  31.9606800  44.2257156  61.1280708  31.7353783
  44.7276611  59.7182465  31.5085793  46.9877510  50.4895744  59.5421448
  46.4634666  51.2738686  59.3801537  47.7808609  50.8153343  59.9676933
  61.4481735  62.5359955  27.0869694  61.7751808  63.0338135  27.8362865
  62.2373314  62.2325249  26.6382313  53.3510399  40.4497833  16.6245022
  54.1039429  40.0079880  17.0171623  53.7088814  41.2639809  16.2705803
  16.1892948  53.9339523  77.9615402  15.3131018  54.2946129  77.8257446
  16.7723885  54.5455551  77.5119019  52.1328735  24.0242939  31.7196655
  51.4836197  24.5521889  31.2548790  52.9529991  24.5067024  31.6152115
  13.4978714  44.2435417  48.9217339  13.4208889  44.5736084  49.8169212
  13.7338514  43.3217430  49.0258026  59.7338676  22.7460232  31.3558979
  59.0600624  22.1587830  31.6984882  59.3543625  23.6207714  31.4397144
  62.0637894  46.7519951  28.2945175  62.3873177  46.8833923  27.4032860
  62.4349747  45.9113998  28.5625706  19.0836525  71.4436035  45.4535713
  18.9261360  70.6832199  44.8938980  19.8438969  71.8748550  45.0633354
  42.7992363  12.4311447  64.1013336  43.0149956  11.5862217  63.7066422
  41.8904800  12.5897379  63.8459206  68.8703461  34.8118019  76.9207458
  69.0404205  33.8698997  76.9318848  68.3473129  34.9514313  76.1313324
  63.4716721   3.5007291  26.7256069  63.4910965   4.1393614  26.0128632
  63.9728508   2.7558918  26.3935375  69.7329407  16.3837223  23.2583847
  70.1767197  17.2310200  23.2212238  68.9615936  16.5410213  23.8029137
  28.7930946  33.3778992  70.3306351  29.7072659  33.1848221  70.5385895
  28.8367329  33.9344292  69.5530701  35.4671059  32.1714211  88.8273544
  34.5967255  32.5036163  88.6075516  35.3658524  31.2196083  88.8328171
  63.7145386   4.8363304  32.2891579  63.4192886   4.2680283  31.5777569
  63.9411507   5.6607456  31.8587914  59.2441292  36.6118927  24.5309811
  59.6822090  36.4108200  23.7040062  59.9566841  36.7022743  25.1636982
  40.5630188  54.8105965  75.4094238  40.0056229  54.4124146  76.0780029
  41.3727074  54.3008728  75.4379883  53.4377556  30.6947536  82.7468719
  52.9858017  31.5359535  82.6809158  54.0420685  30.6886959  82.0045776
  16.4735317   9.4970846   6.2213626  15.7016716   9.6688814   5.6819639
  17.1737251   9.3286810   5.5908060  77.4666672  14.0042677  13.6066437
  76.8610077  14.6132603  13.1841059  77.3437271  13.1794825  13.1366997
  59.9181519  38.9943123   7.2418294  60.4834785  38.2248230   7.1745391
  60.0059624  39.2771645   8.1520586  15.2390509  11.0420904  65.0178452
  15.5001402  10.1468792  64.8018341  14.8019257  11.3612032  64.2283325
  31.1129589  21.2312679  76.6653595  30.3784389  20.6186466  76.6278610
  30.7945499  22.0147076  76.2169495  54.6988792  59.4727974  85.9317017
  53.9754868  58.8766747  85.7378616  55.2591248  58.9820213  86.5329514
  50.7099953  64.2969666  88.8914795  50.4266129  63.4985123  88.4460602
  49.9661713  64.8938217  88.8094940  75.9928894  41.1939583  44.6148376
  75.3503189  41.9019737  44.6601028  75.6079865  40.5594749  44.0102615
  78.3512955  16.2938347  22.5430603  78.2322235  16.9954548  21.9029160
  78.2253647  15.4882431  22.0416679  56.6594124  31.3597088   2.2304382
  57.5314598  31.2951870   2.6198010  56.0871773  31.5920315   2.9617436
   1.7253464  32.5115700  29.6649227   2.1271484  32.9083252  30.4378223
   2.4250095  32.4973869  29.0118523   7.9512844  69.0735245  23.1938534
   7.6762786  68.1650467  23.0702934   7.3647866  69.4113693  23.8706970
  28.3357105  67.5720291  61.1175117  28.8949738  68.1281433  60.5751152
  28.7966709  66.7340317  61.1562843  54.8871765  41.8019981  26.7493706
  54.2691917  42.2373085  26.1621437  55.4614372  41.3048286  26.1668930
   7.7641840   1.2102816  37.3428497   7.9730086   0.5295548  37.9825668
   6.8156304   1.3194882  37.4103203  60.8129616  25.0206947  75.0615082
  60.7655678  25.1107655  76.0132828  60.1720581  24.3409786  74.8530426
  33.6285248  69.2876129  76.7111588  33.5905533  68.9994507  75.7991562
  34.4836807  68.9895172  77.0211182  11.8197107  68.4555817  28.4414158
  11.2977171  68.8983078  29.1105595  12.7049189  68.4321365  28.8048553
  85.7143097  31.2038269  74.4669571  85.9239197  31.9308434  73.8806686
  86.0534821  30.4291210  74.0186005  37.9264603  38.1754799  19.4838963
  38.0715408  37.3088150  19.1043262  37.5732231  38.6966515  18.7628994
  64.9103546  50.7800789  15.2134438  64.3976059  49.9804001  15.0958233
  64.4075089  51.4560242  14.7590466  85.1317368  24.1668205  35.6666374
  85.4466782  24.4313354  34.8023033  85.3649902  23.2408867  35.7335091
  57.0473595  67.0878296  87.0658722  57.8780632  66.9197235  86.6210098
  57.2530365  67.7664490  87.7088394  46.3425140  63.1063271  53.7746353
  45.9005699  62.2669296  53.9024086  45.6936226  63.7605476  54.0338020
  81.7101135  53.7124863  15.9258947  81.8161697  54.0872574  16.8002682
  80.7903214  53.8656082  15.7096310  74.5927505   4.5169144  82.0851974
  73.7370453   4.9399991  82.0145111  75.1562119   5.0158467  81.4937439
  51.4678879  15.8864393  28.6487579  51.0085297  16.2557201  27.8945351
  50.8037109  15.3686419  29.1037178   3.4954693  41.9468956  12.9825773
   3.2002029  41.6017456  13.8251448   3.2170131  41.2904625  12.3439960
  46.9032440  53.1973953  29.2099037  47.5134850  53.0897980  28.4803429
  47.2070084  53.9844284  29.6621609  57.1446266  52.2965012  54.2355881
  56.9741364  52.7486763  53.4093323  57.0137367  51.3701591  54.0331192
  25.9069023  56.2583008  44.9127922  26.5422592  56.0326157  45.5922165
  26.3254261  56.9627304  44.4179688  49.4705315  38.8154182  49.2158928
  50.1921997  39.4389496  49.1344299  49.8539581  38.0628014  49.6662102
  11.4362555  48.0808067  25.4056530  10.6121674  48.3264275  24.9851990
  11.5279255  47.1453323  25.2247677  33.0576172  50.4537392  13.4890108
  32.2997932  51.0294609  13.3866196  32.7155380  49.6870041  13.9487209
   1.9459821  47.1821938  56.3683624   1.9177601  47.7423286  55.5926819
   1.0278630  46.9883652  56.5573578  85.9280014  28.8604603  64.1897049
  85.6071625  27.9664726  64.0710373  86.4516296  29.0328503  63.4071922
  66.4598389  44.6326218  51.3434792  66.4768600  44.3915367  50.4172935
  67.1878204  45.2458153  51.4447784  20.7688522  19.3313332  72.4561920
  21.2693005  19.8798962  73.0602341  20.8288193  19.7846546  71.6152802
  35.7017899   6.6835027  86.9858780  34.8832321   7.1452880  87.1673965
  35.5207253   5.7735434  87.2212906  79.6382904  46.7783852  11.6264229
  78.7163773  46.6365471  11.4115000  79.8518219  47.6193542  11.2221870
  73.5087585  67.4548645  39.9137459  74.2055588  66.8449020  40.1559067
  72.7118301  66.9247513  39.9248314  75.0268555  62.2521935   6.3045077
  75.3993073  61.4735947   6.7183881  74.7512741  61.9540367   5.4376798
  33.8924065  55.9668579  11.5384502  33.3128090  55.7295494  10.8145828
  34.6843948  56.2957306  11.1132116  80.0003357   2.9682460  13.2693100
  80.0118484   2.5935886  14.1500664  80.1024017   2.2151735  12.6873331
   7.6490526  64.9324417   7.4778600   7.3961444  64.6661072   8.3617926
   7.6891103  65.8879623   7.5178618  20.1803875   3.8038397  64.8413544
  20.4086475   3.2528222  65.5900269  20.1234055   3.1953478  64.1046524
  77.6423492  44.8151665   8.5452042  77.5224152  44.0793915   9.1456022
  76.8264771  45.3116875   8.6088572  84.6993790  59.0244904  21.8680954
  84.6409760  59.9195137  22.2023945  84.2152710  59.0450783  21.0425987
  22.3036652  67.4737244  49.2062111  21.8930759  66.6796799  49.5484734
  23.1278915  67.5438538  49.6878357  21.7999992  25.7701817  70.0574036
  21.6378517  25.0711288  69.4239502  22.5411911  26.2550983  69.6944656
  57.6773415  23.2986774  34.7227249  57.5360909  23.0089512  33.8214302
  57.1253014  24.0753098  34.8139572  21.6920948  65.5295486  51.2676620
  20.8719959  65.1159363  51.5370941  22.2632389  64.7982712  51.0326042
  24.2935104  68.6046524  50.6213799  25.1705399  68.4332428  50.9644127
  23.7059975  68.3800964  51.3429298  79.2789459  25.6668339  73.4233017
  78.6447754  25.2373753  73.9974289  80.0076370  25.8958378  74.0001907
  69.9948425  48.2944870  81.2124634  70.0796051  48.3355179  80.2599106
  70.8962860  48.3098679  81.5340195  56.7506866  53.6946907  58.4598694
  56.8614655  52.9263649  57.8998375  56.4127502  53.3437805  59.2838173
  21.1047916   0.1221915  22.5940170  20.4838638   0.7655314  22.2522621
  20.6622925  -0.2581713  23.3527985  44.7818413   7.8992553  60.8325577
  45.6194153   8.1089506  61.2457466  44.8791084   8.1986265  59.9285965
  42.3197556  66.0959778  25.6875057  42.2599182  66.3834381  26.5985584
  43.1582985  66.4418488  25.3818054  61.1884995   2.2441216  69.4017563
  62.1319847   2.0834057  69.4171906  60.8659630   1.8552597  70.2147675
  73.0233917  60.9527092  77.0470428  73.1040344  60.9344025  76.0934219
  73.9072495  61.1478004  77.3584442  53.1432877  23.6439095  50.1025009
  52.7521095  23.0196190  50.7136269  53.5151672  24.3257828  50.6619530
  11.6633072  71.6889496   4.2106390  11.0743694  71.9936218   3.5203063
  11.2853689  70.8579330   4.4984074  51.2905350  49.4583664  57.1169281
  50.4477119  49.5397491  56.6705513  51.6063614  50.3582916  57.1982803
  61.9764023  14.5700159  58.2368202  61.2712975  14.2069435  57.7008743
  62.7325401  14.0150614  58.0457382  33.1706657  68.5213547  81.6143723
  34.0538254  68.1880646  81.7730484  33.2076797  68.8864212  80.7303009
  77.3743820  61.8242340  46.4897041  77.6837540  61.4375114  45.6705742
  78.0292435  61.5665817  47.1385536  73.2127380   2.1702366   0.5952879
  74.1190567   2.0389259   0.3167761  73.2375946   2.0694971   1.5468473
  23.7626286  59.5940323  53.2254066  24.3280697  59.9451599  52.5374947
  23.8784714  60.1955490  53.9609261  77.2412872  11.7589779  17.0515079
  77.6697998  11.8008623  17.9064083  77.9624481  11.7534781  16.4221249
  45.2604294  65.0022888  87.9160461  44.4099731  65.2818222  88.2548904
  45.5565033  65.7359772  87.3772812   3.1085994  50.6048431  43.0248795
   3.0746634  50.0420723  42.2513390   3.5228400  50.0635338  43.6969032
  62.3470917  60.8593597  18.3524857  61.9132805  60.0108643  18.2625008
  63.1076355  60.8020477  17.7741070  62.8809433  63.5022812  58.3239441
  62.3992691  63.3873138  59.1430931  63.6648369  63.9915428  58.5736809
  50.0945053  28.6526623   7.7483721  49.3303185  29.0166321   7.3014097
  49.8276482  28.5885944   8.6653862  34.5987129  61.6235008  87.1389160
  33.9758148  62.1892433  87.5951691  35.2347412  62.2275543  86.7557449
  80.5640259  36.9758186  58.2110214  79.6777725  37.1739502  57.9084663
  80.4808884  36.1356926  58.6621361  12.5839682  46.9471130  -0.1526278
  13.0775499  47.1029091   0.6525655  11.6895237  46.7784042   0.1435802
  69.5161972  23.6230240  84.1292496  69.6448059  24.2236309  84.8633881
  68.9457169  22.9378090  84.4774857  60.7337570  61.3750763  81.9463272
  60.5285492  62.0763054  82.5647125  61.5455704  61.6572838  81.5249634
  72.1480637  30.1824970  19.8806152  72.6485748  29.6776409  19.2396450
  71.3382797  30.4123363  19.4249287  72.5452957  11.0642948  46.7727051
  71.7006149  11.2250080  46.3521004  72.3610458  10.3955231  47.4322701
  70.9382401  61.1019325  78.5478973  71.3220978  61.1122398  79.4246979
  71.6874313  61.1817322  77.9574966  75.0854721   7.9426703  85.3387222
  75.9945602   8.1825552  85.1591187  75.0089264   7.0417767  85.0244522
  45.6052475  24.2307320  35.2288857  45.1284485  24.6169033  35.9635735
  45.0527153  23.5044479  34.9400063  70.1249542  43.4083519  45.3163452
  70.0717850  43.5865669  46.2553024  70.2088242  42.4566460  45.2575645
  70.5898056   7.0254226  81.9580765  70.3670349   6.1257377  82.1971893
  71.3492432   6.9390607  81.3818665  37.3467674  12.7428379   5.1991668
  37.3731651  12.3963175   6.0910516  38.2636642  12.9070292   4.9787688
  77.3879471  35.4879417  12.7137651  76.6215668  35.8882256  13.1244516
  77.0308914  34.7752113  12.1838999  33.7675362  19.6834145   6.0574450
  34.0348625  20.0778522   6.8876181  33.4936714  20.4246674   5.5172844
  38.9858246  38.9753036  21.7496300  38.6482887  38.8397446  20.8642349
  39.3765907  38.1347237  21.9882946   8.2191582  36.7973289  68.2785492
   8.7223616  36.4690857  69.0237122   7.5690298  37.3823166  68.6675949
  71.4994049  25.3976898  63.6087608  71.8725357  26.1091290  64.1291962
  70.6488495  25.7308006  63.3227005  21.6299400  36.6140976  86.5163422
  21.2278290  36.6596603  85.6488953  21.0028496  37.0489616  87.0941696
  81.2564850  63.7721519  28.1793232  80.8878479  64.6082306  28.4644833
  80.6004486  63.4122887  27.5823746   3.2469714  62.4563942  75.6439896
   2.6433725  61.9733467  76.2084122   2.9397266  63.3620491  75.6843185
  81.0634460  35.0679512  68.0020523  80.8986664  34.8835106  68.9267502
  80.2925720  34.7266998  67.5486908  63.5624199  12.2455025  26.2488194
  63.5232620  11.5053844  25.6430779  63.6799164  13.0102644  25.6852894
  71.5298004  59.2327385  42.9229279  71.3984680  59.2980919  41.9770355
  72.1846924  58.5423889  43.0266800  83.4313126  24.6305790  83.3093338
  83.1950760  24.8247852  82.4023056  83.3004150  23.6861572  83.3939743
  75.3089142  56.6581802  85.2776260  76.1302719  57.1495476  85.2647476
  75.3216782  56.1490288  84.4671707  48.4865074   1.5944713  14.2331581
  47.9645805   2.3290694  13.9103680  49.3883286   1.8251064  14.0101070
  69.7910233  52.7870216  44.8578758  69.4027863  53.6595955  44.9220390
  69.2473984  52.3295746  44.2164345  77.6063919   5.6916490  18.3356419
  78.0601501   5.0275216  17.8167324  78.1659927   6.4659204  18.2758541
  58.6143456  40.6853180   3.2414339  59.1104240  40.9575500   2.4694071
  57.7398758  40.4869080   2.9065223   3.5908461  61.4900284  25.7860355
   3.9822917  61.6824455  24.9339924   3.8982482  60.6084824  25.9972553
  60.5191689  58.0427971  41.2239418  61.0638313  57.3406219  40.8682404
  60.2728577  57.7361755  42.0966072  34.0807266  38.6099968  28.6852150
  34.6728439  38.9682426  29.3464928  34.3434219  39.0390244  27.8708706
  45.2709618  54.2635689  45.3613892  44.9461861  53.5757103  45.9424248
  44.7064629  54.2118835  44.5900917  26.6570568  13.9619255  70.9127731
  26.1635017  13.1485319  70.8077774  26.1046009  14.5066357  71.4734116
  28.9299088  18.4083214  67.7894363  28.9994831  18.2999306  68.7379303
  29.8012276  18.1898193  67.4588394  58.9078064  60.9568291  42.5456047
  59.5079536  60.7764587  41.8220596  58.6433678  61.8676109  42.4160767
  60.5211525  37.7715492  76.6795044  60.1751938  37.9812813  77.5470047
  61.1811638  38.4451561  76.5155869  54.1577034  27.4328537  15.6596851
  53.8455849  28.0886803  16.2831478  54.2374840  26.6306458  16.1757565
  15.8439302  62.6665268   8.5327711  16.0894318  63.3839531   7.9485946
  15.3366117  62.0712471   7.9809570  57.2280312  68.3202286   7.1509709
  57.3866920  67.3778610   7.0962195  57.2554970  68.6209030   6.2426376
  84.1288605  25.7919960  37.7845459  84.8467941  26.1469975  38.3087387
  84.5565491  25.4206448  37.0129128  19.0151653  53.6857147  52.9552269
  19.7556629  53.0798836  52.9258614  18.6033955  53.5197334  53.8032417
  70.6192398  67.6492462  80.4512939  71.3612671  67.2900009  79.9649124
  70.8534698  68.5647278  80.6038132  80.6455917  15.6771450  72.1992722
  80.1261063  16.4576664  72.3920135  80.0596542  14.9455271  72.3932877
  49.9993401   3.3618152  19.8000584  49.4208336   3.1117175  19.0796318
  49.4072075   3.5526581  20.5275154  68.3222351   8.2010460   0.5460708
  67.4454117   7.8491669   0.3924541  68.1700821   9.0550394   0.9507638
  60.7553520  32.6367493  80.7480011  61.4758759  32.4687309  81.3553314
  60.4833565  31.7677803  80.4527969  78.8422318  54.7462311  61.9424973
  78.9154205  54.2264252  61.1420746  77.9162750  54.6926346  62.1790619
   9.5915842  13.4723177  30.6604633   9.5342007  13.4091177  31.6138496
   8.9780006  14.1696730  30.4292889   2.6631427  42.0067139  58.3273277
   2.5199089  41.4670029  59.1047783   2.1920710  42.8196983  58.5100288
  65.6871338  41.9743385  53.0417862  65.0094910  42.3966141  53.5697174
  65.4000244  42.1012039  52.1375160   6.9266577  32.6800117  84.8449936
   6.1760230  32.9656754  84.3242493   7.3799343  32.0491028  84.2857742
  44.2871895  59.9701118  62.6093674  44.5644417  60.8623543  62.4013634
  43.9400063  60.0285492  63.4994659  35.4626122  36.4257851  70.5657272
  35.5247154  37.3657646  70.3959961  35.8832741  36.0174561  69.8090668
  62.7621918  36.2624817  11.7128620  62.9065590  37.1754532  11.9616013
  63.1514931  36.1871681  10.8416538   3.6968737  62.6888123  49.8853073
   3.6359344  62.4869461  50.8189926   2.8926351  62.3304520  49.5097923
  63.6282425  55.4346542  33.3351173  64.2935028  55.7868500  33.9264069
  63.9990921  55.5516396  32.4604645  53.9837952  66.1499252  40.1569977
  53.9993896  65.4716568  40.8322258  53.5633774  65.7307816  39.4061356
  28.9801407  51.9561844  54.7075081  29.5484066  51.4092407  54.1651421
  29.5833874  52.4643440  55.2498169  58.6968269  29.2308426  56.8494072
  58.9566231  28.9805260  55.9627953  58.2537003  30.0722866  56.7405739
  21.7764778  60.6517220  80.0553055  21.8281193  60.6902618  79.1002731
  21.2579498  59.8676109  80.2356720   5.7088885  55.8141174  75.2607498
   5.6017923  55.6589279  74.3223114   5.1057038  56.5314522  75.4552612
  62.7740135  66.9395752   4.7267118  62.7375755  66.3717346   5.4964256
  63.0927467  67.7775192   5.0621228  23.4385338  52.8300705  74.9581833
  24.3443680  52.7777328  75.2630768  22.9810925  53.3110199  75.6478729
  86.4282150  51.2885551  64.9642105  86.1504440  52.1560440  65.2583847
  86.7329483  51.4260139  64.0672836  46.0205498  68.7205200   5.4272580
  45.0975113  68.9552689   5.5227971  46.0177994  67.9798737   4.8208981
  56.3784981  11.6934528  48.2678642  56.8471718  10.8588409  48.2669258
  55.6244469  11.5453529  47.6971588  26.1516247  53.7269745  51.8040009
  26.6052036  53.7107048  52.6467514  25.2324028  53.5754318  52.0237732
  22.1571865   9.9196196  68.9483795  22.9464569   9.4045153  69.1155548
  22.4571075  10.6475630  68.4039688  22.5659847  40.0168686  72.5510788
  22.2345085  39.6577835  73.3741302  23.5068150  39.8422737  72.5752640
  52.0911865  53.7440338  76.1664200  52.0853729  54.2153130  76.9995499
  51.2373314  53.3130302  76.1290894  30.5450745   3.3698168  83.1591492
  31.4061203   3.6305695  83.4860153  30.6831837   3.2033966  82.2266998
  51.4656563  54.0821991  85.1984634  52.1345406  54.7347336  84.9910355
  51.4830551  53.4772797  84.4568405  66.4279785   9.0351057  77.6143799
  66.8283386   8.3617506  78.1644135  67.1530838   9.3823700  77.0948944
  35.4193001  52.6540718  52.5846405  35.3530922  51.7424507  52.8688850
  35.3257446  53.1633682  53.3896866  14.8008785  44.1832008  39.7398758
  14.5272398  44.3418045  40.6433105  15.6256456  44.6609840  39.6520424
  52.1731911  19.6570244  55.0172386  51.8854713  19.6104641  55.9289856
  53.1227264  19.7653198  55.0709648  27.3027077  60.9071846  84.2912979
  26.7400742  60.9098053  83.5169144  26.9032803  61.5478401  84.8797302
  32.0391846  65.1869202  11.8458576  31.9970493  65.5619049  10.9661741
  32.3395767  64.2884216  11.7090836  50.7961426  18.4183922  83.4735794
  50.2442932  18.8351727  82.8117752  50.2823677  17.6699581  83.7770767
   4.6053939  50.5744743  80.8980179   5.0542836  49.9528122  80.3250732
   4.1238523  51.1464043  80.3003235  23.3837509  47.4006805  72.1250687
  23.0671368  46.7522087  72.7539291  22.7249794  48.0948486  72.1446457
  44.0565147  53.2170334  12.2718239  44.0123863  53.2875366  13.2254038
  44.7286568  52.5546532  12.1114807  75.7279053  63.6418304   9.4810410
  74.8594284  63.2395668   9.4678926  76.1065903  63.3668861  10.3160448
  77.1894073  20.3292007  58.8780556  76.9342499  20.8922729  59.6088600
  77.9679794  20.7492619  58.5125351  26.3888721  49.4959679  82.1453400
  26.7936859  50.2660408  82.5445175  25.4714165  49.5409889  82.4145584
  66.3574829  20.2406216  64.0396500  67.0984497  19.9301815  63.5192413
  66.5454178  21.1661301  64.1956787  54.3885765  70.5140152  31.0202522
  55.2337494  70.7882462  31.3762112  54.4709320  70.6494904  30.0762749
  40.6330452   2.9900851  23.0845280  39.8499260   3.4190648  23.4293957
  41.1301651   2.7376547  23.8625908  30.7445641  50.7198486  25.8847122
  31.6017971  50.9562569  25.5304623  30.2254448  50.4815025  25.1166382
  31.1434212  11.2162485  84.9785690  32.0791702  11.1528864  84.7872849
  30.9060497  10.3477688  85.3035812  84.7693558  10.0978003  50.9093094
  83.9552841   9.6737289  51.1807671  84.8674927   9.8598652  49.9873619
  68.0412903  10.8195953  20.4502850  68.1556778  11.4564638  21.1556549
  68.8903351  10.3829393  20.3818264  75.0953522  41.4751663  79.8822632
  76.0488434  41.5001907  79.8018188  74.8893585  42.1706123  80.5068817
  59.6900711  65.3657227  48.9203415  58.7971306  65.0697861  48.7433777
  59.7240181  66.2525101  48.5616112  64.1104660  56.8659325  21.0182228
  63.4141884  56.5037079  21.5661469  64.0831833  57.8076210  21.1876678
  76.9614487  55.1794510  20.5118027  76.3241425  54.5041695  20.2792778
  77.8123093  54.7605095  20.3823566   4.2275143  28.5999565   6.7673206
   3.6025491  28.5905647   6.0423636   3.7042902  28.3779182   7.5374942
   9.4676113  46.5524063  22.5072670   8.5739336  46.2233543  22.6036911
  10.0045357  45.7649422  22.4187050  28.5664864  60.0303383  45.4095917
  29.4042454  59.5969505  45.5725822  28.7781429  60.9637604  45.3970566
  18.6773663  13.8618164  73.3590317  19.3141651  14.2020864  72.7305908
  18.7252235  14.4663229  74.0996475  76.4647903  49.6752853  73.0259323
  76.0965576  50.1750984  72.2973557  76.6936340  48.8280640  72.6437302
  58.3077965  68.1759796  61.9099617  57.6066704  67.5482712  62.0850143
  58.6674652  67.9040070  61.0656281  58.9915314  37.9291649  68.2178726
  59.2744980  38.7695503  67.8574371  58.3562164  38.1608353  68.8953247
  15.0478001  47.9400482  66.7254639  14.3780718  47.2703209  66.5870438
  14.5953169  48.6365013  67.2013245  12.8700790   3.2871439   0.3831819
  12.3582926   2.8209257  -0.2778379  12.5040035   4.1715527   0.3896649
  61.3077126  56.9797859   3.0158203  60.8622551  56.4690933   2.3398089
  61.7403984  57.6861725   2.5362003  52.1894798  55.7570305  78.3105316
  51.7264862  56.5936623  78.3542938  52.8870125  55.8349762  78.9613876
  86.7782953  71.6007195  89.1388110  90.0000000  90.0000000  90.0000000
