QMMM reactant CHA#2 frame 44388
 55680
  28.9094086  48.1891747  37.9208260  29.2898769  48.3882332  38.8350067
  29.1581573  48.9746933  37.3367195  27.9186592  47.9961739  37.8852348
  29.6535511  47.0273361  37.4517021  29.2304516  46.6701393  36.5128212
  31.1401443  47.4388466  37.2642517  31.2372169  48.1104546  36.4112434
  31.3808384  48.0311165  38.1470757  32.1324272  46.2720757  37.1246567
  32.5549088  45.9737511  38.0841408  31.7199917  45.3714294  36.6698494
  33.5650635  46.7176437  36.1925430  32.8579826  46.6346016  34.5796471
  33.6207924  46.9076080  33.8504677  32.6384811  45.5690346  34.5126953
  32.0455360  47.3406487  34.4078102  29.5689106  45.8875999  38.4522018
  30.0903950  46.0622902  39.5680923  29.0536194  44.6962204  38.0410042
  28.7921181  44.5521660  37.0761414  28.9590454  43.4418488  38.8013420
  29.7707996  43.4740257  39.5280571  27.5782986  43.3494911  39.4484596
  27.6282387  42.8189774  40.3993340  27.3154087  44.3286591  39.8487320
  26.4001846  42.8502159  38.5692062  26.6486874  41.8709145  38.1601677
  26.2030792  43.5762177  37.7804260  24.7941418  42.7411613  39.3787460
  24.2796879  44.5189285  39.1108665  24.0589905  44.7316742  38.0648537
  25.1049271  45.1585312  39.4239044  23.4236546  44.7940178  39.7270126
  29.3093166  42.2601395  37.9829063  29.3010101  42.3303680  36.7384529
  29.4098644  41.0911102  38.6185341  29.3344841  41.0330620  39.6240463
  29.7553558  39.8888283  37.9069633  30.3096275  40.2449074  37.0385780
  30.6577072  38.8998032  38.6995583  30.0990353  38.6247063  39.5941582
  30.9373283  37.6124649  37.9793167  31.7175064  37.8017693  37.2420311
  31.1510239  36.9268608  38.7993050  30.1344566  37.1243553  37.4268265
  32.0087013  39.5313187  39.1364594  32.7707443  38.7749825  39.3244629
  32.5009460  40.1185913  38.3612785  32.0264282  40.5230675  40.3292618
  31.5278339  40.0157738  41.1551857  33.0554657  40.7641373  40.5958405
  31.3981380  41.4136963  40.3177719  28.4129257  39.2277031  37.3245354
  27.4717789  38.9779968  38.0841446  28.3894291  38.9177704  35.9700165
  29.1009102  39.3621178  35.4074783  27.3287201  38.2895699  35.3003159
  26.6188240  38.0100212  36.0787773  26.6533298  39.2836876  34.4111481
  27.3900852  39.9146004  33.9139137  25.9711876  38.8232880  33.6964340
  25.7649822  40.3246460  35.1635780  25.2271919  39.6996384  35.8764915
  26.3585339  41.0431557  35.7288551  24.8379860  41.1106529  34.1909790
  25.4198647  41.8489723  33.6392517  24.4226055  40.4151573  33.4617043
  23.6800938  41.7120934  34.9508743  23.0832138  41.1068192  35.4962921
  23.4278183  42.9569092  35.2610092  23.9916058  43.9928474  34.6421547
  23.6871910  44.9547539  34.6887474  24.5606537  43.7225494  33.8527107
  22.6556797  43.2680702  36.2135773  22.1861000  42.5310135  36.7198830
  22.4280872  44.2201424  36.4623032  27.8224812  37.0544090  34.5606651
  29.0228806  36.7661667  34.4582558  26.9352322  36.2474136  34.0107307
  25.9651718  36.5063133  34.1205406  27.2270699  34.9065666  33.3962517
  28.1476059  34.5279045  33.8404655  26.4795570  34.1495590  33.6334724
  27.3361015  34.9118538  31.9031277  26.4664917  35.5446320  31.2166824
  28.1650639  34.0332985  31.2306728  28.9523621  33.6308746  31.7188492
  28.1669464  33.8041382  29.7677460  27.2338104  34.2281342  29.3968143
  29.4423046  34.3988953  29.0332909  30.2840862  33.9488907  29.5596008
  29.6537609  34.1092491  27.5580826  30.5868664  34.5740356  27.2396755
  29.8010311  33.0383530  27.4181232  28.7595940  34.4726906  27.0516510
  29.4645405  35.9700203  29.3250332  28.5072784  36.4160919  29.0552692
  29.7254715  35.9363060  30.3828030  30.6138725  36.8041077  28.7316742
  31.6271820  36.4160233  28.8350887  30.4034901  36.9578094  27.6732731
  30.6069107  37.7964401  29.1825962  28.0678425  32.2963104  29.4856243
  28.6815758  31.4533348  30.2065887  27.2756023  31.8936005  28.4562683
  27.0200405  32.7225227  27.9388924  27.1907654  30.4667301  27.8903675
  27.7764168  29.8447647  28.5673313  25.6598663  29.9330368  27.8052864
  25.0508862  30.8075066  27.5760498  25.5803394  29.1927395  27.0092106
  25.2042809  29.4104843  29.1386261  25.2719555  30.1239014  29.9599400
  24.1534691  29.1690903  28.9785557  25.8112736  28.1731873  29.7072563
  26.8053608  28.3934422  30.0963326  25.1491928  27.7692909  30.4731674
  25.9742126  27.1538048  28.6140232  26.8651447  27.1486835  28.1382999
  25.0950890  26.2214127  28.2664127  23.9170685  26.1168289  28.8659744
  23.7229805  26.7307301  29.6441498  23.1836586  25.6285133  28.3722591
  25.3495407  25.4477844  27.2513790  24.4865265  24.9759731  27.0218010
  26.0894032  25.5872459  26.5781384  27.6623459  30.3314533  26.4869995
  27.6342793  31.2934856  25.7007198  27.9792671  29.0929623  26.1501980
  28.1163635  28.4688168  26.9323406  27.6012764  28.5366154  24.7770939
  26.6347637  28.9207249  24.4508801  28.3528099  28.9654846  24.1142426
  27.7174454  27.0341110  24.6527157  27.7008934  26.2635365  25.6650562
  27.6564617  26.5922279  23.3951645  27.5309887  27.2680969  22.6551933
  27.6935558  25.1413898  22.9562569  28.3448429  24.5936241  23.6373425
  26.2750568  24.4698906  23.0946236  25.5894356  24.6442566  22.2653923
  26.3500843  23.3825836  23.0792923  25.7601089  24.7133656  24.0239487
  28.1957436  25.0207882  21.4593010  28.1305923  25.8531189  20.5567017
  28.5684681  23.7677689  21.0900803  28.6461582  23.1159420  21.8576641
  29.1504269  23.4020424  19.7692451  28.5802994  23.7939663  18.9269581
  30.5981846  23.9774666  19.6653481  30.5985756  25.0576057  19.8116627
  31.6671753  23.3509235  20.4593697  31.2182903  23.1483173  21.4317646
  31.9189873  22.3869972  20.0171661  32.5450630  23.9935207  20.5263081
  31.1114464  23.7130127  18.3837738  31.8459740  24.3203812  18.2689934
  29.1777191  21.8637009  19.5202808  28.7389927  21.1693459  20.4619541
  29.6753979  21.3807049  18.3393059  30.0756454  21.9837685  17.6348801
  29.5819836  19.9619751  17.9204350  29.5756817  19.4065762  18.8583012
  28.2949333  19.4820652  17.2652988  28.5569286  18.4980698  16.8764420
  27.0566120  19.3033600  18.1625538  26.1675835  19.1093121  17.5624924
  27.1965828  18.4660416  18.8462296  26.8453407  20.2014732  18.7429466
  27.9483795  20.3689442  16.2124062  28.2937374  20.0603237  15.3715239
  30.7361946  19.4347458  17.0509453  31.3348694  20.0713577  16.1945648
  30.9454384  18.0923157  17.1055737  30.3088436  17.5361633  17.6583328
  32.0477562  17.3924503  16.3837624  32.4587212  18.0401783  15.6093864
  33.2532768  17.1912956  17.2835331  34.0537071  16.8375034  16.6337318
  33.7791214  18.4465923  17.9698715  33.1002884  18.6486607  18.7983913
  34.7853127  18.2367916  18.3327255  33.9751854  19.2328663  17.2408772
  32.9297218  16.1271343  18.3581448  32.7639809  15.1677170  17.8680878
  33.7920609  16.1297894  19.0248260  32.0468063  16.4293690  18.9213619
  31.6301403  16.0868187  15.7984877  30.6866226  15.4538555  16.2398758
  32.2381706  15.7112474  14.7147932  32.9261131  16.3373909  14.3213730
  31.8617153  14.5007019  13.9037457  30.8340855  14.2192574  14.1336718
  31.9432201  14.9317226  12.3852024  32.9646683  15.2769699  12.2253551
  31.6818085  14.0569754  11.7897358  31.0163689  16.0946484  11.9931936
  31.4605579  17.0414677  12.3003254  30.9267044  16.2235260  10.9145603
  29.5755501  16.0546246  12.5707712  29.1448612  14.8855877  12.6450758
  28.9107342  17.1289959  12.5257721  32.8476715  13.3383675  14.2349224
  32.5893326  12.2298012  13.8237171  33.8459892  13.4989824  15.0381336
  34.1411095  14.4230003  15.3195496  34.6637306  12.3668299  15.6988916
  33.9558525  11.5506105  15.8431053  35.7209206  11.7114401  14.7886839
  36.1864433  10.8250055  15.2195234  35.3768501  11.3152819  13.8332882
  36.8625908  12.6686707  14.3807659  36.6534500  13.6849966  14.7145929
  37.8191109  12.4149323  14.8377028  37.0850945  12.7153387  12.8717194
  37.6166916  11.8311138  12.5200796  36.1303406  12.6784267  12.3471394
  37.9231415  13.8609867  12.4872999  37.5026970  14.7310877  12.1936140
  39.2929916  13.9306221  12.4865017  40.0368309  12.9235821  12.7934809
  41.0428047  13.0101576  12.8185768  39.5529976  12.0812693  13.0700903
  39.7693176  15.0961475  12.2494936  40.7711945  15.2223196  12.2287664
  39.1240044  15.8633347  12.1266279  35.2131882  12.7066402  17.1066399
  35.5801315  13.9061289  17.2592030  35.3420601  11.6463785  17.9510689
  35.0135918  10.7318039  17.6758213  35.9678993  11.7768583  19.2855911
  35.6106949  12.7115068  19.7179527  35.5274391  10.5976381  20.1251297
  34.4378014  10.6242437  20.1342678  35.7543373   9.6287279  19.6803474
  36.1106796  10.6512356  21.5659733  36.3733635  11.7626324  22.0721226
  36.2032166   9.5915947  22.3154469  37.5088005  11.7349911  19.1367435
  38.0359879  10.5982914  19.0261021  38.1659164  12.8567266  19.0301037
  37.6218758  13.7038755  18.9496880  39.5868607  13.0010262  18.6983051
  40.1085472  12.1826057  19.1944237  39.8071556  12.8109026  17.2049961
  39.2036095  11.9330902  16.9741745  39.4451561  14.0750313  16.3400536
  40.2508659  14.7641640  16.5930920  39.5492439  13.8501339  15.2785988
  38.4378052  14.4381466  16.5437527  41.1818657  12.4965000  16.9429741
  41.2697296  11.5421333  16.9983406  40.0332947  14.4111452  19.1589470
  39.2094040  15.3529263  19.1887188  41.2706413  14.5866356  19.5810413
  41.8626251  13.7775269  19.7035084  41.7427063  15.7949915  20.1907902
  40.9715157  16.0542355  20.9161587  43.1241875  15.4048862  20.9546852
  42.9952316  14.4913731  21.5351715  43.8845520  15.2108097  20.1981926
  43.6851845  16.4880562  21.7650547  43.8607521  17.3156090  21.0777168
  42.8849182  16.7070866  22.4719486  45.0790329  16.0914574  22.4628391
  45.2537918  14.9618731  22.8631287  45.9935532  16.9152470  22.5613384
  41.8213768  16.9094238  19.1135864  41.5673561  18.0390244  19.4398556
  42.1484642  16.6339207  17.8462524  42.5102615  15.7133951  17.6417065
  42.3661346  17.6436043  16.8461666  42.9974823  18.4077148  17.2996407
  43.1546783  17.0771656  15.6024599  43.4945755  17.9730816  15.0829391
  43.9694023  16.4604168  15.9818659  42.3515434  16.1869411  14.6435223
  41.9279213  15.3722572  15.2308340  41.5798340  16.8197021  14.2051420
  43.1497536  15.6307364  13.5029812  42.4770355  15.2596178  12.5319395
  44.4007454  15.7308760  13.5448542  41.0669022  18.3152771  16.3397846
  41.1882286  19.3758450  15.6828661  39.9110298  17.6897736  16.5387192
  40.0045433  16.7638702  16.9312286  38.5705910  18.2786484  16.3740826
  38.5970535  18.9902649  15.5488539  37.5521698  17.2214127  16.0006599
  37.5330124  16.5370941  16.8488579  36.5759964  17.6887951  16.1300774
  37.5799370  16.5022564  14.6501827  38.5064278  15.9352636  14.5594435
  36.7697906  15.7746572  14.6016064  37.4566765  17.5124588  13.4762297
  37.8477821  17.0640297  12.4120588  36.8272209  18.5616379  13.5858612
  38.0959549  19.0421200  17.5592136  37.5927505  20.1297855  17.4482136
  38.3177185  18.3865795  18.7166996  38.6973305  17.4561977  18.6147900
  37.7029533  18.7544003  20.0191708  36.6281586  18.8975830  19.9077206
  37.7583656  17.6260052  20.9190464  38.7467575  17.1666336  20.9317055
  37.4234428  18.0531120  22.4067116  37.9557991  18.9378529  22.7558975
  36.3469429  18.1814060  22.5197792  37.7047539  17.2319984  23.0660553
  36.7116165  16.5385685  20.5401649  35.7178154  16.9551601  20.7042255
  36.6949463  16.2850094  19.4801998  36.8196182  15.2793550  21.3772755
  36.3416595  15.4879761  22.3344250  36.1507683  14.5377197  20.9405632
  37.8504372  14.9251375  21.3836155  38.3773651  20.0379639  20.5072460
  37.6409645  20.9596462  20.8867474  39.6919327  20.1729336  20.3839855
  40.2128983  19.3737259  20.0523758  40.4409676  21.3771801  20.7482605
  40.0738983  21.5701389  21.7562923  41.9014397  21.1002102  20.9717083
  42.3766060  20.8456726  20.0243301  42.3897705  22.0535297  21.1737442
  42.1977348  20.0875549  22.1143780  41.6867371  19.1786995  21.7966270
  43.7213135  19.8261795  22.2980404  44.0845337  19.5561714  21.3064480
  44.2625580  20.6852360  22.6944981  43.8700294  18.9641304  22.9483147
  41.6444283  20.4495831  23.4590130  41.9777107  21.4486504  23.7398968
  40.5657768  20.3070831  23.3933773  42.0182991  19.7945976  24.2459774
  40.2433357  22.5463676  19.8139629  40.1077805  23.6938572  20.2476540
  40.1465530  22.3032627  18.5085354  40.0521317  21.3695374  18.1352520
  39.9703522  23.3841743  17.5429916  40.5956841  24.2478466  17.7691212
  40.3361931  22.8563843  16.1073666  40.1641502  21.7851486  16.0027008
  39.6750336  23.2547855  15.3377905  41.6523666  23.1563377  15.5765886
  41.6943321  22.9469280  14.5077171  41.6294937  24.2447338  15.6311026
  42.7577362  22.7054844  16.5042896  43.4180756  23.5523567  17.1707020
  42.9295998  21.4310322  16.8467865  42.5333290  20.7340221  16.2325802
  43.6161118  21.1370258  17.5267563  38.5059319  23.9833622  17.6378002
  38.3428802  25.1735668  17.7627296  37.5085869  23.0860672  17.8823051
  37.7974358  22.1204262  17.8174763  36.0878296  23.4746838  18.1472950
  35.6194420  24.1834068  17.4643402  35.1604080  22.3088531  18.1855774
  35.6614380  21.4176903  18.5635948  34.3138847  22.3655491  18.8698940
  34.5592575  22.1087360  16.7998219  33.7282181  21.4115372  16.9065132
  34.2069130  23.0452156  16.3674316  35.4964371  21.3741455  15.8543758
  36.4907722  21.8103619  15.7589083  35.5495262  20.3409386  16.1975479
  34.8352737  21.4541245  14.5041609  33.9614067  20.8122997  14.3922758
  34.4945564  22.4743710  14.3277836  35.7550201  21.0779037  13.4122505
  36.1410980  20.1485996  13.4984989  35.1809578  21.0339489  12.5824137
  36.4386711  21.7998066  13.2345448  35.9980888  24.2073975  19.4559956
  35.4375038  25.3214283  19.6450500  36.5942955  23.6947193  20.5102882
  37.0089645  22.7739220  20.5270157  36.4964256  24.3519688  21.8161831
  35.4333725  24.5303459  21.9780407  36.9167404  23.3757992  22.9622250
  37.9531288  23.0383415  22.9730721  36.7784233  24.1538448  24.2596874
  37.7042198  24.7133865  24.3935337  35.8510437  24.7238770  24.2037430
  36.6083450  23.5585213  25.1567726  36.1049728  22.2769680  23.0375328
  36.2549400  21.7393951  22.2564259  37.2481194  25.7238617  21.8728580
  36.7314796  26.6911030  22.4629269  38.3908577  25.7813301  21.2590313
  38.7649422  24.9426022  20.8386784  39.0659218  27.0541515  20.9594688
  39.1402779  27.5278206  21.9383488  40.4725189  26.9529896  20.3536663
  40.9269485  26.0190983  20.6844807  40.3971825  26.8483562  19.2713184
  41.2821960  28.2227325  20.6625175  40.8215027  28.9836388  20.0325298
  41.3008995  28.4113960  21.7359066  42.7794876  28.1018124  20.4138069
  43.1867104  28.9927788  20.8917713  43.1855888  27.2774582  21.0000038
  43.0382690  28.1381702  18.9280605  42.6681595  27.2308578  18.4506645
  42.5302277  28.9066849  18.3454971  44.4764366  28.0634480  18.6657715
  44.9445496  27.2369175  19.0090141  44.7343712  27.9974232  17.6914940
  44.8614349  28.8886948  19.1026287  38.1345367  27.9933491  20.1146946
  38.0510254  29.1701221  20.4908333  37.5186996  27.5742950  18.9757538
  37.5173569  26.6003113  18.7084484  36.7204857  28.4274807  18.1537323
  37.2830963  29.3508434  18.0159874  36.4596062  27.8047447  16.7920990
  36.1171989  26.7789173  16.9282475  35.6356697  28.3317490  16.3109589
  37.7075272  27.9631157  15.8892078  37.6515312  28.9762173  15.4909706
  38.6686859  27.7435474  16.3540401  37.6177788  27.1440315  14.6015158
  36.7607460  26.3205719  14.5154810  38.5502396  27.2255249  13.8080254
  38.5424728  26.6046677  13.0114231  39.4016075  27.7259178  14.0198746
  35.4233284  28.9184246  18.8083191  35.0015411  30.0043449  18.4075031
  34.8828583  28.2458744  19.8342495  35.3256989  27.3917713  20.1416550
  33.7889023  28.6906185  20.6519051  33.1155281  29.2282257  19.9843349
  33.0730438  27.4218636  21.3192406  32.7379379  26.7235680  20.5523071
  33.8711777  26.9239693  21.8698673  31.9350948  27.5844593  22.2623196
  32.1921730  28.1878719  23.1329002  30.7006779  28.1634483  21.4594536
  30.3478165  27.4600773  20.7052288  29.8671741  28.2910671  22.1501656
  31.0321712  29.0080853  20.8554630  31.2979908  26.3173180  22.7723942
  30.9738579  25.6769791  21.9520283  32.0794373  25.6530628  23.1414566
  30.4985676  26.4273624  23.5051365  34.1445312  29.7185841  21.6852036
  33.2881775  30.5503654  21.9631634  35.3409081  29.6255798  22.2821560
  35.9175949  28.8034973  22.3903828  35.8906174  30.7539902  23.0518932
  35.1888924  30.9501514  23.8625793  37.1926994  30.3045349  23.7314987
  37.9281731  30.1059761  22.9519119  37.6536980  31.1382008  24.2612038
  37.0516586  29.1754436  24.7468567  36.2954025  28.4775696  24.3874817
  38.3719788  28.4582043  24.8875256  39.2173729  29.0834846  25.1746140
  38.2432861  27.7786808  25.7300129  38.6678085  28.0416756  23.9246712
  36.6016731  29.6996498  26.0776405  36.6413918  28.9073753  26.8251877
  37.1498337  30.5275440  26.5273170  35.5338669  29.9078503  26.0102062
  36.1103401  31.9717484  22.2114906  35.6034813  33.0416260  22.4823685
  36.7947502  31.8116570  21.0622234  37.2662506  30.9245682  20.9580059
  37.1503372  32.9223824  20.1646404  37.8404274  33.5911865  20.6790123
  37.9042244  32.2793541  18.9899502  38.6142311  31.6417694  19.5167103
  37.1236763  31.7633495  18.4308567  38.6734276  33.1888733  18.0974407
  39.1539230  33.9820824  18.6701946  39.5076447  32.6070251  17.7054768
  37.7625961  33.8523560  16.9732227  36.9399529  33.1139336  16.3930321
  37.9149017  35.0708008  16.7514954  35.8876228  33.7455292  19.8081932
  35.8589935  34.9849777  19.8823452  34.7954750  32.9721298  19.4787350
  34.8682251  31.9782448  19.6430569  33.4860573  33.5546837  19.2301235
  33.6619453  34.2996941  18.4541512  32.5408630  32.5143280  18.6216888
  32.9187279  31.8184052  17.8726826  32.1604195  31.8605919  19.4065437
  31.2790546  33.1994820  18.0071068  30.5475197  32.4584999  17.6847744
  30.8040390  33.8063126  18.7779617  31.5978508  34.1189651  16.7929688
  32.1733780  35.0109138  17.0405560  32.0805130  33.5092049  16.0292072
  30.2324295  34.6295929  16.3644390  29.5088482  33.8170128  16.4295807
  30.0607300  35.3813667  17.1348038  30.2174740  35.0961037  15.0012722
  29.3820572  35.6045876  14.7490435  30.9158058  35.8159599  14.8819370
  30.2971573  34.3665009  14.3074188  32.9831543  34.2470245  20.4639568
  32.5843811  35.3543015  20.4099655  32.8489532  33.5832558  21.6556187
  33.2551994  32.6621742  21.7373543  32.5761375  34.2751846  22.9912605
  31.5721512  34.6915550  22.9091167  32.6220551  33.1586761  24.0849323
  33.5071411  32.5280457  24.0011101  32.7093697  33.7086678  25.4881363
  33.6915512  34.1502953  25.6566353  31.9957809  34.5203171  25.6299839
  32.7561493  32.9113960  26.2299385  31.3192749  32.2622032  23.9268188
  30.5157318  32.9948387  24.0020866  31.2655754  31.9237766  22.8920803
  31.1693954  31.0559959  24.8287106  30.9428749  31.4625607  25.8143559
  30.2858887  30.4622536  24.5942192  32.0790405  30.4640217  24.7276630
  33.4485321  35.5324211  23.2860813  32.9698296  36.5928955  23.6864529
  34.7833366  35.5315781  23.0250149  35.1388397  34.6386871  22.7144299
  35.6500969  36.6959496  23.2172661  35.5187569  37.0466194  24.2409267
  37.0956078  36.2063599  23.0128193  37.2800179  35.7101288  22.0600090
  38.1121101  37.3735619  23.0017242  37.9790344  38.2022591  22.3062649
  38.0990257  37.9428864  23.9311314  39.0369682  36.8707657  22.7190018
  37.3628845  35.2521667  24.1871567  37.5628891  35.7972641  25.1096363
  36.4668312  34.6557083  24.3586979  38.5354462  34.2733040  24.0372658
  39.4440460  34.8517799  23.8702297  38.5470238  33.5571175  24.8588772
  38.2838097  33.8142242  23.0812187  35.3514709  37.8198700  22.2175121
  35.1822739  38.9558372  22.7060432  35.1623383  37.5577850  20.9062557
  35.3636780  36.6070633  20.6311340  34.7547569  38.5829773  19.8981705
  35.5243301  39.3533325  19.8490925  34.8089523  37.9441452  18.5059643
  35.8400688  37.6334763  18.3374882  34.2156258  37.0300484  18.4837246
  34.3356133  38.9366646  17.4850311  33.2527313  38.8386383  17.4084644
  34.6484413  39.9346504  17.7920456  34.9630814  38.7633934  16.1389198
  36.1150742  39.1582985  15.9161386  34.2750320  38.3220749  15.1837120
  33.3684082  39.2123871  20.2007961  33.1823578  40.3864822  20.0737534
  32.4043846  38.3564072  20.5431461  32.5638237  37.3649254  20.4352589
  31.0154362  38.8236656  20.7370453  30.6458530  39.5181122  19.9825592
  30.0533371  37.6429253  20.6314983  30.3161526  36.8808937  21.3652134
  29.0457306  37.9252129  20.9366932  29.9599361  37.0289268  19.2278423
  30.9484062  36.9206848  18.7813931  29.5660191  36.0225105  19.3694630
  29.1800003  37.7516556  18.1306419  28.3276081  37.1374741  17.4950218
  29.2309780  39.0241013  17.9687786  30.7198277  39.5063896  22.0960350
  29.8350391  40.3389931  22.1949463  31.5830612  39.3032188  23.1189842
  32.4340401  38.8043633  22.9020004  31.3998032  39.8533020  24.5303822
  30.4799156  40.4376297  24.5087738  31.1314411  38.6753082  25.4492798
  32.0221748  38.0480042  25.4149361  31.0321922  39.1030312  26.4469299
  29.8976841  37.8947067  25.1454449  28.7844124  38.1444511  25.5116863
  30.1018620  36.8923721  24.3811131  29.3713932  36.3000488  24.0127869
  31.0506134  36.7314148  24.0744190  32.6002312  40.7887688  25.0115490
  32.5910378  41.3270798  26.1426315  33.6449013  40.9960861  24.1051369
  33.5305557  40.5586052  23.2020111  34.8212051  41.8758507  24.3987961
  35.6339340  41.7197914  23.6894188  34.3245544  43.3142395  24.1973000
  33.6970558  43.5779648  25.0486488  35.2618828  43.8670654  24.2597370
  33.6364212  43.7326965  22.9311447  34.2748451  44.0785217  21.7569351
  35.2686462  44.2551117  21.7212982  33.3394699  44.2250328  20.7865543
  33.5931168  44.5050163  19.7747879  32.1276093  43.9771538  21.3247948
  31.2812824  43.8957291  20.7796307  32.2883911  43.6446304  22.7018223
  31.5730438  43.4479561  23.4866753  35.5457230  41.6149673  25.7191105
  36.0173836  42.5170517  26.4238758  35.6386719  40.3456917  26.1207581
  35.0817032  39.6559715  25.6368427  36.2075272  39.8076210  27.4012985
  35.9480400  40.3395920  28.3165989  35.7665634  38.2850800  27.6046925
  36.3449821  37.7759819  26.8337498  36.1985626  37.7396698  28.9875107
  35.8242340  36.7176704  29.0467377  37.2855110  37.7273331  28.9069004
  35.9481392  38.3716469  29.8395634  34.3353348  38.2110863  27.4974022
  33.9340935  38.8519363  28.0889397  37.7320251  39.9118729  27.4549046
  38.3945160  39.4870453  26.5193939  38.2654800  40.2808037  28.6162910
  37.6068230  40.6754646  29.2724247  39.6137962  40.0722466  28.9981651
  40.1804962  39.7624550  28.1201096  40.2461128  41.4776878  29.4239864
  41.2959633  41.1906929  29.3644505  40.0977783  42.1010666  28.5422268
  39.8201981  42.2402458  30.7171879  38.7324448  42.2512779  30.7862587
  40.1923866  41.8285828  31.6553288  40.2573242  43.7467995  30.8622208
  41.3424759  43.7079811  30.9573097  40.0254631  44.2091904  29.9027729
  39.7052269  44.5362206  31.9596558  39.8913956  44.1035690  32.9426384
  40.2529449  45.4779549  31.9948769  38.2842255  44.9584885  31.7883511
  38.1037636  45.7600403  32.3757629  38.2622910  45.1890526  30.8052635
  37.7357407  44.1533089  32.0547104  39.7549782  39.0496826  30.1285057
  38.8443069  39.0926781  30.9487801  40.7265282  38.1235199  30.0935822
  41.7636337  38.0472755  29.1379833  42.2220154  39.0279579  29.0105133
  41.3858223  37.6374474  28.2012863  42.7795219  37.0977745  29.7014580
  43.4485741  37.6001396  30.4000969  43.3661270  36.5788307  28.9433727
  41.8804131  36.1086464  30.5159092  42.3972931  35.7757988  31.4159889
  41.5316811  35.3044357  29.8680420  40.7085838  36.9468307  31.0168819
  39.7930450  36.4375153  30.7160778  40.7543068  37.2869644  32.4982338
  40.1678772  36.5277100  33.2846756  41.3870239  38.3875999  32.9035568
  41.8186607  38.9511108  32.1850548  41.4293861  38.7618217  34.3357468
  41.8666153  37.9283028  34.8854561  42.3777809  39.8833580  34.6487770
  42.6433678  39.9202118  35.7052841  43.2919960  39.7531166  34.0696793
  41.7157860  41.2203903  34.3312759  40.9669189  41.0708847  33.5534935
  41.0277176  41.5694733  35.1012154  42.5857735  42.3908005  34.0301094
  43.8325081  42.3860512  34.1826630  41.8890381  43.4537201  33.8244820
  40.0537376  39.0108528  34.9389038  39.9450760  38.8875275  36.1568184
  39.0660934  39.3656998  34.1346664  39.3598480  39.3725166  33.1683540
  37.6199570  39.5583725  34.5418930  37.5173798  40.1215286  35.4694901
  36.7765274  40.4667320  33.5247765  36.8820190  40.1120377  32.4995117
  35.7097549  40.4360237  33.7464752  37.1526985  41.9616089  33.7190704
  37.4599533  42.4165459  34.8630486  37.0661125  42.6572685  32.6770592
  36.9210739  38.2327080  34.8503532  35.9302979  38.2815475  35.5510216
  37.4024315  37.0144691  34.3629799  38.1498795  36.9681244  33.6852837
  36.6244392  35.8361359  34.5533409  35.6123314  36.1641541  34.3164024
  37.0846176  34.7990608  33.5394707  38.1418457  34.6442223  33.7548561
  36.3274727  33.4738083  33.6416054  36.2527351  33.0995789  34.6626167
  35.2771721  33.5743370  33.3680000  36.8456154  32.7588882  33.0024567
  36.9076729  35.2046585  32.0665855  35.9317398  35.6596298  31.8973274
  37.6451759  35.9696007  31.8235607  37.0158119  34.4077492  31.3308296
  36.7976456  35.3242416  35.9966393  37.9142075  35.0924072  36.4002419
  35.7115631  35.0481567  36.8015823  34.7943916  35.3252945  36.4820633
  35.8318977  34.6285324  38.2172928  36.5871010  35.2649727  38.6785011
  34.5004005  34.6186180  39.0054474  33.7460709  34.0112648  38.5052261
  34.6265984  34.0135345  40.3836784  34.8936119  32.9569817  40.3614082
  35.3443260  34.5248260  41.0251999  33.6787682  33.9622917  40.9194870
  33.8866692  35.9981766  39.0261765  33.0410385  35.9434509  39.7117500
  34.6763115  36.7244759  39.2186775  33.4506340  36.1971436  38.0472031
  36.2745857  33.1802139  38.2625160  37.2666092  32.8464241  38.9306030
  35.6819420  32.3512268  37.4234581  35.0767708  32.7048874  36.6962776
  36.0369263  31.0112438  37.1580620  37.1139946  30.9248428  37.0146980
  35.6905327  30.1193562  38.3481216  35.8661461  29.1003246  38.0033989
  36.3593063  30.2893410  39.1918945  34.2111816  30.2581310  38.7434731
  33.8519707  31.1636772  38.2545433  33.6969566  29.4236012  38.2667847
  33.9535141  30.3368702  40.2533112  34.8182945  30.3867226  41.1390877
  32.7407112  30.5272942  40.6772003  32.5763283  30.5193653  41.6737022
  31.9099770  30.4761066  40.1050491  35.2258873  30.5479450  35.9106407
  34.2255974  31.0867043  35.5447693  35.7604790  29.5225735  35.3291473
  36.6160622  29.1443748  35.7099953  35.0564651  28.7395649  34.2977791
  34.1330566  29.2529831  34.0297928  35.9090233  28.7836018  33.0633163
  36.0758476  29.8200893  32.7701225  36.8931046  28.3537693  33.2502327
  35.3943062  28.1564426  31.7736969  34.8449135  27.2396088  31.9874306
  34.7097321  28.8667145  31.3100452  36.5818939  27.6424408  30.5051098
  37.1221390  29.2052574  29.9810314  37.7313232  29.7896023  30.6706257
  37.7474709  29.0671577  29.0989952  36.2818069  29.8371925  29.6936150
  34.6436043  27.3040752  34.6780014  35.2389221  26.6522751  35.5322609
  33.6496468  26.7610321  33.9294281  33.1221390  27.4062462  33.3588715
  33.3671532  25.3120689  33.7545128  34.1518097  24.7580070  34.2697144
  32.1228256  24.8325081  34.5139198  31.2092209  25.0671577  33.9676895
  32.2195778  23.7632523  34.3256798  31.9918346  25.1479130  36.0093002
  32.9923096  25.4673252  36.3010788  31.2038822  26.4060993  36.2706528
  30.1278839  26.2319584  36.2696991  31.5612469  26.9094296  37.1690140
  31.3883381  27.0964489  35.4475517  31.4498711  24.0434208  36.9095306
  32.0112686  23.1496334  36.6373558  31.5494366  24.3615532  37.9473076
  30.3974285  23.9323101  36.6485367  33.2416573  24.9063950  32.2857628
  32.6208382  25.6400299  31.5137272  33.7841682  23.7659817  31.8676777
  34.2172203  23.1506786  32.5414467  33.3754921  23.2344322  30.5577793
  32.6881714  23.8650856  29.9938927  34.6573524  23.0704689  29.6222878
  35.2951393  22.3182755  30.0865459  34.3821106  22.6819744  28.6417713
  35.4749565  24.2971306  29.3969612  35.6837654  24.8540478  30.3103848
  36.8338089  23.9388237  28.7943287  36.5723228  23.2868786  27.9608498
  37.4707642  24.7405739  28.4207153  37.3012276  23.3292580  29.5676632
  34.9259605  25.2585831  28.3456268  33.9038658  25.4691868  28.6603756
  35.4702492  26.2026291  28.3706493  34.8807716  24.8189259  27.3492527
  32.6544495  21.9502468  30.6721325  32.5472260  21.3435688  31.6891823
  32.1469765  21.4315758  29.5741901  32.2581558  22.0151253  28.7573605
  31.5797291  20.0753708  29.4610844  32.1334686  19.3177223  30.0155621
  30.2183418  20.2377396  30.0239315  30.2767925  20.6762085  31.0201397
  29.7372608  20.8430290  29.2556324  29.5763626  19.0181179  30.0032616
  29.7447701  18.5659809  30.8332081  31.5842686  19.5574722  28.0226097
  31.5952606  20.4284687  27.1989613  31.5341091  18.2102795  27.7943993
  31.8412933  17.6163712  28.5513783  31.1316872  17.4790058  26.5478783
  30.6688995  18.2558327  25.9392109  32.3131485  16.7962742  25.7854233
  32.7060432  16.0452538  26.4707775  31.9223766  16.3241673  24.8840294
  33.0162544  17.6111679  25.6131134  29.9652634  16.5864811  26.9102592
  29.7580509  16.1500645  28.0354538  29.2450829  16.1178875  25.9028778
  29.3916378  16.4866066  24.9740791  28.2409897  15.0203638  25.9919281
  27.6105194  15.3101940  26.8325272  27.4004745  14.8806610  24.6887436
  26.9703617  13.8791304  24.6949825  26.1908684  15.7755766  24.7245579
  26.5298080  16.8105621  24.7695560  25.5094242  15.7347469  23.8748150
  25.5950203  15.5080643  25.5971947  28.1622066  15.0152702  23.6112747
  28.3333912  14.1349888  23.2686291  28.8690395  13.6542559  26.4629707
  30.0896034  13.4482794  26.3850079  28.0787983  12.6874399  26.9279671
  26.6629333  12.7810707  27.1717377  26.1611805  12.6419325  26.2141438
  26.3984299  13.7833681  27.5086918  26.3268318  11.7685051  28.2785892
  25.2722015  11.4933043  28.2674561  26.6494598  12.1845961  29.2329903
  27.3943405  10.6609640  28.0197372  27.0092068  10.0030003  27.2407246
  27.6450539  10.0058441  28.8540382  28.6174374  11.3840752  27.4953270
  29.2241554  11.6049738  28.3735123  29.3454494  10.5257921  26.4368763
  29.7317657   9.4206848  26.7430058  29.4074593  10.9750500  25.1865711
  28.9569359  11.8592758  24.9987602  29.9174309  10.2907419  23.9538536
  30.0743656   9.2421341  24.2066250  28.9832458  10.2096834  22.7804203
  29.5476818   9.8960333  21.9022751  28.2173462   9.5483780  23.1856041
  28.3998394  11.5411005  22.4251614  27.3467522  11.5260868  21.7672634
  28.8019867  12.6190720  22.9737740  31.3544960  10.7119179  23.5450153
  31.8546047  10.3185511  22.4853573  32.0109291  11.5556479  24.3244095
  31.5537128  11.8829403  25.1634159  33.3562088  12.1301603  23.9551773
  33.7733765  11.5137501  23.1588669  33.2981529  13.6424885  23.3947811
  33.0000153  14.2552137  24.2455387  34.3475952  13.7350731  23.1151409
  32.3341522  13.9282837  22.2059364  31.3034191  13.6389828  22.4108696
  32.4659843  15.4363165  21.8364296  31.8301525  16.1017265  22.4204235
  33.4790955  15.7345114  22.1062489  32.3348122  15.5038090  20.7564583
  32.9112587  13.1015272  21.0062504  33.9503403  13.3711662  20.8172932
  32.8826408  12.0162659  21.1036625  32.5535240  13.4957619  20.0550900
  34.2917480  11.9638205  25.1101646  34.0283470  12.2507048  26.2327232
  35.4527817  11.4494028  24.8729687  35.6122932  11.2463026  23.8965435
  36.4394646  10.9686480  25.8371201  36.2324181  11.6176758  26.6879978
  36.1386795   9.5022840  26.1766872  36.2805405   8.8986120  25.2802734
  36.8157272   9.1591139  26.9589520  34.6875496   9.2356300  26.6693172
  34.1393547   9.9324493  27.7416782  34.5701370  10.7439508  28.1611919
  32.8634644   9.5300531  27.8603935  32.1329536   9.8138800  28.6035004
  32.6010208   8.5001354  27.1064720  31.8017712   7.8826427  27.1049805
  33.7401772   8.2530584  26.3592720  33.8297195   7.5135751  25.5772572
  37.9826584  11.1338749  25.5102787  38.8353119  10.5639486  26.1178074
  38.2635002  11.8754711  24.4200039  37.4724846  12.0720282  23.8235493
  39.6249657  11.9357443  23.8242779  39.9763641  10.9107237  23.9424057
  39.4791222  12.3026924  22.3639507  40.5064850  12.3514013  22.0030441
  38.9670563  11.4397278  21.9382973  39.0013657  13.2765446  22.2568970
  40.5618324  12.8406210  24.6253071  41.6902428  12.5452356  24.6315765
  40.0549812  13.8786249  25.2083607  39.0497932  13.9075279  25.3024960
  40.9184532  14.9165592  25.7906208  41.6845551  14.5174885  26.4553967
  41.4543686  15.8379040  24.7425194  41.8707123  15.2401733  23.9316692
  40.2999649  16.6734905  24.0354137  40.6948509  17.0995560  23.1131115
  39.4971581  15.9699345  23.8149471  40.0059471  17.4158382  24.7774200
  42.5682068  16.7156963  25.2647800  43.3375397  15.9516068  25.3761005
  42.9675102  17.4611130  24.5770206  42.3454514  17.1134167  26.2548790
  40.0184288  15.7056103  26.7763767  38.7319450  15.7241707  26.5975475
  40.5895119  16.3188515  27.7797661  41.5816917  16.1963501  27.9235611
  39.9152679  17.2708893  28.5339813  38.8909416  16.9705734  28.7546043
  40.6509743  17.3319740  29.8975639  41.7030563  17.1582699  29.6716137
  40.4774094  18.2718334  30.4216213  40.0497169  16.2592125  30.8154526
  38.9088097  16.4750748  31.5755634  38.4488831  17.4482021  31.4867382
  38.4499664  15.5506001  32.5448418  37.6352959  15.8848000  33.1701584
  39.2994499  14.4750242  32.8464890  39.1477432  13.9327974  33.7681046
  40.5283585  14.2465467  32.1037979  41.1311150  13.3895998  32.3659592
  40.8191528  15.1586313  31.0657082  41.7250137  14.9614401  30.5116940
  39.8830757  18.6441307  27.8228664  40.9416389  19.2175312  27.4724751
  38.6922951  19.1290188  27.4440880  37.4027481  18.5068359  27.6701202
  37.0159378  18.6926250  28.6720982  37.4338531  17.4419613  27.4395256
  36.4789352  19.0508347  26.6355286  35.4546928  18.9133663  26.9821167
  36.6509399  18.4654236  25.7323055  36.8978500  20.4902916  26.5303440
  36.5885887  21.0246906  27.4286060  36.4093018  20.9626808  25.6781292
  38.4323425  20.3390846  26.5970821  38.7483101  20.0214596  25.6034126
  39.2245445  21.6107864  27.0735950  39.6215057  22.4226589  26.2496719
  39.3803291  21.7545872  28.4171124  38.8802490  21.0755367  28.9729080
  40.1876183  22.7510338  29.0832653  39.7944298  23.7506332  28.8980427
  40.2165070  22.3406410  30.5762978  39.2469177  22.4375515  31.0647717
  40.5327950  21.3169327  30.7765083  40.8384285  23.0611534  31.1075001
  41.5692940  22.9927158  28.6031895  41.9972496  24.1457062  28.6811981
  42.2467461  22.0307026  27.9908161  41.8296089  21.1126270  28.0477028
  43.4486389  22.2082863  27.1811943  44.2609520  22.5126781  27.8411922
  43.8363571  20.8831615  26.5521507  43.5141602  20.0601673  27.1900921
  43.3646927  20.8598251  25.5697613  45.3390388  20.7609711  26.1757164
  45.5811768  21.4676018  25.3819008  45.9781075  20.8844795  27.0500355
  45.6575699  19.3490047  25.5384731  45.4272957  18.6462288  26.3392086
  44.9445992  19.2252483  24.7233334  47.1097717  19.1083660  25.0373669
  47.3555183  19.7186260  24.1682911  47.8444595  19.3676758  25.7996597
  47.2704315  17.6709976  24.7703476  48.2010765  17.2964497  24.8874664
  46.7280998  17.1455975  25.4411221  46.8798180  17.3737659  23.8876400
  43.3926048  23.2308731  26.0733986  44.4398689  23.8010120  25.7598820
  42.2996407  23.4325314  25.3405113  41.4644928  22.9388466  25.6214085
  42.1526337  24.4266186  24.3202305  42.9261780  24.4067898  23.5525417
  40.8808556  24.2299747  23.4942150  40.5677605  25.1282330  22.9620514
  40.8809776  23.4137554  22.7717991  40.0045662  23.9843369  24.0941143
  42.2165909  25.7871323  25.0350399  42.5677872  26.8092480  24.3555012
  41.7897301  25.9428749  26.3519039  41.5285797  25.1085339  26.8576450
  41.8409538  27.2795582  27.0159817  41.4081383  28.0098743  26.3323059
  41.0874329  27.3059063  28.3994198  41.5691071  26.5746460  29.0485344
  41.1849747  28.5654640  29.1558609  42.1774254  28.7445641  29.5694714
  40.9211311  29.4191914  28.5316525  40.4741058  28.5679588  29.9821548
  39.6186752  26.8075142  28.1915989  39.1835899  26.4557991  29.1270676
  38.9327126  27.5710068  27.8246746  39.5005455  25.9170017  27.5742378
  43.2580528  27.8504810  27.1718407  43.5148735  28.9636364  26.7968369
  44.2843361  27.0415649  27.4426193  44.0888596  26.0799637  27.6818047
  45.6609344  27.5167351  27.6241550  45.6759109  28.4360924  28.2095261
  46.3563423  26.4459782  28.4813404  46.2128143  25.4266224  28.1229916
  47.3919220  26.7497463  28.6343155  45.7713661  26.4952164  29.9057484
  45.9587288  27.5046730  30.2718010  44.6925392  26.4042244  30.0320759
  46.5600777  25.5542736  30.8512936  47.5828323  25.9114361  30.9717426
  46.0314560  25.6044998  31.8032055  46.6299591  24.1235962  30.3949127
  47.4912605  23.6116238  30.2678776  45.5903168  23.3748703  30.4466343
  44.4446487  23.7843800  30.7999573  43.6711311  23.1351299  30.8158188
  44.3050766  24.5834332  31.4017315  45.6220360  22.1182652  30.1920815
  44.7676964  21.6481838  30.4551945  46.4621849  21.6009579  29.9761028
  46.4014397  27.7538395  26.2943707  47.5405731  28.1769733  26.3351822
  45.8512383  27.4299583  25.2053299  45.0023270  26.8910675  25.3004761
  46.3617516  27.8492126  23.8990459  47.4290085  27.6550999  23.7923355
  45.7401237  27.0565453  22.7329502  44.6695251  27.2514973  22.7955055
  45.9944496  27.4750862  21.7591724  45.9762573  25.5191097  22.5961418
  45.5003242  25.0666637  23.4661293  45.5641403  25.1307926  21.6647625
  47.4977760  25.2480774  22.5366783  47.9361305  24.2644863  23.1871471
  48.2616615  25.8829689  21.7937107  46.1483383  29.3805695  23.5956497
  46.6120834  29.7962456  22.5072479  45.5426483  30.1813107  24.5079041
  45.1223526  29.8682957  25.3713112  45.3232536  31.6464481  24.2275944
  45.6380539  31.9467449  23.2281799  43.7968597  31.8461971  24.3261356
  43.4046822  31.3623600  25.2206726  43.4854736  32.8898544  24.3698921
  43.0617943  31.1449890  23.1710339  43.3618355  30.1155109  22.9754581
  41.5429459  31.0592251  23.4966164  41.0317039  31.9960995  23.7179680
  40.9273682  30.6823063  22.6798573  41.3151703  30.4399529  24.3642159
  43.1720276  31.9407711  21.8448982  42.4264374  31.4993877  21.1835594
  42.9183273  32.9985771  21.9140739  44.1571388  31.7587509  21.4153252
  46.0930176  32.5335884  25.3396912  46.2195435  32.0204544  26.4900131
  46.7067795  33.7286034  25.1101570  46.8202782  33.9749947  24.1372681
  47.6143570  34.4313240  26.0715542  48.2938232  33.7247353  26.5481625
  48.5652351  35.5429382  25.4789028  47.9335709  36.3878860  25.2047424
  49.1954880  35.8528938  26.3124561  49.3100433  35.0149841  24.3915768
  48.9383163  35.1111794  23.5117092  46.7386398  35.0503502  27.2047539
  45.6340981  35.5932159  26.9832897  47.2185707  34.9464760  28.4405251
  48.1104012  34.4912109  28.5726929  46.5929604  35.4511375  29.6794052
  47.3343010  35.8811531  30.3529091  46.1246185  36.4130135  29.4707336
  45.3860512  34.6565857  30.3544235  45.1510582  34.7019577  31.5562725
  44.8238487  33.7524948  29.5412807  45.1241302  33.8139839  28.5789127
  43.7798653  32.7486115  29.8931503  43.0192261  33.3267097  30.4178658
  43.2020988  32.1707878  28.6569252  44.0042915  31.9320908  27.9586315
  42.6218948  31.2951660  28.9480381  42.1662178  33.0676460  28.1106300
  42.1921005  33.9487877  27.0099773  43.0910988  34.0999718  26.4308853
  40.9648094  34.4831963  26.8227501  40.7095222  35.1251488  26.0859833
  40.0643845  34.0555649  27.7071648  38.6741066  34.2160606  27.8023281
  38.2053375  34.7720985  27.0039043  37.9576035  33.5917740  28.8260632
  36.8857231  33.7182579  28.8645992  38.6297646  32.6728554  29.6069164
  38.1218109  32.1584587  30.4092751  39.9953690  32.4355965  29.4642162
  40.4279327  31.7681007  30.1947937  40.7524223  33.0477066  28.4897690
  44.3163109  31.5713749  30.7677078  43.4984856  30.8422108  31.3580303
  45.6791458  31.5170822  30.8828793  46.1923943  32.2385979  30.3969898
  46.3913574  30.4666100  31.6266003  46.0884285  29.5257664  31.1670818
  47.9013557  30.4564342  31.2332268  48.3282967  29.5642395  31.6912823
  47.9069786  30.4921455  30.1438274  48.7831612  31.4977741  31.8786240
  48.5616188  31.7191200  32.9226646  49.8196526  31.1777706  31.9853306
  48.8511353  32.7747993  31.0698605  48.2071495  32.9014740  30.0362053
  49.6858292  33.6523819  31.3945389  49.7713470  34.3086815  30.6316109
  50.4858513  33.3498611  31.9317017  46.0582008  30.5010777  33.1690407
  45.9765396  29.5396919  33.9131546  45.7876434  31.6584454  33.7756844
  45.6770172  32.5339813  33.2844620  45.3439598  31.8238621  35.1704063
  45.6814728  31.0571156  35.8677483  45.7701950  33.2174416  35.6653061
  45.1561012  33.9489594  35.1400681  45.5790215  33.3019485  36.7350807
  47.2693863  33.4966812  35.5983963  48.1781311  32.7876854  36.3368950
  47.8747063  32.1309280  37.1387711  49.5712891  32.8274994  36.0716591
  50.2903366  32.1628647  36.5273285  50.0351143  33.7681351  35.1201591
  51.3039513  33.8664398  34.8982887  51.7683563  33.1211548  35.2862015
  49.0715141  34.6018715  34.4741402  49.3948975  35.4354668  33.8683815
  47.6900711  34.4765701  34.7606583  46.9647560  35.1286354  34.2968292
  43.8124275  31.7857742  35.5664177  43.4163933  31.8335438  36.7507820
  42.9948654  31.7298031  34.5653076  43.4259605  31.9031372  33.6685257
  41.5600548  31.5388126  34.5936775  41.0952606  32.2503700  35.2761421
  40.8925629  31.8885403  33.2136116  41.3233032  31.3254833  32.3856468
  39.3520203  31.5925350  33.2775726  38.8724174  32.1371307  34.0908966
  38.9924774  32.0155640  32.3395538  39.1347885  30.5259762  33.3355789
  41.0287094  33.3827324  32.8887596  40.6596909  33.5808716  31.8824501
  40.6367760  33.9996452  33.6974068  42.0638046  33.7158356  32.8131142
  41.3777733  30.1522427  35.0228424  41.8498726  29.2452602  34.3133812
  40.7485847  29.9203892  36.2157021  40.0810928  30.8997173  37.0876236
  39.2274437  31.3903503  36.6200066  40.7200966  31.6617794  37.5337563
  39.6356087  30.2412319  38.3733749  38.5534096  30.1228561  38.4275703
  40.0572472  30.7135201  39.2606506  40.1562195  28.7977161  38.1499901
  39.3680916  28.1080933  38.4522743  41.0523605  28.7804585  38.7702637
  40.5786781  28.5520687  36.6977081  41.5258980  28.0131607  36.6764908
  39.5247383  27.7735481  35.9942360  38.4556160  28.3801746  35.8193703
  39.7027588  26.4702721  35.7495728  40.6035957  26.0180950  35.8138390
  38.6753654  25.5909328  35.1010666  37.7722855  26.0898666  35.4526443
  38.7541580  25.8781509  33.6302299  38.5939598  26.9410114  33.4492188
  40.0914574  25.5047722  32.9268532  40.2624130  24.4449749  33.1158028
  40.0597038  25.7441864  31.8639431  40.9195404  26.0244656  33.4088249
  37.6805229  25.1449738  32.8531113  36.7582092  25.5630341  33.2564316
  37.7463074  25.3693695  31.7884903  37.7484016  24.0645275  32.9800606
  38.6702118  24.1938744  35.6022339  39.6283760  23.5914097  36.0861588
  37.4298553  23.6029186  35.4215240  36.7246780  24.1856918  34.9935036
  37.0531044  22.2011032  35.6895905  37.9590416  21.6011467  35.6033897
  36.5758705  22.1624203  37.1998329  36.8313942  23.1461525  37.5936356
  35.1524277  21.7577782  37.5447922  35.0985718  20.7368546  37.1667519
  35.0877838  21.7221088  38.6322899  34.4881630  22.4997025  37.1016159
  37.3221436  21.2284012  37.8838234  37.0370140  20.3962593  37.4993210
  35.9767952  21.8093185  34.7362747  35.2494240  22.7219849  34.2293320
  35.9690437  20.5640068  34.3443565  36.5807343  19.9669018  34.8823128
  35.0771027  19.9667034  33.2775612  34.6852684  20.7795353  32.6661072
  35.8841248  19.1317596  32.2563591  36.3560448  18.2424088  32.6740303
  35.2006187  18.7926731  31.4779339  37.3286514  19.9553509  31.4752235
  38.1443520  19.6441860  32.4865112  33.9846992  19.1361866  33.8800926
  34.2111549  18.0011063  34.2726707  32.7263680  19.5986881  33.9627724
  32.6553421  20.5119381  33.5372925  31.5714626  18.9434509  34.6272736
  31.9515800  18.4472752  35.5202560  30.4642658  19.9923420  34.9746475
  29.6871510  19.5348072  35.5868988  30.9594841  20.7122822  35.6262207
  29.7636089  20.8000450  33.8335495  30.5156727  20.7798023  33.0448227
  28.8985004  20.2818871  33.4197884  29.4136257  22.5514603  34.0643158
  28.7664127  23.0094032  32.4598274  28.0860157  22.2936172  31.9985161
  28.1378117  23.8893890  32.5961609  29.6168327  23.2411690  31.8185921
  30.9908772  17.9286098  33.6227913  30.8047771  18.1950130  32.4292717
  30.6740875  16.6677399  33.9693260  30.7835865  16.4085960  34.9393539
  30.0177803  15.6939449  33.0904465  30.5755653  15.6711941  32.1542549
  30.2467575  14.3721991  33.7483749  31.2584686  14.2316132  34.1288719
  29.6332150  14.3636503  34.6492615  29.7824764  13.2223473  32.9215355
  28.7036228  13.2741480  33.0681343  30.0812359  13.3052225  31.8765602
  30.2666683  11.8963137  33.4565201  29.5520058  10.9502344  33.5339088
  31.5695076  11.7555666  33.6805534  32.1227951  12.4665985  34.1370697
  31.8355618  10.7994213  33.8679085  28.5275517  15.9409256  32.8352318
  27.8025322  16.3886318  33.7236710  28.1620865  15.6676846  31.5983696
  28.8945599  15.2939005  31.0119648  26.7766609  15.8675861  31.0614471
  26.4669304  16.8812771  31.3156071  26.9179821  15.8241730  29.5212765
  27.6994076  16.5116940  29.1975651  27.2583923  14.8139544  29.2939453
  25.6718349  16.2634811  28.7089577  25.6685925  15.8315926  27.7081776
  24.7510681  15.9471159  29.1990623  25.6618195  17.7622108  28.5582409
  25.3857517  18.5162697  29.5427265  25.9030380  18.3528194  27.4895420
  25.7739143  14.7542839  31.5126286  26.2798424  13.6339874  31.8628292
  24.4635220  15.0097208  31.5983524  24.2292480  15.9800911  31.4447384
  23.4017944  13.9885921  31.8028126  23.6831017  13.2907658  32.5914879
  22.0482121  14.6003780  32.2087708  21.5744152  15.2147722  31.4431763
  21.3115635  13.8023462  32.3014870  22.1094494  15.4914532  33.4205170
  22.5533619  14.9730577  34.2704010  22.8344593  16.2274189  33.0729332
  20.4598103  16.2423210  33.6925430  19.3631096  14.8168135  33.7959099
  18.3790817  15.0687275  34.1913033  19.2465801  14.4508667  32.7758102
  19.9013271  14.0700760  34.3797073  23.1380291  13.1107321  30.5749722
  23.1984406  13.4906178  29.4299183  22.7586308  11.8574238  30.7927895
  22.8447075  11.5163565  31.7395554  22.2437820  11.0014982  29.7037449
  22.8724880  11.3140411  28.8699913  22.5855865   9.5177650  30.0547428
  23.5642357   9.3372974  30.4994659  21.8950291   9.1854191  30.8298416
  22.5189800   8.5171251  28.9087715  22.0624981   8.7639856  27.7995682
  22.8488178   7.3413949  29.1957779  20.7825413  11.3101959  29.4499569
  20.0602837  11.2162428  30.4040432  20.3425980  11.6987858  28.2454109
  21.0058270  11.8169174  27.4929008  18.9356079  12.1452408  27.8775616
  18.2728882  11.7281351  28.6357994  18.8326969  13.7188873  27.8767128
  19.5395775  14.1096048  27.1447544  17.4838409  14.3917742  27.4889507
  16.6831951  13.6687527  27.6448746  17.3820057  15.3716812  27.9553318
  17.5315380  14.5273132  26.4084625  19.2291336  14.2204504  29.2746372
  20.2853870  14.0340843  29.4688110  19.0806179  15.2998228  29.3062305
  18.6680851  13.6400204  30.0070477  18.4867153  11.4805212  26.5906830
  19.0937843  11.7563305  25.5330696  17.3239098  10.8640938  26.5521736
  16.7853527  10.7629242  27.4005966  16.7154064  10.2632504  25.3390331
  17.4142303   9.5351219  24.9272404  15.5275431   9.4475136  25.6761742
  15.7931261   8.7616358  26.4806232  14.3189297  10.2503443  26.1949062
  14.7144423  10.8903437  26.9836178  13.8596878  10.7792692  25.3597794
  13.6501760   9.5175829  26.6465015  15.0569792   8.7425308  24.5999813
  15.7377672   8.2134466  24.1778450  16.3578835  11.3393755  24.3028049
  15.7394304  12.3581161  24.6372528  16.7663212  11.1869240  23.0576153
  17.1068382  10.2875700  22.7488899  16.6407566  12.3258638  22.1587658
  16.6945457  11.9389915  21.1411514  15.5717716  12.5388699  22.1589241
  17.4054279  13.6128435  22.3723335  17.1214981  14.6464682  21.8135242
  18.3981380  13.5586567  23.2120419  18.6450043  12.6499300  23.5772457
  19.4655190  14.5685730  23.3304939  18.9876442  15.5480022  23.3090992
  20.0787621  14.4272223  24.2204666  20.4990921  14.6007137  22.1093616
  20.5810299  13.6440392  21.3282051  21.2347488  15.6753988  22.0000648
  21.1859646  16.4021778  22.6997147  22.2899685  15.9681139  21.0141544
  21.9443016  15.6790857  20.0216427  22.6633949  17.5033550  20.9235001
  21.7138577  18.0382614  20.9046974  23.2037029  17.9073353  21.7796345
  23.3610840  17.8447170  19.5985508  24.1942997  17.1614132  19.4343987
  22.4181328  17.8583412  18.4142666  22.9952335  18.0571098  17.5111942
  21.8531246  16.9269047  18.4502373  21.6167641  18.5835762  18.5554981
  23.9976292  19.2880116  19.5326614  24.8777657  19.2891159  20.1756725
  24.3562546  19.4615650  18.5180836  23.3142357  20.0774097  19.8455963
  23.4971504  15.0476189  21.2594280  23.9244232  14.9688129  22.3875313
  24.0050411  14.4210300  20.2232533  23.4789677  14.4073610  19.3611851
  25.3189049  13.6970205  20.1710701  25.6137486  13.2344103  21.1129665
  25.4054527  12.5630512  19.1365204  25.4008598  13.1595764  18.2242508
  26.3466015  12.0223618  19.2364960  24.2053623  11.5851984  19.1560650
  24.0281811  11.2334003  20.1724052  23.2546349  12.0602503  18.9140892
  24.5339890  10.3023624  18.4070663  24.8671150  10.6336308  17.4235077
  25.3262920   9.7685432  18.9318466  23.3298149   9.4124146  18.2760944
  22.5556698  10.0665846  17.8750172  23.5699406   8.5850887  17.6082840
  22.9863415   8.8419104  19.6678562  22.2167950   8.1888762  19.6298523
  23.7411423   8.3267174  20.0979195  22.6160927   9.6056690  20.2152939
  26.4918137  14.6613445  20.0067692  26.3562489  15.7100468  19.3442097
  27.6524010  14.2948713  20.4894142  27.4896812  13.3507099  20.8090725
  29.0045815  14.8426819  20.2164154  29.6636848  14.4196339  20.9745140
  29.5744267  14.2925196  18.9061584  28.9709911  14.7533083  18.1240845
  30.6272640  14.5627232  18.8247757  29.6395779  12.7553720  18.7748985
  30.3120766  12.4261770  19.5670338  28.6012592  12.4354715  18.8623886
  30.1943550  12.3089218  17.3614979  29.7223129  12.9360247  16.6051769
  31.2135983  12.6947165  17.3413086  30.2443275  10.8490248  16.9212646
  30.8430977  10.9086504  16.0124092  30.8379879  10.2828779  17.6390018
  28.8969936  10.3837090  16.6442757  28.3498020  11.0749102  16.1514034
  28.9833069   9.6273785  15.9804821  28.5334740  10.0162935  17.5120087
  29.0819359  16.3499374  20.3188400  29.5689831  16.9871750  19.3945045
  28.6294327  16.8572121  21.4496479  28.3146572  16.2243290  22.1710892
  28.5387611  18.2842140  21.8081818  28.8637314  18.8292961  20.9219666
  27.0850964  18.5444679  22.1920357  26.4612408  18.3865128  21.3122883
  26.8761272  17.8107510  22.9705620  26.7752323  20.2171745  22.7343674
  27.7997589  20.2862282  23.5890446  29.5889740  18.6804066  22.8437119
  30.0710316  17.8458633  23.6400318  29.8976421  19.9754848  22.8573952
  29.4211750  20.6129589  22.2355366  30.7836723  20.5837231  23.8795433
  30.7698345  19.9841976  24.7897511  32.1930122  20.7893810  23.3857098
  32.0977859  21.5512505  22.6120262  33.1654243  21.1281929  24.5661430
  34.1590271  21.3398685  24.1711178  32.8303413  22.0124245  25.1083241
  33.2002373  20.3503437  25.3289261  32.8177338  19.5676670  22.7023735
  32.9068604  18.7256031  23.3887291  32.1497231  19.2591724  21.8981972
  34.1739311  19.6622543  22.0611591  34.8697205  19.8162708  22.8859348
  34.5220413  18.7580967  21.5617371  34.2194862  20.4679699  21.3284569
  30.2552986  21.9716511  24.2955151  29.7575455  22.7253494  23.4835529
  30.3389759  22.2777100  25.5306911  30.6260242  21.5378933  26.1554909
  29.6590405  23.4177704  26.1641045  29.4957962  24.1179924  25.3448696
  28.3928890  22.9903278  26.9212132  28.7410526  22.1711464  27.5503502
  27.9395790  23.8010654  27.4915771  27.2898674  22.4336052  25.9804726
  27.1055794  23.1934605  25.2210274  27.6449032  21.5335693  25.4784832
  25.9279060  22.1126537  26.6256866  25.3761082  22.9937210  26.9533195
  25.2226582  21.5731354  25.9935131  26.1610851  21.2804184  27.8315773
  26.2953377  20.2877483  27.7024250  25.8570347  21.7488251  29.0496693
  25.3354435  22.9308586  29.2812443  25.1721478  23.2272663  30.2328644
  25.0370293  23.4549122  28.4710503  26.0174999  21.0540447  30.1279144
  25.6000576  21.4026222  30.9789944  26.1825447  20.0580921  30.0972557
  30.4649410  24.1085033  27.2009468  31.4386387  23.5616035  27.7239323
  30.0936985  25.3281937  27.5267334  29.2461452  25.6905060  27.1138306
  30.8653488  26.2769604  28.3630638  31.4522915  25.6497211  29.0340118
  31.8894215  27.1625671  27.5064163  32.5915489  26.5551739  26.9352856
  31.0821667  27.9578438  26.4854660  31.8110065  28.3555737  25.7792759
  30.2584667  27.4029503  26.0363407  30.6497288  28.8481827  26.9419670
  32.7230034  28.0740948  28.4293518  33.1842270  27.6380234  29.3154755
  33.5480385  28.3012428  27.7542076  32.2145081  29.0099277  28.6611938
  29.9252472  27.1168766  29.2597523  28.8179970  27.4343128  28.8246136
  30.3591232  27.3610249  30.5357285  31.0497150  26.7589817  30.9608459
  29.7788391  28.2621384  31.5518494  29.0897579  28.9849720  31.1150684
  29.0734634  27.3718719  32.5986900  28.4602604  26.5745354  32.1787643
  29.8108616  26.8568821  33.2144279  28.2614613  28.2517281  33.5191231
  27.9621735  27.6832581  34.3996735  28.8857994  29.1122932  33.7593994
  26.6962852  28.8436127  32.8275948  26.9875927  30.6025333  32.9909134
  26.4141712  31.1520786  32.2443962  26.6720257  30.9215965  33.9842529
  28.0597286  30.7967682  32.9610901  30.9746323  29.0552521  32.1449661
  31.8359451  28.4259510  32.7273369  30.9983139  30.3849316  32.0674248
  30.2070885  30.8864460  31.6898689  31.9550858  31.2178955  32.7560081
  32.3917770  30.7465935  33.6365051  33.1452332  31.5269146  31.7824059
  33.8559036  32.2026787  32.2582130  33.6152611  30.5794411  31.5188389
  32.7793541  32.1763458  30.4437428  32.1069946  31.5990753  29.8090858
  32.2509689  33.1250954  30.5374889  34.3114777  32.7495728  29.5886021
  33.5495682  34.1825485  28.7982082  33.4841042  34.9622612  29.5570698
  34.2886467  34.6376648  28.1388626  32.6201019  33.9556847  28.2759781
  31.3454227  32.5745277  33.1416359  30.2784462  32.8378105  32.5915451
  31.8740139  33.1507835  34.2098160  32.7610855  32.8170509  34.5588455
  31.2745914  34.2784233  34.9980850  30.3201199  34.6121521  34.5910149
  30.8788338  33.7053909  36.4035110  30.6773434  34.5210724  37.0978928
  29.5716743  32.9044418  36.3062096  29.6382828  32.1038971  35.5694656
  29.2528172  32.6532173  37.3177986  28.7368507  33.4791451  35.9051018
  31.8111858  32.9194260  37.0124512  32.4658852  32.7506943  36.3309059
  32.1902657  35.4672318  35.0717468  33.3535995  35.3381691  35.4386597
  31.6863461  36.6616821  34.7240791  30.7138348  36.6518135  34.4516296
  32.4968109  37.7614288  34.2463913  33.5597801  37.5722961  34.3961258
  32.4597244  37.8646774  32.6511841  31.5076160  38.3426819  32.4207382
  33.6922150  38.6193733  32.0893326  33.7057991  39.6549873  32.4290657
  34.6514664  38.1320114  32.2637367  33.5968628  38.8560753  31.0296192
  32.4537849  36.4177818  31.9499168  32.6864471  36.5861053  30.8984261
  33.2575989  35.9066505  32.4797554  31.4852200  35.9182854  31.9719715
  32.1031380  39.1217918  34.8185463  30.9050159  39.4516792  34.8116493
  33.1068916  39.9592896  35.1841431  34.0456352  39.5984764  35.2772636
  32.9518242  41.2748756  35.7537346  32.1528816  41.4519157  36.4737701
  34.1704636  41.6513710  36.5552101  34.2971268  40.9449806  37.3756218
  35.0716057  41.5705681  35.9473381  34.2331886  43.1156769  37.0314827
  35.2341042  43.2767639  37.4318810  34.0808067  43.8072472  36.2028618
  33.3060608  43.4360313  38.2118187  32.0930290  43.3131561  38.1184425
  33.8406487  43.9293900  39.2839775  33.1965790  44.3640633  39.9292183
  34.7758636  44.3096008  39.2537498  32.6407471  42.3132858  34.7317276
  33.4135704  42.3617554  33.7976341  31.4816742  42.9215775  34.7693367
  30.8189754  42.8195381  35.5246620  30.9506512  43.6418114  33.6163368
  31.7864857  44.1836052  33.1736755  30.2312946  42.6322136  32.6312103
  30.9794254  41.8601227  32.4515610  28.9414406  42.0341721  33.1493645
  28.8689327  41.8344841  34.2184601  28.1767941  42.7860756  32.9542809
  28.7413445  41.0878944  32.6467514  30.0283222  43.2883148  31.3994808
  30.9097881  43.4293480  31.0463123  30.0326729  44.7734108  34.0993195
  29.7405682  44.9940758  35.2695923  29.3971386  45.4279709  33.1672859
  29.5931950  45.3161964  32.1828232  28.3104973  46.3487587  33.4365883
  27.8058681  45.9496536  34.3164558  28.6724682  47.7481613  33.7784882
  27.7816582  48.1995544  34.2152977  29.3462276  47.6272163  34.6267319
  29.2071323  48.7467918  32.7527046  29.3791542  48.4278984  31.5962105
  29.3348522  49.9161148  33.1862984  27.1984272  46.2902069  32.3733635
  26.2708797  47.0931015  32.3775978  27.4030666  45.3149910  31.4616394
  28.0375500  44.5316315  31.5239201  26.3440266  45.0612450  30.4687786
  26.1628609  45.9625664  29.8832016  26.9033031  44.1186371  29.3727741
  27.2854996  43.1666603  29.7412453  25.8781033  43.7141876  28.2950840
  25.4357929  44.6385918  27.9236755  26.3028259  43.1361504  27.4743614
  25.0076561  43.1612968  28.6482697  28.1000557  44.7709427  28.6131325
  28.5732460  44.0540962  27.9420719  27.6399803  45.5718117  28.0343018
  28.9431152  45.0807037  29.2307053  25.0095501  44.5446281  31.0635281
  24.9888268  43.6892128  31.9853077  23.8498878  45.0611115  30.6923580
  23.6627865  46.2615051  29.9840450  24.0916519  46.0486450  29.0048275
  24.1374645  47.0422707  30.5783405  22.1843853  46.5053368  29.6990929
  21.9772167  46.1537132  28.6883793  21.8963051  47.5565681  29.7039318
  21.4073830  45.7044144  30.7084980  20.5180035  45.3096504  30.2173080
  21.1517067  46.3085861  31.5789623  22.5204468  44.6015625  31.1138382
  22.5867023  44.7054291  32.1968536  22.2001133  43.1981583  30.6773949
  22.6683445  42.6913490  29.6518631  21.4196301  42.5044556  31.5069923
  20.9402142  43.0714264  32.1916847  21.3959961  41.1059608  31.5459251
  22.3531742  40.6611633  31.8180752  20.4311142  40.6594696  32.6820755
  20.8947754  40.9387703  33.6281776  19.4026833  41.0085564  32.5894966
  20.2931900  39.1245422  32.7765999  19.5226231  38.8435822  32.0586929
  21.2008038  38.5849342  32.5061264  19.7334003  38.5604362  34.0749130
  18.5239296  38.4850845  34.2303391  20.5717793  38.4217033  35.1049232
  21.5807152  38.3811646  35.0824013  20.1536903  38.1910019  35.9949112
  20.9648685  40.4659386  30.2263432  21.3145771  39.2960320  30.0343723
  20.0468864  41.0583954  29.4638023  19.8202171  42.0210724  29.6686630
  19.5474625  40.4407997  28.1932812  19.5966282  39.3524132  28.2264843
  18.0857792  40.9000130  28.0708408  17.7085629  40.3191833  27.2291489
  17.5477314  40.6440163  28.9835682  17.8184776  42.4271965  27.9027386
  18.7794819  43.2739182  27.9328289  16.6539345  42.7879295  27.7170277
  20.4073219  40.8228302  27.0332642  20.2387562  40.2024612  25.8903561
  21.4469395  41.6714783  27.1668491  21.4949932  42.1752853  28.0409012
  22.4197369  42.0854912  26.0416679  21.8949509  41.8473473  25.1164722
  22.7121887  43.5279312  26.1757412  23.1926613  43.7749939  27.1224213
  23.4010067  43.7691154  25.3661366  21.4240837  44.4316483  26.0739288
  20.9254665  44.4819794  27.0418892  21.8283806  45.4203377  25.8568153
  20.4741783  44.1662254  24.9198647  20.6573429  44.4202728  23.7511444
  19.3029232  43.6741104  25.1610126  19.0005894  43.6160583  26.1229496
  18.6574554  43.7286415  24.3860931  23.6792488  41.2173500  25.7991199
  24.4802322  41.5001144  24.9554043  23.7794476  40.1278687  26.5736160
  23.1056900  39.9772034  27.3108101  24.9712505  39.2429657  26.5181103
  25.8328609  39.9099197  26.4880314  25.0943680  38.2401810  27.7803192
  24.2361565  37.5796127  27.6569061  26.3775482  37.4019966  27.7862167
  26.3127613  36.7080498  26.9481583  27.2408371  38.0609093  27.6931057
  26.5181656  36.8752098  28.7300568  24.9642544  39.0050545  29.1125889
  24.0222454  39.5281906  29.2770443  24.9377384  38.2657166  29.9130745
  26.1398430  39.9569206  29.3873501  25.8158207  40.6428375  30.1700573
  27.0242290  39.4307861  29.7467155  26.4070129  40.5973015  28.5467358
  24.8923302  38.4112511  25.2260494  23.8086395  37.9365234  24.9193420
  26.0125427  38.2044373  24.5193863  26.8618813  38.6304474  24.8617859
  26.0658741  37.3498955  23.3448792  25.0231953  37.1582298  23.0915356
  26.9177399  38.0428658  22.2036343  27.8867493  38.3209038  22.6181412
  26.9374809  37.3290100  21.3801517  26.1627140  39.2709732  21.6574955
  25.2098961  39.0235443  21.1895027  25.9627953  40.0223312  22.4214287
  26.9854164  39.8687515  20.4815731  28.0359173  39.9961090  20.7429695
  26.9205227  39.1504288  19.6643200  26.2867241  41.1308670  19.9810104
  25.6870213  41.6460686  20.6095161  26.3904266  41.5603180  18.7495289
  27.2912560  41.0817680  17.9531822  26.9715748  40.7834969  17.0427189
  27.9445400  40.4127655  18.3349628  25.4851894  42.2371483  18.2158298
  24.7041035  42.6272087  18.7236252  25.5158291  42.4572945  17.2305889
  26.5569134  35.8980713  23.6909256  27.7603626  35.5365105  23.5540619
  25.6617069  35.1096725  24.2694416  24.8307228  35.5348854  24.6551361
  25.8658257  33.6915131  24.4665318  26.8172035  33.5537605  24.9803448
  24.7633839  33.1407089  25.3929596  23.8099346  33.0006065  24.8836384
  25.0292244  32.1432686  25.7430191  24.4087715  33.9594574  26.6134090
  25.1834927  34.0931778  27.7481956  24.4223423  34.6792488  28.6672897
  24.7009296  34.7577400  29.7077847  23.3186302  35.1902847  28.0915222
  22.5805187  35.7061501  28.5488777  23.2349796  34.6334724  26.8577843
  22.4274139  34.6959686  26.1434040  25.9703407  32.9584618  23.1171455
  25.2041283  33.2725792  22.2550468  26.7644901  31.8651676  22.9294605
  27.2191162  31.3971329  23.7004070  26.9807911  31.4162502  21.5064564
  26.5299969  31.9520855  20.6711311  28.4927731  31.6482506  21.1990566
  29.0185947  31.0460854  21.9400082  28.8979950  31.1575565  19.7660961
  28.7181454  30.0829124  19.7960129  28.3127403  31.5369244  18.9284458
  29.9635792  31.3149128  19.5991364  28.8461723  33.1506805  21.3220215
  28.1831551  33.8649597  20.8338490  28.8280373  33.4507942  22.3697357
  29.8243904  33.4342880  20.9337444  26.7308235  29.9148617  21.2906227
  27.2488747  29.0451698  21.9951439  26.1189899  29.5920219  20.1540470
  25.7673550  30.2823257  19.5060253  25.8399353  28.2387791  19.7872105
  26.2473850  27.5043163  20.4819450  24.3173370  27.9773197  20.0719719
  23.7443390  28.6981812  19.4887619  24.0684376  26.9601231  19.7695465
  23.9441528  28.1592350  21.5551491  23.8340225  27.0497990  22.4512711
  23.8034096  26.0528603  22.0370541  23.5592823  27.2333660  23.7994137
  23.4183865  26.3929024  24.4628716  23.3405762  28.5460205  24.2866974
  23.1700382  28.8654995  25.5841541  22.7027721  28.1528778  26.0262356
  23.4738827  29.6505375  23.4191723  23.3677998  30.6342106  23.8522243
  23.7476101  29.4659462  22.0466900  23.7206917  30.2773361  21.3344250
  26.2110367  27.9097366  18.3331242  25.6549358  28.5546322  17.4473019
  27.0953617  26.9596481  18.1237946  27.2473202  26.3033276  18.8762913
  27.6590118  26.7431068  16.7853737  27.3054829  27.4989471  16.0840721
  29.1402531  26.9937439  16.9122849  29.6046295  26.3520317  17.6610565
  29.6856937  26.8470402  15.9800434  29.5451641  28.4942169  17.4053612
  29.0027866  28.6138897  18.3432331  30.9663200  28.6985168  17.8512955
  31.5964737  28.7608624  16.9640942  31.0739269  29.5528278  18.5196323
  31.2411995  27.8397999  18.4637890  29.0822945  29.5531807  16.3670025
  29.5081863  30.5435734  16.5277500  29.4788322  29.1989536  15.4154882
  27.9946709  29.5658646  16.2961044  27.2401123  25.4261303  16.3034325
  26.8711681  24.5744781  17.0857220  27.4068069  25.2915783  15.0029802
  27.7145729  26.1431370  14.5555086  27.1885223  24.0547409  14.2137499
  27.1040096  24.3115540  13.1578121  28.3750229  23.1667690  14.4836721
  28.5332050  23.0551910  15.5563459  28.1411743  22.2117634  14.0131617
  29.5744133  23.6304054  13.6916037  29.8204746  24.5919304  14.1421833
  30.4752598  23.0384617  13.8534365  29.3716545  23.9517899  12.1943235
  29.6049271  23.0662632  11.3192835  28.9187279  25.0979214  11.8369751
  25.7630177  23.5182343  14.4921551  24.6995792  24.0971756  14.2404394
  25.6557808  22.2337875  14.8598671  26.4878197  21.6965981  15.0579491
  24.3294601  21.6429710  15.1691666  23.5727940  21.9856853  14.4634027
  24.5149097  20.1012592  15.0393286  25.2195740  19.8568993  15.8342104
  23.5027752  19.7301788  15.2005091  25.0231552  19.5980492  13.6768007
  24.2508392  19.7923203  12.9325647  25.9875774  20.0477123  13.4405899
  25.4413700  18.0768051  13.6124792  26.1802616  17.7879620  14.3599529
  24.5677776  17.5386696  13.9803743  25.9227753  17.5724201  12.2315750
  25.1218700  17.7516308  11.5142622  26.6325359  18.2765217  11.7973156
  26.2725964  16.1251831  12.1409206  25.6662521  15.5227423  12.6789846
  26.1962223  15.7682619  11.1991787  27.2442341  16.0463505  12.4051294
  23.8255882  22.0756893  16.5740948  22.6669884  22.0993042  16.7911205
  24.7175713  22.2777424  17.5361938  25.7100887  22.2074146  17.3628006
  24.4222736  22.6988544  18.8977623  23.6802998  21.9943314  19.2735577
  25.6708088  22.5282803  19.7383041  25.7658653  21.4827461  20.0314274
  26.5449848  22.8203411  19.1563931  25.5238056  23.1943188  20.5885220
  23.7566853  24.0820808  18.9164829  23.3213825  24.5285778  19.9329853
  23.4409809  24.6564674  17.7145920  23.9524746  24.3677998  16.8929195
  22.3903866  25.7717228  17.6369514  22.7687435  26.7083340  18.0464725
  22.0992622  25.9794846  16.1274910  22.0518799  24.9752331  15.7063828
  20.9089012  26.8598766  15.5909004  20.0049515  26.3885517  15.9766846
  20.9882221  27.8866062  15.9481697  20.8711109  26.8231888  14.5021734
  23.3723888  26.6485348  15.5579939  24.2572956  26.1223221  15.9159632
  23.3421440  26.4768524  14.4820251  23.4279537  27.7079506  15.8083048
  21.0674381  25.4714069  18.3853779  20.4031296  26.3491936  19.0220337
  20.6181278  24.2497063  18.3944855  21.1267471  23.6211700  17.7892151
  19.3470516  23.8680973  19.0051765  18.5703831  24.5372734  18.6349182
  18.8212242  22.5025024  18.5871544  17.8625469  22.3381519  19.0791168
  18.5398827  22.4393044  17.0863190  18.3410912  21.4312477  16.7224598
  17.6156311  22.9781094  16.8776340  19.3789749  22.8342896  16.5135956
  19.7882576  21.3333702  19.0859547  19.2591782  20.4128208  18.8394547
  20.7887096  21.2801762  18.6565723  20.0022850  21.4027863  20.1524792
  19.3463230  23.8928814  20.5675564  18.3269005  23.7326736  21.2460804
  20.5077667  24.2949314  21.1963558  21.3266869  24.4266472  20.6200562
  20.5905666  24.2838707  22.6726665  19.7260284  23.7338333  23.0443325
  21.8838825  23.5420761  23.0815506  22.7235603  24.1325245  22.7149296
  21.9885292  23.5351429  24.1664944  22.0019627  22.0281715  22.8184872
  21.8752308  21.9169102  21.7416115  23.3154812  21.5033531  23.3177147
  23.5490704  21.4498444  24.3810425  23.4742336  20.5369415  22.8392296
  24.0202637  22.1690369  22.8194599  20.8758469  21.2390919  23.3683109
  21.0588589  20.1771851  23.2041492  20.8066273  21.4792557  24.4292679
  19.9379826  21.5119801  22.8845310  20.4141445  25.6942501  23.2792988
  20.6267796  25.8682327  24.5108833  20.1675167  26.7525311  22.4927979
  20.0691986  26.6923504  21.4893970  19.8855400  28.1115513  22.9713058
  20.7010880  28.5663738  23.5335522  19.8321877  29.0095501  21.6744843
  19.8702984  30.0789165  21.8820992  20.7578449  28.8673420  21.1167774
  18.6677208  28.7630939  20.7456532  18.5032558  27.7080002  20.5269547
  17.7610493  29.2324448  21.1274357  18.9629345  29.3324108  19.3355427
  19.4822102  30.2871437  19.4188614  19.6995029  28.6082268  18.9875145
  17.8527927  29.3135433  18.4144878  17.5043468  30.2457733  18.2423420
  17.5124912  28.3117104  17.5922737  18.0165138  27.1320095  17.6772385
  18.6672916  26.8055477  18.3772469  17.6415119  26.3225574  17.2036762
  16.5858841  28.4109249  16.7049770  16.2165661  29.2986450  16.3956890
  16.3221798  27.5455780  16.2558308  18.5472336  28.1728077  23.7476883
  17.6668777  27.3608532  23.4668274  18.3353329  29.0961590  24.7279701
  19.1443100  30.2468929  25.0547600  19.5160675  30.7537384  24.1642532
  19.9803486  29.9866695  25.7039318  18.3451309  31.1884327  25.8889408
  17.7564144  31.7911301  25.1973686  18.9981995  31.7891045  26.5220242
  17.4249153  30.1214237  26.6120243  16.4984226  30.4948902  27.0481853
  18.0232983  29.6202068  27.3728256  17.1279049  29.1095562  25.5523396
  16.9863491  28.1699944  26.0864716  15.8446302  29.4071198  24.7141628
  14.6787815  29.1337528  25.0465469  16.0413837  29.9489689  23.5154018
  16.9830570  30.1876755  23.2390327  15.0223780  30.5299053  22.6159573
  15.5483093  30.9517860  21.7595024  14.1423321  29.4725132  21.9393425
  14.8445530  28.7730122  21.4858170  13.6505299  28.9303379  22.7469788
  13.1890869  29.9599514  20.8039322  12.1693087  29.2993412  20.5507832
  13.4837332  31.0326672  20.2444572  14.2882891  31.6818485  23.2248211
  13.1260242  31.5939980  23.5816040  15.0211802  32.8158455  23.3841763
  16.0251255  32.7667770  23.2852631  14.5286264  33.9658279  24.0213833
  14.2897949  33.7709808  25.0668945  15.5851259  35.1077690  24.0480824
  15.6364794  35.5931816  23.0734863  15.2993326  35.9805679  24.6351509
  16.9595947  34.7340584  24.6312199  17.4074478  33.9133835  24.0708408
  17.8794231  35.9969978  24.5461979  17.7186394  36.3755493  23.5367680
  17.6134529  36.6922607  25.3424187  18.9069614  35.6333961  24.5546055
  16.7595463  34.3688278  26.1049442  16.2434483  33.4106064  26.1645832
  16.1816978  35.1552773  26.5904140  17.7163754  34.2209206  26.6056480
  13.2717648  34.5285835  23.2857990  13.2845316  34.7648277  22.0940285
  12.2518787  34.9955635  24.0221157  12.2986231  34.8425369  25.0193596
  11.1758127  35.7566490  23.3884583  11.5444984  36.3980598  22.5879841
  10.0335302  34.7372589  22.8474922  10.3685160  34.0319061  22.0869904
   9.6179047  34.1038322  23.6311550   8.9600859  35.3714790  22.1522141
   8.1747427  35.2040100  22.6783218  10.5494204  36.7183800  24.3650475
  10.0839329  36.3076401  25.4032688  10.4146461  37.9900131  24.0255814
  10.9655266  38.2813530  23.2307529   9.8169031  39.0758438  24.7972183
  10.5007572  39.3062630  25.6141338   9.7812109  40.3544121  23.8819122
   9.1638870  40.1142387  23.0162735   9.3622017  41.1475372  24.5011692
  11.1440716  40.7789536  23.4590645  11.6235971  39.8530083  23.1416054
  11.0342474  41.7056732  22.2477837  10.6706314  41.0344315  21.4697571
  11.9678774  42.1181602  21.8653049  10.3460846  42.5398254  22.3845978
  11.8847599  41.4707909  24.5472527  11.4952679  42.4718475  24.7324142
  11.8047047  40.7921562  25.3964558  12.9234352  41.6333313  24.2594433
   8.4248304  38.7643356  25.4013996   8.0477438  39.3532219  26.4286938
   7.6751661  37.8030434  24.8518448   8.0062628  37.3168488  24.0308075
   6.3998432  37.3344765  25.3605728   5.7555518  38.2015877  25.5058708
   5.8773785  36.3621979  24.3015251   4.9447999  35.9145927  24.6451073
   5.3821306  37.1047630  23.0943661   4.7071013  37.9263954  23.3338585
   6.2379961  37.5637016  22.5994244   4.8771448  36.4377785  22.3956280
   6.7612581  35.3358040  23.9610252   6.2765942  34.5077896  23.9279594
   6.3956504  36.6408386  26.7362919   5.3932896  36.5351028  27.4024811
   7.5976648  36.1593170  27.1955318   8.3519230  36.3830490  26.5621777
   7.8953018  35.4577980  28.5037155   6.9854989  34.9557877  28.8328743
   8.9903250  34.3959198  28.1582623   9.8825951  34.8624992  27.7408180
   9.3471584  33.9104767  29.0666199   8.4908152  33.2805710  27.2303486
   7.4474678  32.9676247  27.2702255   8.4611425  33.6491089  26.2049713
   9.2894707  31.9999981  27.3383274  10.2879772  32.0987434  26.9124928
   9.4958811  31.7204666  28.3714600   8.5959425  30.8677654  26.5534286
   7.7508693  30.5524769  27.1654358   8.1896038  31.2879200  25.6333981
   9.4199963  29.6672668  26.4544411  10.4106627  29.8602486  26.4165134
   9.2246590  29.1029186  27.2689686   9.2710457  29.1826992  25.5808792
   8.3371878  36.5170059  29.5459690   8.5357399  36.1151161  30.6732693
   8.3391285  37.8398514  29.1717358   8.0875101  37.9860764  28.2045708
   8.5325432  38.9521675  30.1143723   9.0833549  38.6387711  31.0012169
   9.3961210  40.0835915  29.4374123   8.8355846  40.3594742  28.5442219
   9.4404850  40.9412956  30.1085854  10.8577261  39.7355194  29.0515079
  11.4081593  38.7416992  29.3820381  11.5067177  40.6516533  28.3773346
  11.1154919  41.5795097  28.4555855  12.4344721  40.4115257  28.0584106
   7.0724759  39.4280434  30.5760918   6.0470438  39.0732231  29.9534912
   6.9838848  40.2702217  31.6072311   7.8427291  40.4927902  32.0898819
   5.8766727  41.1920166  31.8527946   5.3535533  41.1471596  30.8975792
   4.8724890  40.6695442  32.8692245   3.9934757  41.3126717  32.9120598
   4.3469958  39.2172546  32.5292358   3.6076567  38.9797096  33.2941208
   3.9140785  39.0198517  31.5485630   5.1381626  38.4681206  32.4983177
   5.4022059  40.4599304  34.1547546   5.8485026  39.6255798  33.9926491
   6.2834215  42.6226387  32.2836952   7.3102512  42.9561272  32.9252625
   5.4214101  43.5509338  31.8113194   4.5904751  43.1548843  31.3956375
   5.7019458  44.9868813  31.8076191   6.7405300  45.0472069  31.4823380
   4.7137513  45.8148499  30.9905739   3.6988020  45.6572380  31.3554535
   4.8979783  46.8814011  31.1195526   4.7319946  45.6304855  29.5249043
   4.5818024  44.5883064  29.2431068   3.8310223  46.1712799  29.2352695
   5.9795432  46.0859528  28.7478676   7.0935416  46.2258530  29.2643089
   5.6978240  46.4442482  27.6096115   5.7233205  45.6221313  33.2250366
   6.0832124  46.8472786  33.3078690   5.4964223  44.8801041  34.3484535
   5.5108647  43.8934288  34.1331406   5.3613534  45.3670959  35.7205696
   4.8425937  46.3252449  35.6899643   4.5000834  44.2587090  36.4475594
   5.0710630  43.3309135  36.4118385   4.4571657  44.4770622  37.5146027
   2.9955034  44.0610962  36.0091896   2.4361339  44.9689560  36.2350197
   2.6761675  43.7388077  34.5479927   2.9123623  44.5460281  33.8546600
   3.3069310  42.8929863  34.2744560   1.6191820  43.4799156  34.4859390
   2.3262732  42.9700737  36.9518051   2.5264897  41.9512367  36.6201668
   2.6277418  43.1928406  37.9753227   1.2404377  43.0468864  36.8955841
   6.7091098  45.5977402  36.3485565   7.3208103  44.6886559  36.8881798
   7.1221209  46.7705421  36.4888496  33.6180649  44.1913490  46.2283096
  33.6515236  44.6805305  45.3453064  32.8704643  43.5267105  46.3677673
  33.6150436  44.9017982  46.9461899  34.8917427  43.4662590  46.2286072
  35.6791763  44.1597824  45.9335213  35.2346191  42.8051491  47.5643692
  35.2274017  43.5629349  48.3478279  34.5410080  41.9854507  47.7517281
  36.6242294  42.3031120  47.4902229  36.7263908  41.6656914  46.6119499
  37.3486595  43.1169891  47.4601593  37.1085625  41.4054413  49.0217400
  37.9762039  42.8069916  49.7678795  37.2906837  43.6528015  49.8205872
  38.3607941  42.5645638  50.7585449  38.8614960  43.1124535  49.2101631
  34.8301239  42.4643211  45.1288376  33.7910500  41.7990150  45.0312729
  35.8353996  42.4279099  44.2406464  36.6676292  42.9855194  44.3693695
  35.9009933  41.4291801  43.1000557  35.1458778  41.6479187  42.3450317
  37.2826653  41.6015625  42.3649254  37.3768425  42.6372795  42.0385437
  38.0610657  41.4597588  43.1146507  37.3663826  40.6576881  41.1010551
  38.3644943  40.7233963  40.6679764  37.1276321  39.6799278  41.5194817
  36.1804237  41.0301437  39.7459717  36.4936142  39.5822678  38.8137512
  36.5882912  38.6236305  39.3237915  35.6990967  39.4542389  38.0785942
  37.4863091  39.7263336  38.3872604  35.7628365  39.9898605  43.6523781
  36.1126404  39.7706490  44.8216286  35.3080978  38.9678154  42.9103088
  35.0779381  39.1532364  41.9445229  35.3385925  37.5798378  43.4036369
  35.9947357  37.4956093  44.2699394  33.9311180  37.0682602  43.5934029
  34.0453758  36.0559311  43.9810066  33.1627426  37.8828163  44.7211342
  33.6899376  37.7608910  45.6673393  33.0397263  38.9305191  44.4467354
  32.1549416  37.4882164  44.8504677  33.0886841  37.1262131  42.2867737
  32.7859879  38.1261444  41.9759407  33.7139053  36.7718391  41.4672508
  32.0283813  36.1358986  42.3476448  31.1960754  36.4463348  42.9793129
  31.5359707  36.0799179  41.3768196  32.3837891  35.1144943  42.4837494
  36.1441612  36.6623421  42.4179649  36.2393837  36.9523964  41.2455940
  36.7381554  35.6554146  43.0742722  36.5467758  35.5663834  44.0619698
  37.7021065  34.6586494  42.5307312  37.7412033  34.6782913  41.4416084
  39.1633873  34.9976616  43.0096931  39.1479149  35.1870461  44.0830040
  39.8882141  34.2091331  42.8073273  39.6114731  36.3667488  42.4314651
  38.9557190  37.1744308  42.7566414  40.6169205  36.5680046  42.8011627
  39.7952309  36.4401817  40.9399948  40.4900551  35.6758728  40.5919189
  38.8142281  36.1975212  40.5315170  40.1235085  37.8023949  40.5191879
  40.4439468  38.4725227  41.2035446  39.9197998  38.1435089  39.2999763
  39.4513893  37.3963623  38.3438759  39.3422279  36.3964500  38.4352875
  39.5373459  37.8285980  37.4350929  40.1733055  39.4029198  38.9732437
  40.1725273  39.6188812  37.9866028  40.3743439  40.1098442  39.6660233
  37.3445587  33.2254410  42.8664322  36.7371292  32.9593239  43.9229927
  37.7859535  32.3023605  42.0553055  38.0622025  32.5131340  41.1069603
  37.6912804  30.9223881  42.2395706  37.0323257  30.6488457  43.0636177
  37.3648682  30.4793243  41.2986946  39.0670738  30.4290562  42.6282501
  40.0952644  30.9988194  42.2147408  39.1912537  29.3810291  43.4458885
  38.2916451  29.1368179  43.8346977  40.3674393  28.5875587  43.8382378
  41.0847015  28.9652462  43.1095505  40.8193474  28.9833813  45.2260094
  39.9972458  28.5901070  45.8239975  42.1627769  28.3456135  45.5767937
  42.1318016  27.2595787  45.4892349  42.7554817  28.8162136  44.7923622
  42.5089493  28.7141399  46.5424309  40.7883339  30.4884319  45.5031624
  41.2485046  31.0950356  44.7231750  39.7131958  30.6628208  45.5451050
  41.3912811  31.0011730  46.8016090  41.3208275  32.0888557  46.7922668
  40.9580498  30.4936256  47.6634712  42.4677200  30.8943138  46.6675797
  40.1456261  27.1070614  43.6591187  39.1904678  26.5436516  44.2119560
  40.9752960  26.5897350  42.7663994  41.7615051  27.1207027  42.4199257
  40.9545212  25.1287079  42.4012070  39.9127083  24.8114204  42.4465675
  41.6118813  25.1008892  41.0116539  42.4255753  25.8163452  40.8928223
  42.0575104  24.1319008  40.7867622  40.7086525  25.2895947  39.8344040
  40.3201637  26.3068562  39.8829498  41.2264366  25.2129612  38.8782997
  39.4584312  24.3800945  39.7113762  38.8394852  24.6035786  40.5803185
  38.9218864  24.4765301  38.7674904  39.6820068  22.9086075  39.9632454
  39.1046600  22.5356731  40.7033119  40.4070320  22.0464478  39.2524261
  40.9975433  22.3099976  38.1371994  41.5577164  21.5931931  37.6984520
  40.7593422  23.1725235  37.6687813  40.6110458  20.8427582  39.7452278
  40.9287682  20.1788540  39.0535698  40.1612015  20.4991856  40.5817070
  41.7418480  24.2441883  43.2973900  42.5936966  24.6356716  44.1058540
  41.3992119  22.9542484  43.0851021  40.7414932  22.6369438  42.3873787
  42.3036385  21.9059925  43.4894829  43.2600975  22.1100655  43.0081902
  42.4151077  22.0092316  44.5688438  41.8703766  20.4763870  43.0925980
  40.8054352  20.2575665  42.5501251  42.7024078  19.4388866  43.4554710
  43.6344757  19.6644611  43.7724419  42.3535614  18.0293083  43.3753586
  41.3186226  18.0873833  43.7124405  42.4019928  17.6408749  41.8445587
  42.0398636  18.3936806  41.1443787  43.4504242  17.5263271  41.5693092
  41.9253616  16.6623821  41.7856216  43.3312645  17.1361790  44.2145576
  44.5386086  17.5115356  44.5110283  42.7878151  15.9628735  44.5714798
  41.8066788  15.8389187  44.3662872  43.5186615  14.9492092  45.2822151
  44.5946846  15.1166143  45.2347755  43.2213211  15.2071714  46.7548904
  43.4638367  16.2038994  47.1234283  41.7789230  14.8382921  47.1993103
  41.6716270  15.0290213  48.2671204  41.0840302  15.5423632  46.7415848
  41.5372620  13.8056536  46.9475975  44.1307335  14.4013433  47.4504814
  44.4755859  14.8669186  48.2159348  43.1011734  13.5038586  44.8465309
  42.1863670  13.2881222  44.0343819  43.7719421  12.4550238  45.4233322
  44.4437256  12.7201128  46.1294022  43.5795326  11.0803385  45.1484337
  42.6508598  11.0297327  44.5800095  44.6303329  10.5213776  44.2338524
  44.5557022   9.4838190  43.9082756  44.6620369  11.2438383  42.9105148
  43.7485466  11.4802427  42.3648453  45.2189102  12.1696672  43.0548439
  45.1470146  10.7058926  42.0959473  45.9627876  10.6664600  44.8085022
  46.1376419   9.8130255  45.2118340  43.2396469  10.2503119  46.3683243
  43.4033661  10.6931305  47.4833984  42.6560020   9.0569239  46.1893272
  42.2791939   8.7990637  45.2884254  42.4946404   8.0009480  47.1973495
  43.2135239   8.0971880  48.0110092  41.0966644   7.9631009  47.8018074
  41.0928879   7.2852068  48.6553535  40.6488991   9.2731123  48.4134369
  41.2960968   9.3130960  49.2895851  40.7761688  10.2127485  47.8758621
  39.6475754   9.1830645  48.8345566  39.8051605   7.6615386  46.8880615
  38.8662605   7.6414533  47.4413872  39.7585869   8.4579506  46.1453209
  40.1017494   6.7352161  46.3960648  42.9636803   6.5718460  46.6638031
  42.8575706   6.2880011  45.4429016  43.4796715   5.7005739  47.5739136
  43.6240273   6.0415068  48.5136070  43.6867561   4.2520514  47.2746124
  44.0288544   4.2449131  46.2397118  44.9981651   3.8559649  48.0388374
  44.9040642   4.0268416  49.1112404  45.1864281   2.8037269  47.8256187
  46.3336983   4.5218387  47.5869904  46.3597336   5.5755959  47.8645287
  47.2153206   3.9842248  47.9360085  46.4032288   4.6667018  46.0577011
  46.3581581   3.5658007  45.4676514  46.4619522   5.7770028  45.5432014
  42.5300789   3.3728976  47.5167732  42.4287186   2.3402960  46.8390045
  41.5546188   3.6423309  48.4058800  41.6670113   4.5297780  48.8748245
  40.2704773   2.9032536  48.3489914  40.2571487   2.2482238  47.4778671
  40.1625557   1.9975491  49.5537605  40.0781708   2.5303483  50.5009155
  39.1995392   1.5035595  49.4245987  41.2154236   0.8848689  49.5481071
  41.1575699   0.1673798  48.7295952  42.1893845   1.3554391  49.4137039
  41.2009697   0.1602138  50.9096489  40.1945763  -0.2188598  51.0873489
  41.8424683  -0.7161226  50.8168564  41.6067886   1.0664440  51.9713402
  42.2102203   1.8140007  51.6596832  41.3268890   0.9970304  53.2587509
  40.6753693   0.0128090  53.8012238  40.6339226  -0.7645795  53.1577568
  40.6700516  -0.1820657  54.7922325  41.7704124   1.9030007  54.0082130
  42.1846352   2.7138419  53.5711174  41.6782684   1.8700906  55.0134621
  38.9583435   3.7538702  48.3038483  38.8280029   4.8566055  48.7901649
  37.8613243   3.1431715  47.7520599  38.0404243   2.2796080  47.2598381
  36.4562836   3.6182747  47.7003899  36.4532471   4.7077169  47.6656151
  35.6079254   3.0211968  46.5624657  36.0440865   3.4209573  45.6470108
  35.5871391   1.9377096  46.4453201  34.1426239   3.4691155  46.7072563
  33.8631020   4.6408739  47.0655327  33.2684364   2.7223237  46.1721916
  35.8558121   3.3600600  49.1083069  35.2070885   2.2729659  49.2698822
  36.0012970   4.2585998  50.0777016  36.6694489   5.0059028  49.9543762
  35.3313522   4.1400599  51.3637924  34.3165512   3.8170178  51.1315804
  35.9655418   3.0502341  52.3249664  35.7681732   2.0751491  51.8795967
  37.4801979   3.1186974  52.3917122  37.8418198   4.0642409  52.7957916
  37.8401909   2.3472011  53.0723724  37.8672791   2.9993746  51.3797684
  35.4441299   3.1160505  53.6030312  34.5319481   3.3653932  53.4376373
  35.4916077   5.4822388  52.1214027  36.3679771   6.2677665  51.8089447
  34.6622925   5.8209696  53.0598030  33.9074745   5.1536393  53.1306419
  34.5731468   7.0892835  53.7664871  34.5269775   7.8777695  53.0153160
  33.2197075   7.2090073  54.5817528  32.3686028   6.9381843  53.9569473
  33.3113747   6.5476818  55.4433479  33.0860786   8.6034307  55.1847763
  33.9349594   8.9369307  55.7816658  33.0758095   9.3631191  54.4031944
  31.7786331   8.5983934  56.0272408  31.6792698   9.2614355  57.1066208
  30.7471676   8.0067759  55.6137009  35.9253731   7.2699561  54.5462494
  36.4046631   8.3511190  54.7420654  36.6333885   6.1965442  54.9274101
  36.1660194   5.3157158  54.7667542  37.9532776   6.1643901  55.5365829
  37.9482231   6.7223873  56.4729118  38.2246971   4.6846371  55.9504509
  38.1579971   4.0230203  55.0867882  39.2315483   4.4392548  56.2882919
  37.1837845   4.2499976  57.0266266  36.1973610   4.6529779  56.7971115
  37.1906929   3.1661766  56.9109344  37.5189476   4.7725644  58.4165001
  36.5776405   4.7535119  59.2524300  38.7222366   4.9662933  58.7890244
  39.1415672   6.7502832  54.7677383  40.2394905   6.8945856  55.2379074
  38.8879738   7.0455942  53.4720192  37.9667473   6.9031506  53.0832443
  39.8448410   7.7006083  52.4909821  40.7164154   8.0976458  53.0113869
  40.2350540   6.6286144  51.5066795  39.3388138   6.3937979  50.9324722
  40.8634644   7.0031714  50.6986465  40.8485451   5.3561764  51.8890953
  40.2062073   4.8155446  52.5842361  40.8950577   4.7540607  50.9816856
  42.2656898   5.4353328  52.4902611  42.9628487   6.4869885  52.3467789
  42.6966629   4.3722115  52.9266815  39.1836929   8.9012604  51.7791023
  39.6475334  10.0009079  51.7830009  37.9675827   8.8394480  51.2143631
  37.5077171   7.9451671  51.3086319  37.3685341   9.8787146  50.4185715
  38.0577164  10.2219706  49.6470146  36.0400467   9.4476652  49.7553673
  35.2700233   9.1583586  50.4705353  35.3568039  10.5912514  48.9628677
  34.9717026  11.2256832  49.7611771  36.1093216  11.1667042  48.4237251
  34.5141640  10.2680845  48.3516197  36.2460747   8.3669147  48.6809120
  36.4487572   8.7677736  47.6877708  37.0335045   7.6429710  48.8905869
  35.0218811   7.4863238  48.5277863  34.2301598   8.0159273  47.9978790
  35.3418274   6.5771489  48.0187302  34.6449852   7.0979381  49.4739380
  37.0488701  11.0462132  51.2313538  37.2335167  12.1763172  50.7439957
  36.5332413  10.9335337  52.4544601  36.4841003  10.0311174  52.9053955
  36.3402748  12.1378880  53.3008652  35.7371368  12.9473524  52.8896523
  35.6532555  11.7318993  54.6025696  34.7107506  11.3638163  54.1972313
  36.0960007  10.8222151  55.0082207  35.4007607  12.7787170  55.6369019
  35.1191406  13.7175980  55.1601486  34.1018028  12.4087896  56.4380150
  33.6606789  13.1368189  57.1188126  33.3205338  12.1372223  55.7281075
  34.3579826  11.4902582  56.9660034  36.4082298  13.0677643  56.7748718
  36.5823631  12.1964512  57.4062157  37.3380737  13.4274483  56.3342819
  36.0390167  13.8530607  57.4344902  37.6974716  12.8004398  53.6423607
  37.8594742  13.9578218  53.5457153  38.6406441  11.9542036  54.0992050
  38.6247215  11.0267401  53.6996346  39.9205627  12.3482943  54.7652740
  39.5667343  13.1088247  55.4613342  40.6234016  11.1326485  55.3826981
  41.1346321  10.5739088  54.5987701  41.3439674  11.4999161  56.1134529
  39.7244492  10.2014198  56.1489601  39.0830612  10.8212528  56.7754822
  39.1608963   9.5727262  55.4595718  40.4134178   9.2935152  57.1336365
  41.6212730   9.1802750  57.2482452  39.5467834   8.5465317  57.7924347
  38.5679054   8.6092529  57.5516891  39.9514465   7.9782596  58.5227928
  40.8761253  13.1937828  53.8831558  41.2889557  14.2577896  54.3253441
  41.1496162  12.7541838  52.6372948  40.7539673  11.8747663  52.3369827
  42.0144997  13.4432526  51.7255135  42.9084663  13.7598124  52.2628365
  42.4907494  12.4671421  50.6176567  41.7459984  12.3210459  49.8352890
  43.2986298  12.9461479  50.0644989  43.0420990  11.1405087  51.0307846
  42.4381027  10.5652552  51.7324791  43.3831177  10.6313057  50.1293869
  44.3098984  11.3149290  51.8165054  45.0400963  12.0461206  51.4697075
  44.0234261  11.6709080  52.8061066  44.9606361   9.9155512  51.9048920
  44.1758804   9.3169060  52.3673782  45.3822823   9.5924911  50.9530792
  46.0106926   9.9133778  52.9057693  45.5913696  10.1814671  53.7846298
  46.3862572   8.9821634  53.0148392  46.7166367  10.6068735  52.7037544
  41.4800224  14.7675390  51.2627831  42.1569290  15.8042555  51.2497711
  40.1485748  14.7539616  50.9688911  39.6288452  13.8898363  51.0260429
  39.3309326  15.9499102  50.6280594  39.7731514  16.4031143  49.7408447
  37.8280907  15.5532465  50.2106705  37.1954460  15.1855145  51.0185280
  37.0758476  16.7383900  49.5399170  37.6903687  17.2054501  48.7702980
  36.2169724  16.3729973  48.9769554  36.8182907  17.4180431  50.3522263
  37.9590492  14.5240450  49.2500877  37.5146141  13.7669640  49.6385536
  39.3372383  16.9524040  51.7580605  39.5416451  18.1721230  51.4839058
  39.1628876  16.5104733  52.9695663  39.0529175  15.5108404  53.0630608
  39.3202896  17.3149929  54.1879616  38.6662750  18.1868534  54.1727943
  38.7362175  16.4667206  55.3293991  37.6755066  16.2518520  55.1997032
  39.3792343  15.5915194  55.4224510  38.9783401  17.2503204  56.6487312
  40.0364723  17.4463425  56.8220139  38.5918159  18.2424946  56.4157219
  38.2489243  16.4872036  57.8150558  37.1989250  16.7125053  57.6283989
  38.4721756  15.4205694  57.7915154  38.8223343  16.9513569  59.1792183
  38.9121742  18.0366478  59.2258606  38.1830482  16.6152439  59.9955788
  40.2084312  16.4936905  59.3609734  40.4414368  15.5370264  59.1360245
  40.9255829  17.0971832  58.9846878  40.4545975  16.4745960  60.3403282
  40.7133331  18.0350246  54.3976402  40.7458458  19.2919006  54.6496544
  41.6958084  17.2915783  54.1530495  41.5218048  16.3095913  53.9932823
  43.1240501  17.6442070  54.1050110  43.3901138  18.0521564  55.0801506
  44.0258522  16.3756981  53.9517975  43.7839661  15.8489828  53.0286713
  45.0596962  16.7113171  53.8703766  44.0734253  15.4776697  55.2784920
  44.7884369  15.9567585  55.9473190  43.0919914  15.5327892  55.7495079
  44.4950600  13.9950895  55.1241074  45.1034164  13.5621843  54.1306572
  44.2275925  13.0781698  56.0651588  44.5399208  12.1323223  55.8980484
  43.7874680  13.3527946  56.9317474  43.4013863  18.7194538  52.9700470
  44.0589218  19.7501869  53.1429100  42.8373489  18.4823704  51.8077583
  42.2826080  17.6504707  51.6652641  42.8900223  19.3565731  50.6581573
  43.9337540  19.5834122  50.4407349  42.1492043  18.7814045  49.3993797
  42.5398674  17.7915516  49.1634216  41.0730019  18.6901913  49.5462379
  42.2253723  19.5758553  48.0862541  41.7597733  20.5414276  48.2837067
  43.7406349  20.0124893  47.7716064  44.0297813  20.7315140  48.5380898
  44.3823624  19.1314163  47.7723389  43.7755547  20.6508961  46.8888206
  41.4299583  18.9007607  46.9548950  41.9064445  17.9801884  46.6178284
  40.4205780  18.6326237  47.2669144  41.2884178  19.5749874  46.1102142
  42.2881966  20.7106762  50.9924011  42.9946518  21.7448845  50.9002762
  41.0300484  20.7385406  51.4096451  40.4657326  19.9092026  51.5273247
  40.3873100  21.9941654  51.8415604  40.2553024  22.6631050  50.9911537
  39.0043335  21.5926628  52.2762413  39.0542450  20.8469620  53.0696793
  38.5521545  22.4272633  52.8120346  38.0307007  21.0830669  51.1712341
  38.4936790  20.2303143  50.6746788  36.8233986  20.6052628  51.8787498
  36.2553825  20.1284332  51.0799370  36.9565849  19.7630463  52.5577469
  36.2991982  21.5104313  52.1853218  37.7122803  22.1719093  50.0874863
  38.5731773  22.4765987  49.4924126  36.9189377  21.9256096  49.3817635
  37.2959824  23.0044403  50.6546707  41.1305389  22.7106972  52.9867973
  41.3449440  23.8918495  52.7648582  41.6813622  22.0233822  53.9803009
  41.4564972  21.0586052  54.1771240  42.5034981  22.6246357  55.0042572
  41.8016472  23.3552399  55.4064064  42.7973251  21.5961552  56.0616837
  41.8497581  21.1064472  56.2861938  43.5079041  20.8544579  55.6969070
  43.5325241  22.2258511  57.2479286  44.5121498  22.5566559  56.9029617
  42.9601707  23.0989380  57.5613518  43.7436981  21.2530251  58.4772072
  43.5469093  20.0799904  58.2582207  44.1242409  21.6244602  59.5955544
  43.8097458  23.2320385  54.4635315  44.2935829  24.2472515  54.9698029
  44.4508896  22.7494259  53.3259430  44.1318588  21.8844814  52.9133987
  45.6021614  23.2814960  52.6291199  46.3455887  23.5696678  53.3723373
  46.2845955  22.2035828  51.8109016  46.4239922  21.2879734  52.3856430
  45.5935249  21.9703217  51.0008926  47.6676483  22.6552372  51.2350578
  48.0621872  21.9758720  50.4794769  47.5242691  23.6205940  50.7496338
  48.7347755  22.7485886  52.3273735  48.3563805  22.4249172  53.2969894
  49.5814362  22.1043911  52.0901413  49.3619308  24.0888996  52.4061775
  50.0804939  24.2614555  51.6049385  48.4800682  24.7252655  52.3322792
  50.0701981  24.3186321  53.7073555  49.6060562  24.1496773  54.5883369
  50.9742584  23.8747444  53.7831383  50.3477554  25.2891693  53.6738663
  45.2681122  24.5114651  51.8327827  46.0279312  25.4693661  51.9423904
  44.2931061  24.4342880  50.9048271  43.8497391  23.5319576  50.8082542
  43.7814407  25.6097927  50.2046547  44.4247742  25.9512463  49.3937073
  42.6045189  25.1764069  49.3526306  41.9506836  24.4847946  49.8839264
  41.8282928  26.3079453  48.6663704  42.5531425  26.9385433  48.1515465
  41.0174408  25.9762993  48.0178108  41.2964935  27.0074024  49.3113861
  43.0202103  24.3013630  48.1593513  43.4888344  24.9317417  47.4036331
  43.7609940  23.5556736  48.4479408  41.8821640  23.5053902  47.5601387
  41.2837791  23.1988735  48.4180946  41.2745552  24.0179901  46.8143845
  42.3256607  22.6241932  47.0965538  43.3067703  26.6929264  51.1719933
  43.7233543  27.8013573  50.8095360  42.8409576  26.3894787  52.4127960
  42.7566185  25.4149933  52.6645241  42.5368958  27.3750553  53.4662056
  42.0107422  28.2407684  53.0639572  41.6405602  26.7233925  54.5185585
  42.0361633  25.7252636  54.7065430  41.5196457  27.5404987  55.8074646
  40.8251991  27.0239067  56.4700241  42.5046959  27.5201607  56.2736855
  41.2555237  28.5574417  55.5173492  40.2018433  26.5330887  53.8976746
  39.8213348  27.5527267  53.8372421  40.3530273  26.2380066  52.8593254
  39.2229156  25.5894279  54.7134323  38.1618958  25.6289005  54.4668999
  39.6760025  24.5999069  54.6529198  39.1981773  25.7148399  55.7959175
  43.7828140  28.0087986  53.9119682  43.8784218  29.2316990  54.0963173
  44.8411026  27.2177410  54.2164879  44.7657738  26.2200794  54.3546791
  46.0838623  27.8251400  54.7138405  45.7662010  28.3840885  55.5940514
  47.0937462  26.7063084  55.2824402  46.5797539  26.0673084  56.0004845
  47.3793373  26.0256214  54.4804382  48.3509636  27.2880535  55.8889732
  48.0158730  28.0904865  56.5461845  48.8748703  26.5212421  56.4596100
  49.4045448  27.7238655  54.8903694  49.8133621  28.9008923  54.9512138
  49.8831520  26.9460354  54.0309296  46.7065811  28.8616047  53.6611862
  46.8551025  30.0027657  53.9917221  46.9475250  28.3519077  52.4164085
  46.7102127  27.3903942  52.2182312  47.6438560  29.1102562  51.3712082
  48.6314087  29.3015881  51.7910118  47.7444305  28.2304325  50.0840569
  46.7644577  27.7825146  49.9193764  48.0067825  28.9626522  49.3204231
  48.7981071  27.1209431  50.2070923  48.7960129  26.6474361  51.1888733
  48.5298729  26.4598465  49.3830147  50.1992455  27.7092896  49.9995270
  50.4462242  28.7844810  50.5524406  51.0932465  27.0533867  49.4497757
  47.0738144  30.4875870  50.9454803  47.7392120  31.4005051  50.4720764
  45.7248268  30.6196213  51.0723915  45.1745453  29.8578186  51.4424591
  44.9414291  31.8324127  50.8252754  45.4982338  32.6003189  50.2882538
  43.8072548  31.4049664  49.8831711  43.2057343  30.6590099  50.4026108
  43.0903206  32.1908875  49.6456146  44.3649864  30.8427830  48.5938072
  44.7739449  31.5708714  47.7206841  44.5198479  29.5602131  48.4613762
  45.0681648  29.2331696  47.6787567  44.2715263  28.9990463  49.2635765
  44.4098244  32.4360886  52.2018890  43.7778587  33.4786530  52.2302094
  44.7154999  31.8409424  53.3946724  45.3152580  31.0366516  53.2784500
  44.2498932  32.2199249  54.7535133  44.3306046  31.3038788  55.3386993
  45.0856361  33.2821884  55.3671684  44.5924301  34.1411438  54.9121437
  44.8823280  33.2960396  56.4379501  46.5779266  33.3698463  54.9529610
  47.4671402  32.4172211  55.3902969  47.2394333  31.6318092  55.9830666
  48.6586952  32.6253777  54.7326431  49.6014137  32.1282310  54.9073601
  48.4646263  33.6592445  53.9234657  49.1617012  33.9729118  53.2633171
  47.2182617  34.1390038  54.0359917  46.7796173  34.9504242  53.4742126
  42.7249794  32.4199448  54.7634430  42.2551842  33.4936714  55.1600761
  41.9110565  31.5661125  54.1670723  42.1684761  30.6347408  53.8731537
  40.4950294  31.8723660  53.9172630  40.3499908  32.8648643  53.4906387
  39.9166298  30.8410873  52.9449959  39.9020538  29.9118748  53.5146027
  38.5808678  31.1453419  52.3105316  37.8155708  30.8101501  53.0105743
  38.3549194  32.2109337  52.2710800  38.4190903  30.6546497  51.3507652
  40.7963638  30.6430092  51.9323578  40.8391342  31.4942532  51.4905968
  39.5910988  31.9234829  55.2097092  39.6293602  30.8988552  55.9579086
  38.7395821  32.9457321  55.3820496  38.8402901  33.7988625  54.8508949
  37.7099342  32.9295502  56.4529724  37.9414787  32.1353836  57.1627502
  37.7379532  34.2614403  57.2665901  36.9551163  34.3164864  58.0230560
  38.6211624  34.3877831  57.8927612  37.5034904  35.5442848  56.5374069
  38.3412323  35.7775536  55.8802338  36.6290474  35.5242348  55.8869820
  37.3533211  36.7740097  57.5279388  36.5423965  36.6665764  58.2483253
  38.2410545  36.7695274  58.1604004  37.2324028  38.1110764  56.8055191
  36.3933182  38.2437401  56.1225548  36.9233093  38.8519173  57.5428886
  38.5217819  38.4091492  56.0665741  39.2799149  38.1130905  56.6646461
  38.5433121  37.7760468  55.2799225  38.6615181  39.3399849  55.7003517
  36.3006401  32.4683647  55.9832382  35.9455147  32.8970795  54.8772202
  35.4449883  31.7291374  56.7420425  35.7178230  31.2722034  58.0783730
  35.8609161  32.1475754  58.7118950  36.6245155  30.6678066  58.0517006
  34.5518875  30.4318695  58.5523262  34.0501213  30.9841709  59.3468666
  34.7574387  29.4179516  58.8955765  33.6023827  30.3532753  57.2902374
  32.6248055  30.7597771  57.5494766  33.5864792  29.3042088  56.9947472
  34.2297554  31.1387615  56.1965904  34.5761795  30.3852139  55.4892998
  33.3049545  32.1857033  55.5897217  32.6440697  31.9182625  54.5360756
  33.1573257  33.3914452  56.1782532  33.5299339  33.5369453  57.1056633
  32.2909927  34.4453239  55.7143211  31.3083420  33.9911575  55.5869217
  32.2144852  35.5607643  56.7846298  33.2203789  35.9490662  56.9443130
  31.6140938  36.3910332  56.4127693  31.6325607  35.1836472  58.1656685
  31.4659996  36.0384521  58.8211594  30.6467648  34.7234192  58.0986061
  32.5976906  34.3802338  58.9978714  33.8184814  34.3146286  58.7456245
  32.1934242  33.6602097  59.9740105  32.5796089  35.0041618  54.3116570
  31.6522636  35.5010948  53.6466064  33.8178062  35.0715256  53.8816528
  34.4788017  34.6196213  54.4972610  34.3495140  35.6118965  52.6241646
  33.7407074  36.4863281  52.3943138  35.8096886  35.9690170  52.8153305
  36.3942871  35.1707191  53.2725677  36.3013763  36.0120811  51.8434830
  36.2876129  37.2194176  53.4912949  37.5521088  37.4076920  53.6328087
  35.4159203  37.9650040  53.9452667  34.0769691  34.5671463  51.4719772
  34.3075294  34.9291878  50.3089600  33.6208687  33.2709618  51.7975922
  33.4146042  33.0897636  52.7695618  33.4013672  32.1759224  50.8250923
  34.1859894  32.3426552  50.0870743  33.5265999  30.7945023  51.4815559
  32.6891556  30.7340393  52.1766357  33.3332405  29.6645737  50.5175056
  33.3707390  28.7048454  51.0328865  32.4441833  29.7109795  49.8886032
  34.2064781  29.5808735  49.8705482  34.8945351  30.7039719  52.2217751
  34.7644005  30.1605110  53.1576233  35.6425705  30.1174278  51.6883812
  35.3408012  31.6531525  52.5184250  32.0249405  32.5002556  50.2726173
  30.9796009  32.6006355  50.9498253  32.0185623  32.6520042  48.9082069
  32.9061852  32.3944168  48.5009308  30.8427544  32.8482628  47.9667320
  30.2746181  33.7287178  48.2669373  31.3606968  33.1700630  46.5420341
  32.0882645  32.4010658  46.2824478  30.3451996  33.1277008  45.4335861
  29.9892654  32.1314354  45.1711731  29.4656754  33.6616402  45.7933807
  30.6396294  33.5851746  44.4890594  32.0352974  34.5371742  46.4667244
  32.9759445  34.2883568  46.9580154  32.1510849  34.9853439  45.4798889
  31.4018459  35.2136726  47.0404701  29.9693623  31.5996017  47.8959236
  28.7644253  31.5979481  48.2657356  30.5918369  30.4671440  47.4927292
  31.5468025  30.5747795  47.1819954  30.1685886  29.0359650  47.5858765
  29.6713200  28.6733456  48.4855080  29.1305847  28.8478813  46.4227219
  28.5701103  27.9496517  46.6818581  28.4547215  29.7024155  46.4555702
  29.8021698  28.7338066  45.0174217  30.7663651  29.2312412  45.1222496
  29.9386482  27.6697922  44.8241692  29.0195999  29.4389668  43.8884125
  28.1229229  30.2267456  44.1197281  29.2755966  29.0373039  42.6711121
  30.0458317  28.4168262  42.4665337  28.8875504  29.5716877  41.9069443
  31.3435421  28.1329479  47.3386688  32.4816513  28.5224380  47.0325394
  31.0898342  26.8105640  47.4577026  30.1644192  26.5326004  47.7517128
  32.0213165  25.7495651  47.2727432  32.9295959  26.0333881  46.7411690
  32.3805389  24.9064312  48.6230316  32.6894264  25.6608105  49.3466415
  31.5241489  24.3507099  49.0049591  33.7275314  24.0824242  48.3787079
  33.6129875  23.3485279  47.5809784  34.4862633  24.7786751  48.0214081
  34.4569550  23.4490967  49.8820076  35.1529541  24.9365139  50.6813087
  34.4872780  25.2695427  51.4775848  36.1030197  24.7249374  51.1719322
  35.2436943  25.7196960  49.9286423  31.3517342  24.6581936  46.4264565
  30.1932755  24.3827324  46.5606079  32.1191788  24.0984459  45.4973526
  33.0317726  24.5278645  45.4437408  31.7833614  23.0830154  44.5439110
  30.8596897  22.5292759  44.7121506  31.4871998  23.6504879  43.1289482
  30.6046124  24.2897148  43.1519547  32.2630463  24.4014397  42.9798431
  31.4088039  22.6602764  41.9888268  32.2108040  21.9294910  42.0929832
  30.0756760  21.8499718  42.0146675  30.1735840  21.0983181  41.2313805
  29.8743305  21.3534966  42.9639168  29.2098103  22.4490128  41.7326584
  31.5685749  23.3571396  40.6502876  30.9183750  24.2263203  40.5509644
  32.5541000  23.8211555  40.6111908  31.3606834  22.7176628  39.7924156
  32.8253326  21.9778099  44.4865341  34.0178947  22.2187366  44.1725616
  32.4256859  20.7697697  44.7934265  31.4533520  20.6191483  45.0214157
  33.2667885  19.6478882  44.6804123  34.3087006  19.9675026  44.6614075
  33.0881310  18.7241020  45.8654366  32.0454483  18.4112110  45.9203148
  33.7793770  17.8962841  45.7073135  33.4421463  19.1394100  47.2730141
  33.3240776  18.2574539  47.9025459  34.9122810  19.5657196  47.3903503
  35.5854454  18.8048382  46.9953651  34.9356422  20.5177612  46.8600922
  35.0838089  19.7946205  48.4421539  32.5782127  20.2693596  47.8930550
  32.7931824  21.2326241  47.4304352  31.5438290  19.9318638  47.8278809
  32.9221497  20.4555664  48.9104729  33.0559502  18.8979435  43.3671379
  32.0240860  19.1633797  42.7723198  33.8620033  17.9454842  42.9665527
  34.6478500  17.7781391  43.5785484  33.5253983  17.0886745  41.7793808
  32.4432411  16.9635773  41.8167686  33.7698212  17.7827263  40.4586143
  33.2179070  18.7138329  40.3300362  34.8360367  17.9575653  40.3146973
  33.3135567  16.9223671  39.4327011  33.9183197  17.0417385  38.6967583
  34.3750877  15.8229866  41.8394814  35.3525276  15.8153210  42.5612755
  34.0772781  14.7294521  41.2165756  33.2636452  14.8001146  40.6223412
  34.8913879  13.5087891  41.3072319  35.9540138  13.7462473  41.2568054
  34.6126671  12.7491674  42.6402321  33.6156044  12.3149090  42.7135887
  35.3786621  11.9752588  42.6894112  34.7331467  13.5304213  43.3907166
  34.6739845  12.5094109  40.1954803  33.6288528  12.4887476  39.4885521
  35.7035828  11.6744862  39.9869003  36.5875282  11.7350492  40.4717369
  35.7483253  10.5397978  39.0879860  35.4119339  10.8473864  38.0978699
  37.2472801  10.0690956  38.8557587  37.1975784   9.4035234  37.9939880
  38.1817703  11.2590513  38.4965782  38.3527908  11.9951410  39.2820854
  39.0993423  10.9747391  37.9814835  37.7856178  11.8612623  37.6789551
  37.7963524   9.2782183  39.8778458  37.6062317   8.3968563  39.5482178
  34.8542175   9.3821821  39.4997330  34.6887703   9.1527119  40.6852608
  34.3203583   8.5797224  38.5687141  34.5887032   8.6790867  37.1499519
  35.6359444   8.5179853  36.8941536  34.2154846   9.6391535  36.7934685
  33.7828217   7.5972557  36.4772186  34.4150200   6.7155776  36.3720016
  33.4032402   7.9915028  35.5345688  32.6446571   7.2988825  37.4565887
  32.3251953   6.2636209  37.3370934  31.8670826   8.0110903  37.1804619
  33.2554359   7.6303334  38.8578186  32.5365677   8.1548386  39.4872818
  33.7137489   6.4150548  39.5879974  32.9082146   5.5907469  39.9539452
  35.0255432   6.1666813  39.6957016  35.6531868   6.8236442  39.2546005
  35.6279984   5.0657005  40.5752869  35.4611359   4.1521335  40.0046196
  37.2153969   5.1363940  40.6742859  37.5113792   5.8679862  41.4261284
  37.5663109   4.1781230  41.0572701  37.8230553   5.5000863  39.3241234
  38.0801506   4.5934706  38.4835663  37.9919815   6.7317853  39.1623268
  35.0183792   4.9070377  41.9779129  35.0970306   3.8750327  42.6041908
  34.5266418   5.9928617  42.5292397  34.2666016   6.6583486  41.8153725
  34.1109467   6.2159758  43.9105988  34.5893517   5.4303474  44.4954185
  34.7508850   7.6439457  44.2176361  34.1916542   8.3562565  43.6110306
  34.6768074   7.8848400  45.2780991  36.2059784   7.8386073  43.9675331
  36.3160820   7.6178946  42.9058075  36.6758308   9.3013039  44.2290649
  36.8229370   9.4208345  45.3024597  37.5600128   9.5837288  43.6576118
  35.8186684   9.9118605  43.9451752  37.1224670   6.9185386  44.8048553
  37.1522636   5.8409538  44.6435242  38.1311607   7.3082004  44.6677322
  36.8358154   6.9437499  45.8561859  32.5934525   6.2058640  44.0549316
  31.9368172   6.8251600  43.2620583  32.0125122   5.5123792  45.1162567
  32.5994263   5.0230608  45.7767143  30.5249481   5.3998404  45.3099518
  30.0514393   6.2484775  44.8162880  30.1227951   4.0230680  44.6887245
  30.5342979   3.2386742  45.3239365  29.0348911   3.9800267  44.6366463
  30.6318169   3.8755190  43.2419815  31.5521965   3.0136297  42.7840767
  31.8853340   2.2727242  43.3842239  31.7570820   3.1814559  41.4651566
  32.5512924   2.6960738  40.9173965  30.8692875   4.0343075  41.0301094
  30.8292999   4.5298352  40.1509323  30.1290874   4.4675441  42.1117897
  29.2469540   5.0843801  42.0237274  30.0897961   5.2886186  46.7543678
  28.8628712   5.2217426  47.0444221  31.0082321   5.1309328  47.6979828
  31.9746456   5.1088667  47.4053116  30.7867222   5.0995092  49.1891098
  30.1454048   4.2606936  49.4596710  32.1338806   4.9168525  49.8561478
  32.1036682   4.8841228  50.9452362  32.6278877   3.9964442  49.5448532
  32.7570152   5.7464204  49.5220413  30.0682201   6.3038464  49.8131866
  29.3650284   6.0888224  50.7822113  30.3439560   7.5358644  49.4111977
  30.9723740   7.5834446  48.6219368  30.0294056   8.7984238  50.1808281
  28.9641609   8.7380142  50.4037743  30.8527336   8.9525471  51.4890022
  30.8177948   7.9981251  52.0143204  32.3316803   9.2366028  51.2338753
  32.9033394   9.3577213  52.1540031  32.8200760   8.4041405  50.7273445
  32.4642944  10.1758432  50.6968918  30.3814583  10.1087055  52.4164162
  29.3152485   9.9157438  52.5350037  30.6743298   9.9850235  53.4590225
  30.6733685  11.0962229  52.0590668  30.2315598   9.9360828  49.0974884
  31.0127468   9.7862101  48.1411591  29.6312084  11.1329613  49.3844109
  29.0029011  11.1638269  50.1745834  29.9015770  12.4001875  48.7853775
  30.0312328  12.1020889  47.7449799  28.7080212  13.3207006  48.8402519
  28.4622116  13.3989296  49.8992882  29.0425949  14.3274307  48.5899391
  27.4788227  12.9512663  47.9361076  26.2453041  12.6297026  48.4522743
  26.0985317  12.5522738  49.5194511  25.1425762  12.2152853  47.6316147
  24.2213173  11.9303122  48.1179008  25.3224945  12.2823219  46.2363586
  24.4721127  12.1376867  45.5864868  26.5691433  12.6221266  45.6220894
  26.7832699  12.6710596  44.5646553  27.6475220  12.8838196  46.4913216
  28.6460838  13.1217966  46.1556931  31.1568565  12.9828882  49.4293785
  31.1255875  13.3830585  50.6149635  32.1656609  13.2974777  48.6331482
  32.3841667  13.0542469  47.2255211  31.6518688  13.6491089  46.6796532
  32.2912521  11.9818869  47.0537376  33.8159142  13.4294815  46.8620567
  33.8408318  14.1681223  46.0608749  34.3489914  12.5120850  46.6124344
  34.3836021  13.9976730  48.1757660  34.6581573  15.0487404  48.0864525
  35.2700119  13.4531794  48.5012016  33.2962036  13.9275570  49.2101936
  33.6282005  13.2081203  49.9587135  33.0144081  15.3260231  49.8250885
  33.7458954  15.7481394  50.7539368  31.8847675  15.9790678  49.5188370
  31.1844521  15.4923191  48.9777870  31.4143658  17.1977596  50.1255493
  32.2349205  17.9089642  50.0308075  30.1382866  17.5862656  49.4137726
  30.2703056  17.9755211  48.4042435  29.6275387  16.6762409  49.0989838
  29.5235214  18.2716541  49.9972191  31.0990829  17.0849552  51.6347275
  31.1383591  18.1333046  52.3394012  31.0093956  15.8476667  52.1514587
  31.0191441  15.0712967  51.5055046  30.9523373  15.5534563  53.6031151
  30.1334915  16.0885391  54.0840302  30.7806339  14.0055456  53.7630997
  29.8959255  13.6850500  53.2129440  31.6120510  13.4629269  53.3131943
  30.5439129  13.5092773  55.1612053  31.3787174  13.7455778  55.8210258
  29.7604122  14.0456400  55.6965027  30.1821709  12.0439491  55.2514038
  29.5186749  11.6375637  54.4880409  31.0932083  11.4603214  55.1191063
  29.5866699  11.8089104  56.6139450  30.3389950  12.0991364  57.3473473
  28.7345448  12.4180994  56.9153900  29.2211170  10.3849602  56.7628059
  28.6226654  10.1218901  55.9929047  30.0652657   9.8308830  56.7855225
  28.8805161  10.0953856  57.6684761  32.1465569  16.0764694  54.3399734
  32.1324310  16.2997704  55.5269508  33.3138657  16.3099728  53.6379967
  33.2768974  16.0257874  52.6695099  34.5358391  16.8471680  54.1953735
  34.7180176  16.1392727  55.0039520  35.6968460  16.9374504  53.1412125
  35.9240799  15.8914175  52.9355659  35.2621651  17.3486118  52.2301102
  36.5532990  17.4495430  53.5797806  34.4066849  18.2232609  54.8441772
  35.1997414  18.5061035  55.7715912  33.4497299  19.0626030  54.4019203
  33.0053482  18.8264484  53.5262184  33.2294006  20.4480667  54.9411163
  34.1891441  20.9647484  54.9462929  32.3571625  21.2148647  53.8372459
  31.4014854  20.6967659  53.7575302  32.2297783  22.7217808  54.2302322
  31.6943569  23.3158875  53.4896469  31.6885509  22.6940575  55.1759605
  33.1965256  23.1915779  54.4113503  33.0584221  21.1297646  52.4656334
  34.0608978  21.5541382  52.5208206  32.9590797  20.1030960  52.1132393
  32.5203667  21.7614803  51.7588577  32.5982552  20.4782829  56.3326225
  32.8009720  21.4288883  57.1523666  32.0298271  19.3466549  56.7832642
  31.9195271  18.5948315  56.1179085  31.3284378  19.2673035  58.1543541
  30.6547489  20.1238022  58.1287918  30.4769859  17.9871960  58.2610893
  29.6936245  18.0875072  59.0123482  30.1403160  17.7844315  57.2444077
  31.3781242  16.8833294  58.6758537  32.1587486  16.7831059  57.9217453
  31.7842407  17.0591087  59.6719818  30.5992470  15.5411253  58.7025337
  29.7631073  15.7368689  59.3738441  30.3809586  15.2321768  57.6802826
  31.3779449  14.5685711  59.4611015  32.2982407  14.8013191  59.8060417
  31.0128307  13.3691540  59.8661461  29.8220196  12.8170700  59.6740723
  29.1130810  13.2469406  59.0972519  29.8167992  11.8758831  60.0404587
  31.8574524  12.7333307  60.6324005  31.6152744  11.7994452  60.9312553
  32.8021164  13.0475044  60.8027077  32.2770844  19.5156536  59.3379898
  31.8915024  19.9772911  60.4025192  33.5804100  19.1318588  59.1021080
  33.8452034  18.9348278  58.1475563  34.5355492  18.9947109  60.1666183
  33.9903717  18.6771297  61.0554543  35.4583244  17.7690849  59.9066849
  36.0754776  18.1273651  59.0827560  36.0281754  17.6624470  60.8297195
  34.7909012  16.4083595  59.6022797  34.0273514  16.4213009  58.8245087
  35.6113167  15.7960463  59.2279930  34.3179817  15.5628576  60.8389702
  33.8845711  14.4177418  60.6496887  34.5061150  15.9960947  61.9853706
  35.3391914  20.2630405  60.3172722  35.9719124  20.4794960  61.3601799
  35.2461510  21.2522049  59.3963013  34.6870003  21.0498562  58.5799026
  36.0137787  22.5240879  59.3845596  36.9875221  22.2251949  59.7726250
  36.2801323  23.0874329  57.9659271  35.2921333  23.3638000  57.5977097
  36.8309441  24.0268726  58.0124054  36.9430084  22.0186291  57.0081253
  36.4287720  21.0582104  57.0435562  36.8881226  22.5279026  55.6205902
  37.6258698  22.0333481  54.9887238  35.8838844  22.4907913  55.1984177
  37.1488800  23.5860043  55.5976677  38.4332314  21.7817001  57.4069481
  38.9270439  22.7493839  57.4954720  38.5397148  21.2545033  58.3550110
  38.9994850  21.2454166  56.6454582  35.3452835  23.5943584  60.1896667
  34.1847878  23.8901081  59.9495392  36.0600777  24.2207279  61.0776863
  37.0696068  24.1940975  61.0620956  35.4444122  24.9154682  62.2636566
  34.7855301  24.1239223  62.6206322  36.5412979  25.3139915  63.2277718
  37.0750999  24.4083290  63.5157509  37.3374901  25.9270020  62.8054008
  35.9704475  25.8690777  64.3756943  36.4276924  26.6777172  64.6178207
  34.6451492  26.1397076  61.8216248  35.2493286  27.1069832  61.3334618
  33.3376503  26.1332989  61.9646111  32.9135590  25.3996639  62.5141830
  32.4737091  27.2118607  61.6304665  31.5696259  27.1512184  62.2363167
  32.8577499  28.1647568  61.9946289  32.0477715  27.4059811  60.1496620
  31.3317966  28.3714581  59.8478317  32.5247841  26.5446339  59.2246780
  33.1021767  25.7994366  59.5871658  32.2012253  26.4814682  57.7509270
  32.1842766  27.4837513  57.3228569  33.2649651  25.6535435  57.1696930
  33.4293518  24.6310177  57.5095711  32.9772644  25.4844761  56.1320267
  34.5374527  26.3643856  57.0194817  35.4676094  26.5144997  58.0238647
  35.2850914  26.2387314  59.0519905  36.5561981  27.1753540  57.5111618
  37.3707848  27.2203674  58.1065788  36.3943062  27.5527115  56.1961327
  37.2253113  28.0952816  55.2971954  38.2405281  28.3722630  55.5401421
  36.8073692  28.1260777  53.9540710  37.5466690  28.5365696  53.2822571
  35.6253700  27.7065506  53.5280914  35.3547096  27.7070007  52.4825554
  34.7343102  27.0174046  54.4220161  33.7895889  26.5882282  54.1224976
  35.1260986  27.0145893  55.8240623  30.8481140  25.9705162  57.3260307
  30.5228405  25.8333778  56.1501732  29.9407978  25.8254395  58.3292885
  30.3536129  25.9119434  59.2470055  28.6088276  25.2335148  58.1864471
  28.6497231  24.3410606  57.5619850  28.0886021  24.9027138  59.5859184
  27.1387367  24.3857155  59.4496422  28.7501450  24.2156696  60.1135826
  27.8878651  26.2123852  60.4076691  28.6834221  26.8913250  60.1007042
  26.8681660  26.5061150  60.1585960  28.0184994  25.9752426  61.8688316
  28.5599213  26.6472530  62.6524506  27.4694252  24.8986740  62.3454018
  26.8194103  24.3862858  61.7665749  27.6738701  24.5290298  63.2628288
  27.5580559  26.0489922  57.4307404  26.4441662  25.5997734  57.2040939
  27.8170872  27.3126297  57.2752686  28.6457138  27.7017536  57.7019501
  27.0344067  28.1600227  56.4044991  26.1347504  27.6560535  56.0513153
  26.6703911  29.5411873  57.0638695  27.5566101  30.1756783  57.0519943
  25.8788910  30.0269794  56.4932251  26.3417511  29.4665031  58.5235825
  25.0864868  28.9358997  58.8145027  24.4412041  28.5248814  58.0522156
  24.6582355  28.7719688  60.1554527  23.6350117  28.4770699  60.3355865
  25.6104317  28.9963284  61.2143173  25.2695007  28.7184315  62.4890976
  24.3388977  28.4900970  62.5477409  26.8626270  29.5867710  60.8778687
  27.5629215  29.8383255  61.6606255  27.2456551  29.8717785  59.5418243
  28.2260208  30.2846336  59.3551826  27.5994186  28.4108162  55.0535164
  26.9744301  29.1162567  54.2768097  28.7348690  27.8586063  54.7455025
  29.1842098  27.1331310  55.2857590  29.1138306  27.8308887  53.3350258
  29.0057049  28.8840389  53.0756111  30.5298481  27.3641701  53.0793266
  30.5429401  26.3189144  53.3881454  30.8129826  27.3141003  51.5492096
  30.1969757  26.4965057  51.1748123  30.6335487  28.3358440  51.2146225
  31.8605289  27.0137482  51.5260429  31.4793835  28.4517841  53.6437798
  31.1336727  29.4015121  53.2356071  31.3804131  28.3777695  54.7267494
  32.5464172  28.2882175  53.4928436  28.0934258  26.9609337  52.5483513
  27.8670979  25.7621174  52.9816895  27.4559422  27.4504070  51.4822350
  27.5332565  28.8010731  50.9168472  28.5345383  29.2301197  50.8787346
  26.8653526  29.3709354  51.5628090  26.9229832  28.8415833  49.5617332
  27.6837196  28.7631207  48.7850647  26.3972073  29.7727280  49.3504448
  25.9883823  27.6495991  49.6616859  25.6575069  27.3128242  48.6792374
  25.0640450  27.9608803  50.1483116  26.6984787  26.5971737  50.5395241
  25.9149055  26.0295982  51.0414925  27.6952095  25.6317425  49.7454758
  28.5235443  26.0570946  48.9799805  27.4386616  24.3350792  50.0044861
  26.6124897  24.1883183  50.5666237  28.1843452  23.2461910  49.3412056
  29.0489788  23.7026234  48.8593521  28.6781540  22.2737045  50.3924446
  27.7951660  21.9816380  50.9608879  29.3755798  21.0360775  49.8540840
  28.6830063  20.4118767  49.2894516  30.2744942  21.2899742  49.2923126
  29.7094154  20.3918972  50.6675262  29.6345444  22.9702263  51.3660126
  30.5212975  23.3278332  50.8426857  29.1349258  23.7327518  51.9635353
  30.0284233  22.1757812  51.9999046  27.4080925  22.6148376  48.2059097
  26.2083397  22.3429394  48.5089302  28.0881634  22.2453060  47.0452766
  29.0830803  22.4190216  47.0373192  27.5484791  21.3994179  45.9781532
  26.6474857  20.9411888  46.3860016  27.0768261  22.2289085  44.7498169
  26.8321056  21.5107918  43.9671783  25.9311752  23.1243935  45.1031914
  26.2417164  24.0677128  45.5524178  25.4079952  23.3328552  44.1699562
  25.2080441  22.6157570  45.7407417  28.0274010  23.0325794  44.2486191
  28.4594193  23.4592037  44.9922256  28.5816154  20.3316059  45.5981636
  29.7203465  20.3037910  46.0941544  28.2281914  19.4023399  44.6514893
  27.2708950  19.3902054  44.3297195  29.0692520  18.3009872  44.1612396
  30.0667191  18.7149429  44.0135841  29.2177849  17.1476212  45.2284279
  29.3971634  17.7232456  46.1364937  28.2333488  16.6827850  45.2823792
  30.6282520  15.9846153  44.7337952  30.1039448  15.3098412  43.7068214
  28.5322266  17.8065033  42.7786369  27.3922100  17.9537868  42.4912491
  29.4102287  17.2661133  41.9395905  30.3564472  17.1100197  42.2564774
  28.9681816  16.6740131  40.6989136  27.9957561  16.1962452  40.8181763
  28.9587231  17.7941647  39.6595116  28.5533848  17.4406185  38.7114601
  28.1985550  18.5185299  39.9519958  30.3491631  18.3414478  39.4615479
  30.8836861  18.4321136  40.4071503  30.8928757  17.5367451  38.9666443
  30.3883286  19.9397984  38.5232239  32.1622314  20.1627712  38.1884003
  32.6601105  20.3817654  39.1329956  32.5880203  19.2895145  37.6942062
  32.3629608  21.0229282  37.5496979  29.9191017  15.6013575  40.3199768
  30.8038330  15.1896620  41.0944366  29.7921162  15.1371260  39.0889511
  29.1174793  15.5330267  38.4500237  30.6285706  14.1752338  38.4893570
  31.1606884  13.6235952  39.2643661  29.7195663  13.1091127  37.8119774
  28.8769245  12.7800760  38.4200783  29.2338734  13.4540939  36.8991814
  30.5976315  11.9176245  37.2963028  30.0935020  11.5600052  36.3984909
  31.6266956  12.2009897  37.0753174  30.6083794  10.7427435  38.3005333
  29.6404839   9.9828844  38.3603058  31.5381336  10.6571236  39.2539101
  32.3911438  11.1966286  39.2913933  31.3951225   9.9135590  39.9223099
  31.5429955  14.9707041  37.4403381  31.0255356  15.5760632  36.5176888
  32.8596191  14.7552633  37.4808350  33.1678696  14.1757383  38.2484550
  33.7113037  15.3219919  36.4697304  33.4461327  16.3551102  36.2451096
  35.1267014  15.3795452  37.1172371  34.9891319  15.7320375  38.1394539
  35.5378609  14.3722477  37.1835632  36.1426430  16.2837200  36.4090424
  37.1606102  15.9745665  36.6462402  36.0716171  16.2616787  35.3215828
  35.9898376  17.7337227  36.8128128  36.8159599  18.6111317  36.4663887
  35.0939751  18.1129265  37.5754547  33.6796150  14.5902166  35.1392212
  33.3747826  13.4348297  35.1640701  34.0179520  15.1732903  34.0668716
  34.2459068  16.1562958  34.1097298  33.9827652  14.6149282  32.6401558
  32.9733505  14.3484077  32.3268585  34.4314384  15.7789564  31.6606026
  33.5421638  16.3971500  31.5376072  35.2941055  16.2683887  32.1126747
  34.8108292  15.3455467  30.3133183  35.7383461  14.7756815  30.3686848
  34.0680084  14.6221714  29.9771004  35.0337791  16.6134319  29.0292473
  35.2167130  15.4896955  27.6158619  34.3066559  14.9401073  27.3753510
  35.5513573  16.0516224  26.7438793  36.0146332  14.7754993  27.8191986
  34.9459152  13.3961239  32.5460472  36.0871391  13.4470253  32.9551277
  34.4669342  12.3544445  31.8852444  33.5720291  12.3955078  31.4188156
  35.3070145  11.1463718  31.6319046  35.9151649  11.0409441  32.5303154
  34.4279060   9.8953733  31.4823017  33.6112099  10.1529999  30.8079586
  34.9732971   9.0424519  31.0783539  33.7153168   9.5258522  32.7240219
  34.1310539   9.9600000  33.8005981  32.7182503   8.7689304  32.6351471
  36.1863365  11.2877579  30.4092121  35.6887474  11.6667871  29.3704967
  37.4667702  10.9029083  30.4610310  37.8414803  10.6873846  31.3738556
  38.4305000  10.9132395  29.3626308  37.9118462  10.9103422  28.4039402
  39.2281799  12.2260685  29.1805382  39.5407295  12.5965691  30.1568298
  40.5946693  12.0779486  28.4530754  40.9661484  13.0806894  28.2418633
  41.3483696  11.5976915  29.0770836  40.5340576  11.5767574  27.4870319
  38.4730186  13.3172913  28.5331135  37.5875206  13.6105556  29.0970192
  39.0771751  14.2241640  28.5590611  38.2694550  13.0289059  27.5018559
  39.3282623   9.6502123  29.5042191  39.6649055   9.1805258  30.5871296
  39.7190819   9.0864477  28.3467178  39.5712967   9.6076574  27.4943085
  40.6966934   7.9388976  28.3230152  40.1027069   7.1430793  28.7724094
  40.8773193   7.5100822  26.8212013  39.8469734   7.3511629  26.5030327
  41.5507660   8.4045715  25.8731728  41.6010704   9.4367332  26.2198944
  42.5200806   7.9236202  25.7419415  41.1070175   8.3118649  24.8819160
  41.4739342   6.2784543  26.8022537  42.4062119   6.3808293  27.0071373
  42.0586586   8.2054939  28.9787121  42.7625122   9.1507273  28.6874599
  42.4247360   7.2610412  29.8267441  41.8226929   6.4648581  29.9808025
  43.6891327   7.3759961  30.5279770  43.9557762   6.4362950  31.0116768
  44.4973488   7.6242461  29.8400364  43.7409744   8.5614347  31.5995789
  44.8034248   9.0072107  32.0242348  42.5975304   9.1084490  31.8756580
  41.7933235   8.8288326  31.3323669  42.5023918  10.1552391  32.9185257
  43.2591476  10.9253807  32.7691917  41.4893227  10.5554628  32.8783188
  42.7926826   9.6100502  34.3493881  42.3983383   8.4858942  34.6861229
  43.4174232  10.4937019  35.1593552  43.7066612  11.3693018  34.7473297
  43.7677231  10.1200171  36.5871849  44.4602737   9.2877970  36.4611359
  44.5625572  11.2577887  37.1898346  45.3606300  11.7143621  36.6044121
  43.7938538  12.0107069  37.3639450  45.0831032  11.0771914  38.6302452
  44.2629013  10.9404173  39.3349876  45.9718742   9.7944889  38.6562691
  46.5923157   9.7320585  37.7622604  46.6559410   9.9702787  39.4864845
  45.3533134   8.9094791  38.8053970  45.8470268  12.3579073  39.2262535
  46.6881752  12.6101856  38.5805588  45.1307678  13.1774139  39.1672173
  46.1480064  12.1746702  40.2577286  42.6068039   9.4944410  37.4175491
  41.6797791  10.2280064  37.7161636  42.5630226   8.2091408  37.8370323
  43.2977867   7.5446720  37.6402969  41.3491516   7.6133232  38.4234962
  40.4387779   8.0088348  37.9730568  41.4320526   6.1331248  38.2417603
  42.4472313   5.7785540  38.4200668  40.7622604   5.6587281  38.9589958
  41.0317917   5.8440661  36.7617455  40.0181541   6.2094088  36.5969276
  41.7757683   6.2789640  36.0943184  40.9718018   4.2969790  36.4701920
  41.9960289   3.9249647  36.4444389  40.3537903   3.7852862  37.2079811
  40.4173050   4.0439529  35.0081139  39.4127235   4.4220319  34.8184471
  41.0859070   4.4906344  34.2722168  40.3277016   2.5894353  34.7318878
  39.4817772   2.2345185  35.1544342  40.1724625   2.4847748  33.7393913
  41.1376648   2.0052195  34.8827400  41.3603668   7.9982905  39.8723373
  42.3589478   8.5242720  40.3870697  40.2361412   7.7578821  40.5185585
  39.4309731   7.5779176  39.9359665  40.1765137   7.8095675  41.9871216
  39.1493988   7.5452037  42.2386131  41.0422783   6.7002277  42.6101799
  42.0389862   6.6953936  42.1689873  41.2282333   6.8194661  43.6775589
  40.4857101   5.2824578  42.4409523  39.6989021   5.1853209  43.1890144
  40.0633202   5.1967707  41.4397812  41.5593224   4.2419224  42.7486458
  42.2633743   4.0982957  41.9290237  42.1802177   4.5559387  43.5876884
  40.8278160   2.8759441  43.0403748  40.1439285   3.0793035  43.8644142
  40.2371979   2.6236265  42.1596909  41.6765289   1.7879069  43.4958000
  42.1641159   1.3551558  42.7243729  42.3603477   2.1588442  44.1399269
  41.1811028   0.9879369  43.8628159  40.5353966   9.1945219  42.5449562
  41.4248390   9.3351841  43.3888168  39.9896851  10.2228184  41.9192886
  39.3035278   9.9436893  41.2327232  40.4979172  11.5628633  41.9574280
  41.2705231  11.5616322  42.7263107  41.2294273  11.9033594  40.6724854
  41.9437141  11.1113338  40.4475632  40.5335045  12.1159439  39.8609352
  41.9651833  13.4641418  40.9130096  43.0143433  13.2244930  41.7046700
  39.2774010  12.4963789  42.2777901  38.3331680  12.5213795  41.5115585
  39.2761993  13.2254515  43.3848152  40.0704269  13.2153759  44.0086708
  38.3453903  14.2429543  43.7619629  37.4270821  14.0611925  43.2035942
  38.1141472  14.2179956  45.2970657  39.0088425  14.3796158  45.8983192
  37.0919189  15.2692938  45.8581009  36.1643867  15.0715361  45.3208122
  36.9583778  15.0648003  46.9203873  37.3904305  16.3007374  45.6707077
  37.7328262  12.8201761  45.7687836  36.8906937  12.8976116  46.4564705
  37.3398018  12.2692261  44.9143295  38.7774162  12.1079741  46.5534897
  38.7583313  12.3897085  47.6062813  38.3733635  11.0957222  46.5673294
  39.7928505  12.1097898  46.1572723  38.8563004  15.7136030  43.4253960
  40.0887794  15.9122143  43.5625267  37.9381027  16.6620846  43.2422371
  36.9694443  16.4601765  43.4448128  38.2403908  18.0108509  42.6990776
  39.3212242  18.1084652  42.8009109  37.9204254  18.0986576  41.1307068
  37.0141411  17.5454216  40.8843613  37.8190498  19.1637516  40.9223785
  39.0522194  17.4823551  40.2508698  39.9497681  18.0774937  40.4191513
  39.2666016  16.4688396  40.5898781  38.7855453  17.5511036  38.7161446
  37.8975945  16.9242325  38.6344528  38.5848007  18.5414448  38.3074570
  39.8490715  16.8920612  37.9230614  40.4892273  17.5235958  37.4631996
  40.0561752  15.6127949  37.6872330  39.2932892  14.6610737  38.0422630
  38.3194847  14.8005877  38.2710495  39.6997337  13.7432251  37.9306679
  41.0861206  15.2576275  37.0430679  41.5485420  15.9549694  36.4773979
  40.9343452  14.3738728  36.5782623  37.5435524  19.0941048  43.4931221
  36.3877106  18.9132538  43.9382973  38.1997643  20.2498779  43.6783371
  39.1521873  20.3233814  43.3503342  37.5720978  21.4468842  44.3332062
  36.5292282  21.2802887  44.6029549  38.5289497  21.8541203  45.5203476
  39.5852814  21.8463955  45.2516251  38.2442589  23.2217884  46.1463776
  38.4904442  23.9730167  45.3959389  37.1737518  23.2906265  46.3397064
  38.7710876  23.3796005  47.0874672  38.4717560  20.8909264  46.7611389
  37.5342827  21.0214100  47.3017197  38.4449081  19.8210907  46.5541840
  39.2985725  21.2635899  47.3657875  37.4221268  22.6429672  43.3152542
  38.4416237  22.9004192  42.6566811  36.2813225  23.3167591  43.3050766
  35.5070229  22.8338928  43.7379761  36.0975876  24.7301197  42.8497543
  37.0396118  25.2268333  42.6174469  35.2297821  24.8000126  41.5750198
  35.5901260  24.2178802  40.7268600  34.2261047  24.4236965  41.7727966
  34.8729782  26.1620331  40.9954643  34.1020813  26.1888962  40.2253380
  34.4343147  26.7763519  41.7817764  36.4566765  26.7182102  40.3688850
  36.4128990  25.8951912  38.7290382  37.2243385  26.3933964  38.1985168
  36.5494804  24.8238182  38.8760490  35.5199966  26.2164650  38.1927452
  35.5065765  25.5594234  44.0248604  34.3432426  25.8836288  44.1380959
  36.2915154  25.9914246  44.9903336  37.2983246  25.9279499  44.9413071
  35.8305054  27.0645447  45.8992577  34.8706779  26.7931366  46.3387794
  36.7936211  27.1977520  47.0759010  37.0698433  26.2337685  47.5031433
  37.7562485  27.5798512  46.7361145  36.2572670  28.1516399  48.0766563
  36.2483788  29.1876526  47.7379875  35.2424202  27.9099293  48.3925095
  37.2646294  28.1454048  49.6187744  38.7933273  28.9619980  49.0059433
  38.6387825  29.7435989  48.2621002  39.4169006  29.3439331  49.8142624
  39.3755379  28.2500496  48.4209137  35.7463913  28.4360638  45.2641869
  36.6009293  28.7945538  44.3963013  34.7795143  29.3116493  45.6395950
  34.1352196  29.0056190  46.3546677  34.7787209  30.7181377  45.2716789
  35.6757355  30.9892731  44.7149429  33.5552597  31.0029945  44.3886642
  32.6390038  30.7566509  44.9252205  33.4064407  32.4056282  43.8357544
  33.5356522  33.1864967  44.5851860  34.1290550  32.6340332  43.0523262
  32.4395409  32.5096741  43.3434334  33.5481377  30.0587158  43.3495903
  34.2320175  30.2195435  42.6953392  34.7864952  31.6185207  46.5352058
  34.1463356  31.2152462  47.5468292  35.4339523  32.7959328  46.4049110
  35.8493004  32.9779854  45.5024452  35.7100029  33.7421684  47.5113182
  34.9598427  33.4584999  48.2494888  37.0451889  33.5070496  48.2092400
  37.1240311  34.2688560  48.9848289  37.1791382  32.1204109  48.8351440
  37.0163765  31.3751907  48.0565186  38.1442871  32.2017250  49.3351250
  36.3922501  31.9350777  49.5662804  38.2952461  33.7226028  47.3189545
  39.1416969  33.4276314  47.9391251  38.3889656  33.0665092  46.4535904
  38.3431969  34.7680702  47.0143166  35.6515884  35.2864685  47.0688667
  35.8937340  35.5449066  45.8693771  35.3154068  36.2196579  47.9370575
  35.0992737  36.0000916  48.8989182  35.7469482  37.5878677  47.6693878
  35.5977097  37.8935051  46.6338120  34.7990952  38.5939102  48.5011597
  34.9579315  39.6225281  48.1774025  33.7477989  38.3385124  48.3683205
  34.9716415  38.5910454  50.0428200  34.6424103  37.6201897  50.4131546
  35.9812050  38.7429123  50.4246750  34.1016197  39.6159096  50.7371407
  33.4734001  40.4790535  50.1282539  33.9462929  39.5492630  52.0603065
  34.5269585  38.9197769  52.5957260  33.3442535  40.2524643  52.4642372
  37.2178230  37.9282722  48.0031471  37.7492409  37.5346756  49.0560684
  37.9104805  38.8053894  47.1955299  37.4517174  39.1419334  46.3610420
  39.3012085  39.2362862  47.4247131  39.5587234  39.6415710  48.4032516
  40.2191200  37.9972763  47.2208672  39.9095535  37.2550659  47.9566612
  40.3068733  37.4998131  45.7478485  39.3577690  37.0978165  45.3933067
  40.7862015  38.2399788  45.1071396  40.9740791  36.6380157  45.7323494
  41.4334373  38.3452225  47.6107941  41.4833336  38.2775345  48.5671043
  39.6431274  40.3146019  46.4426460  39.2025337  40.2724762  45.3015480
  40.3337555  41.3404808  46.9207535  40.5517044  41.3051376  47.9063263
  41.0915985  42.2820282  46.0874329  40.3761673  42.6550293  45.3545456
  41.3147545  43.5438652  46.9547729  41.9664803  44.2221603  46.4040756
  40.4139519  44.1287842  47.1405716  41.8639412  43.3222733  48.3317146
  41.9974098  42.1634560  48.8337708  42.0737495  44.2966499  49.0605011
  42.4237289  41.6501961  45.4424400  42.9719467  42.2697639  44.5332069
  42.8794861  40.4750824  45.8664513  42.4112549  39.9731979  46.6073761
  44.0468483  39.8132210  45.2315483  44.8423882  40.5542641  45.3094864
  44.5999565  38.5792770  45.9981461  43.8660469  37.7837715  46.1271515
  45.6921959  37.8579674  45.2917633  46.5089912  38.5633392  45.1388168
  45.9476700  37.0590515  45.9878731  45.3390579  37.4754829  44.3341026
  45.2640953  38.9380493  47.3608437  45.7679405  38.1528320  47.9244652
  46.0378876  39.6808662  47.1670265  44.5260735  39.4599342  47.9699936
  43.7821236  39.5155258  43.7510834  42.7566490  38.8843079  43.3815689
  44.7298546  39.7861862  42.8738594  45.7249756  40.8828583  43.0279732
  46.6943245  40.5414124  43.3911247  45.3611908  41.7282066  43.6120491
  45.7833099  41.6008224  41.6659203  46.7237854  42.1417770  41.5611877
  44.9668999  42.3229446  41.6552849  45.5892944  40.3826637  40.7150154
  46.4731026  39.7514229  40.8073349  45.3117561  40.6775055  39.7030144
  44.5418129  39.6115952  41.4627190  43.5252419  39.8755417  41.1711464
  44.6572800  38.1138458  41.1147575  45.4310150  37.3644638  41.6653671
  44.0944862  37.7590332  39.9800186  43.6291580  38.5297050  39.5221634
  43.8255692  36.4273834  39.5206451  43.2291718  35.8855934  40.2547226
  42.9907722  36.4090767  38.1979027  41.9831810  36.8139763  38.2923546
  43.3642960  37.0170860  37.3739433  42.8559608  35.0759354  37.4315109
  43.8204651  34.6712646  37.1247940  42.3476143  34.2533455  37.9345322
  42.1875610  35.2508926  36.0896683  42.8755226  35.5117073  35.1152840
  40.8851471  35.2848663  35.9903145  40.3013687  35.2281418  36.8125572
  40.5359192  35.5153046  35.0710526  45.1474266  35.6540031  39.3629036
  45.2348480  34.5758133  39.8068733  46.0772514  36.3040276  38.7037659
  45.8407516  37.2185097  38.3461494  47.4478683  35.7112198  38.4532738
  47.4240799  34.7366714  37.9656296  48.1227837  36.7219315  37.4836731
  48.8991776  36.1546860  36.9703064  47.3561401  36.9469986  36.7422562
  48.6761284  37.9375572  38.2385178  49.9349899  38.0002785  38.3949890
  47.8929596  38.7965431  38.6537361  48.2159462  35.4520683  39.8226318
  49.1452217  34.6933632  39.8079453  47.7208252  35.9623528  40.9372902
  46.8487091  36.4708252  40.9062576  48.3549347  35.7718239  42.2997551
  49.3043671  35.2741394  42.1023064  48.5782623  37.1644440  42.9574394
  47.6539230  37.7404594  42.9138260  48.9349976  36.9794884  43.9706688
  49.7725143  37.8163223  42.1336784  50.6640587  37.5998268  42.7222214
  49.7971649  37.3278351  41.1595764  49.5873833  39.2711449  41.8921547
  49.2992439  40.0009842  42.8432693  49.7705460  39.7955093  40.7068024
  49.9366951  39.1615028  39.9383392  49.5640221  40.7675285  40.5261688
  47.6430588  34.8144684  43.2750168  48.0792313  34.6838570  44.4036179
  46.5278168  34.1711845  42.8754311  46.0203590  34.5608864  42.0939484
  45.8942490  33.1139717  43.6698761  45.7429695  33.4419785  44.6982841
  44.4854889  32.6266022  43.0423584  44.6819305  32.1962204  42.0603752
  43.8831825  31.5693607  43.9268036  44.4599686  30.6446304  43.9094086
  43.7116165  32.0166931  44.9058609  42.8741837  31.2872219  43.6261101
  43.4589081  33.7243042  42.8993187  43.8533592  34.4365044  42.1745567
  42.6121941  33.2995338  42.3601151  42.9501343  34.4197388  44.1120186
  43.6612206  34.5127831  44.9328728  42.5743217  35.3994865  43.8171349
  42.1616631  33.8253174  44.5736275  46.8364487  31.9162579  43.8400307
  47.5087280  31.5301571  42.8126907  46.8718452  31.3218651  45.0079346
  46.2623405  31.6932659  45.7225456  47.5745163  30.0943012  45.3260193
  48.4679451  29.9578247  44.7167130  47.9988022  30.1235352  46.8170204
  47.2313805  30.5235844  47.4796829  48.2817154  29.0868492  46.9996414
  49.2830009  31.0109406  46.9722710  49.9033432  30.8667660  46.0876884
  49.0740242  32.0796432  46.9243240  50.0868454  30.7017326  48.2344513
  49.5003281  30.7814331  49.1497345  50.3050041  29.6398087  48.1211967
  51.3577652  31.5188656  48.2407150  51.3112564  32.4025421  47.7538376
  52.4433403  31.2319031  48.9436264  52.5774155  30.1339378  49.6171112
  53.5157928  29.8018818  49.7882652  51.8004684  29.5741234  49.9381371
  53.5343704  31.9591179  48.8293190  54.4018478  31.5703659  49.1705780
  53.5309525  32.6724663  48.1143188  46.6438637  28.9446335  44.9644432
  45.8519554  28.5372887  45.8246956  46.6742783  28.3036423  43.7569847
  47.2896080  28.7115955  43.0677490  45.9934273  26.9926128  43.5292358
  45.0337753  27.0092525  44.0458450  45.6836853  26.8151855  41.9970894
  46.6083870  26.9468937  41.4352341  45.2842407  25.8405323  41.7167397
  44.7675209  28.0155964  41.6515198  43.4240837  28.1131496  41.9352646
  43.0271263  29.2832642  41.3943329  42.0469589  29.6870499  41.6008072
  44.0506325  29.9842949  40.8967628  44.0867615  30.8748932  40.4217606
  45.1736336  29.1680927  41.0619736  46.1514015  29.4047337  40.6690712
  46.7620125  25.8025608  44.2086906  48.0141869  25.9047108  44.2996864
  46.0600014  24.7372532  44.6491508  45.0508881  24.7444057  44.6074562
  46.6309624  23.6530495  45.3902206  47.6946297  23.7800655  45.1887703
  46.4634094  23.8251724  46.9326324  45.4291878  24.0267658  47.2116394
  46.9574127  22.5743790  47.6626740  46.2535934  21.7532215  47.5268936
  47.9247780  22.4146919  47.1864243  47.0159149  22.6696358  48.7469254
  47.1244812  25.0647793  47.4698486  46.8140106  25.1128292  48.5135918
  48.1995926  24.8912754  47.4236412  46.7010460  25.8710747  46.8709412
  46.2429390  22.2886982  44.8441048  45.0533905  22.1008625  44.6521683
  47.2006569  21.3660583  44.6971664  48.1182899  21.7073441  44.9453125
  46.9372292  20.0055332  44.2794304  45.9170685  19.7447968  44.5611916
  47.0698471  19.7718372  42.7929993  48.0778275  20.0249310  42.4643364
  47.0756073  18.6988144  42.6014481  46.0555801  20.3871002  41.8470421
  46.0748482  21.7711525  41.6559143  46.7183571  22.4479198  42.1983910
  45.2215347  22.3421726  40.7407265  45.3533211  23.4092197  40.6385307
  44.3370972  21.5820808  39.9846840  43.7403526  22.2297344  38.9939728
  43.4887238  21.6023006  38.3123512  44.2381401  20.2154121  40.1731796
  43.5919952  19.5897408  39.5753250  45.0565910  19.6012325  41.1935387
  45.1094055  18.5561905  41.4609337  47.8144226  19.1432629  45.1814194
  48.9162407  19.5727329  45.5551605  47.2934723  18.0594673  45.6765251
  46.3320885  17.8774128  45.4261322  47.9175949  17.1046028  46.6912079
  48.9784508  17.2875843  46.8621025  47.2117500  17.2237930  48.0342827
  46.1792107  17.0334358  47.7414856  47.4137192  16.4010506  48.7201385
  47.4499168  18.5895100  48.7587814  47.2250290  19.4489250  48.1271706
  46.5491486  18.6630840  49.9963188  47.0364456  18.0155602  50.7252655
  46.6402168  19.6942501  50.3376465  45.5399628  18.3368511  49.7448845
  48.9483261  18.6680012  49.1457138  49.1891861  17.8419323  49.8148117
  49.6202049  18.7506905  48.2914047  49.0548248  19.6022110  49.6970863
  47.8282089  15.6562805  46.2293739  46.9966736  15.3827801  45.3462944
  48.6778145  14.7873678  46.8781776  49.2417793  15.1329136  47.6414871
  48.8664131  13.3686304  46.5675354  49.7710991  12.9826965  47.0373268
  47.6166573  12.5529461  46.9988251  46.8573914  12.8907061  46.2934647
  47.8763580  11.4955444  46.9482765  47.1979675  12.8834248  48.4613533
  46.9793892  13.9502277  48.5088577  46.3085556  12.3540249  48.8030891
  48.2763367  12.7647820  49.5487022  49.1940918  11.8858671  49.4434586
  48.1481361  13.6434050  50.4819336  49.2665634  13.2276478  45.1329689
  50.1100197  13.8949623  44.5470123  48.8095932  12.1626921  44.4140701
  48.1554070  11.6074800  44.9468765  49.1914749  11.8478146  43.0662766
  50.2752762  11.9454069  43.0033264  48.8409348  10.3859119  42.6514435
  47.8098679  10.3915415  42.2979355  49.4864922  10.0356369  41.8460464
  49.0615692   9.2769651  43.7364044  50.1303825   9.1202955  43.8819809
  48.5747795   9.4671059  44.6929550  48.4281273   7.9690938  43.1838760
  47.3550758   8.0447025  43.3597908  48.4733086   7.8783059  42.0986023
  49.0242348   6.7658553  43.9117088  50.1004639   6.7351775  43.7417297
  48.9288635   6.9705210  44.9780655  48.3624115   5.4983864  43.5835533
  47.3932152   5.5145521  43.8672714  48.3109512   5.2804613  42.5986862
  48.8715286   4.8352237  44.1502266  48.6656036  12.8346243  41.9882240
  49.2972946  13.0365458  40.9141731  47.6395340  13.6011553  42.3343849
  47.2170219  13.4100103  43.2316322  47.1319046  14.7364349  41.5467911
  46.8255653  14.3990593  40.5566216  45.9235535  15.2973137  42.2801552
  45.1396408  15.7501707  41.6731148  45.5108414  14.3845968  42.7099457
  46.2967873  15.9457388  43.0728340  48.1231728  15.7978792  41.2062454
  47.8619308  16.6522446  40.3388748  49.3095169  15.9713860  41.8659286
  49.4469223  15.4813042  42.7383041  50.3623657  16.9666958  41.3838081
  49.8904305  17.9457607  41.3012772  51.5173569  17.1855240  42.4002953
  52.1840248  18.0154285  42.1659584  50.9228745  17.5678825  43.7290573
  50.3242836  18.4551678  43.5228653  50.3170166  16.7782555  44.1735001
  51.7653503  17.8238411  44.3715630  52.4989929  15.9221497  42.6649895
  53.3308029  15.9265261  41.9605827  52.8243790  15.8354797  43.7016716
  51.9279747  15.0052824  42.5187302  50.8649712  16.6696491  39.9774590
  51.4835052  17.5676804  39.3786278  50.7141724  15.4225531  39.3519974
  50.3605499  14.6855869  39.9452362  50.9861450  15.0937281  37.9474144
  51.9864883  15.4919043  37.7775230  50.9987564  13.5478725  37.9193535
  51.2283669  13.1211519  38.8957176  49.6211739  12.9948711  37.5085335
  49.6929474  11.9107208  37.5955582  48.9004288  13.3517494  38.2442436
  49.3924522  13.1241016  36.4506645  52.0241318  13.1103239  36.8852882
  53.0144653  13.5075941  37.1077957  51.9176369  12.0262184  36.8469162
  51.6647224  13.5014210  35.9334641  50.0289574  15.7755680  36.9718170
  50.2125664  15.6731815  35.7877655  48.9030304  16.2841206  37.4453087
  48.7263069  16.3058891  38.4394875  48.0072861  17.0635872  36.6360664
  47.7480049  16.5942936  35.6870461  46.6546822  17.3004990  37.3772392
  46.8193359  17.8645134  38.2953224  45.9824867  17.9474220  36.8135490
  45.8531685  16.0041351  37.6699829  46.4706268  15.3839140  38.3197365
  44.6637268  16.4529343  38.5007591  44.0567436  17.1235809  37.8925591
  44.1073952  15.5900335  38.8668175  44.8935204  16.9654884  39.4348831
  45.3154488  15.2888660  36.4401627  44.4836807  15.8212643  35.9788437
  46.1071091  15.1604300  35.7019997  45.0242805  14.2554808  36.6284103
  48.4885521  18.4692078  36.3222466  48.1711311  19.0748081  35.2975311
  49.1920395  19.0156803  37.2901497  49.3651505  18.3903828  38.0641861
  49.8147774  20.3250408  37.2971268  49.6369820  20.8681335  36.3689346
  49.0342445  21.1386738  38.3678932  49.1321297  20.5570679  39.2845497
  49.3839035  22.1427841  38.6078949  47.5164108  21.3589458  38.1946220
  47.0407448  20.3786869  38.1640816  47.0778465  21.9095688  39.0268326
  47.2229309  22.1496181  36.9221230  47.6675148  21.7222881  36.0233269
  46.1355476  22.0879841  36.8785591  47.6824989  23.6028767  36.9724922
  48.6474838  23.7437782  36.7097168  46.9710884  24.6502666  37.2670212
  45.6594810  24.4898205  37.4205437  45.1182976  25.2766838  37.7492828
  45.2361603  23.6159992  37.1424522  47.4748192  25.8105164  37.4565315
  46.9606056  26.6696434  37.5891571  48.4641495  25.7975655  37.2536545
  51.3035736  20.4574203  37.5464859  51.6801414  21.0346565  38.5575142
  52.2316399  20.0924816  36.6826553  51.9728546  19.4214630  35.3826752
  51.2126846  19.9270096  34.7871361  51.6505394  18.3902969  35.5272675
  53.2693024  19.5791569  34.5501633  53.3269501  20.5700016  34.0996017
  53.4670677  18.7038765  33.9313927  54.3970032  19.5860958  35.6064262
  55.1990089  20.2337055  35.2521744  54.6638260  18.5628338  35.8706970
  53.7172737  20.1991100  36.8548584  54.0853920  19.6942921  37.7480240
  53.9915085  21.7172699  37.0449104  55.0623398  22.1266041  37.5296059
  53.0694962  22.6344032  36.7315559  52.1696434  22.3332615  36.3856087
  53.2769661  24.1374607  36.6877251  54.2290878  24.3033123  36.1836891
  52.1744652  24.9488621  35.9199066  52.3640327  26.0217533  35.8872643
  52.2110519  24.5382538  34.9108658  50.7717628  24.6470261  36.4758720
  50.2876205  23.5625210  36.2734680  50.1581764  25.6442490  36.9650040
  53.5069122  24.8731842  38.0229530  53.9496384  26.0236378  38.0466270
  53.1083374  24.2639599  39.0913086  52.8462029  23.2893295  39.0528107
  53.1995659  24.9352741  40.3991928  52.8207626  25.9573250  40.3946152
  52.3177719  24.2330379  41.4074364  52.7219543  23.2254810  41.5052528
  52.2236252  24.6914921  42.3918419  50.8722305  23.9977322  40.9803543
  51.0001678  23.5851383  39.9796028  50.1773186  23.1258545  42.0507927
  49.7183838  23.7692852  42.8014450  49.4142990  22.4905815  41.6009865
  50.9319344  22.4317894  42.4208374  50.1565361  25.3112583  40.6894493
  50.5892410  25.7774067  39.8042564  49.0809212  25.1902351  40.5609894
  50.3848000  26.0402489  41.4669952  54.6155548  25.0314808  40.8683395
  54.9260788  25.8909321  41.6936302  55.4968605  24.1734428  40.3969612
  55.2087631  23.4142437  39.7963638  56.8564072  24.1362095  40.9159546
  56.7708282  24.0066986  41.9948502  57.5189743  22.8724880  40.3760681
  56.7132301  22.1496277  40.2481956  57.8549156  23.1442966  39.3753853
  58.6379585  22.3721256  41.1297302  58.3362617  21.8991795  41.9087677
  57.6924324  25.4280834  40.5552559  58.1196060  25.6873779  39.4364548
  57.9073067  26.3058815  41.5416908  57.4585228  26.1932964  42.4394722
  58.5471497  27.6452942  41.2943420  58.4883041  28.0929871  42.2864151
  60.0886765  27.5098763  40.8378792  60.0646362  27.3726139  39.7568245
  60.5506554  28.4694595  41.0699959  60.8764305  26.3534546  41.4918175
  60.4519501  25.3942947  41.1952858  62.2787056  26.2463512  40.9284286
  62.1858864  25.9052906  39.8973351  62.6144638  27.2831001  40.9056206
  63.0234222  25.7248669  41.5297203  60.9113045  26.3462734  43.0536156
  59.9078789  26.2411537  43.4661636  61.2915916  25.3633175  43.3316040
  61.5065994  27.1663742  43.4550552  57.7776375  28.6765423  40.4641953
  56.9895325  28.4198303  39.5738869  58.1180954  29.9580898  40.7075539
  58.8172760  30.1219730  41.4177589  57.6407089  31.2141094  40.1082611
  57.4563370  31.0905628  39.0410957  56.3445053  31.6766167  40.6873894
  55.5718002  30.9551830  40.4217415  56.4424362  31.7652683  42.1456299
  56.4735756  30.7446880  42.5271263  57.2580719  32.3681335  42.5448685
  55.4626122  32.0896149  42.4961395  56.0497131  32.9423180  40.1085091
  55.4637985  32.9390984  39.3480530  58.6408615  32.3123894  40.2428741
  59.3261185  32.3700638  41.2603760  58.7264442  33.2870064  39.2490120
  58.0637321  33.2308006  38.4889107  59.4498329  34.4802437  39.4325104
  60.3700027  34.1004677  39.8765373  59.7260513  35.0906563  38.1206245
  58.7848129  35.5280113  37.7876282  60.4605827  35.8813820  38.2733383
  60.2854385  34.1651039  37.0232658  61.1123924  33.5937920  37.4449921
  59.5333977  33.4395103  36.7133484  60.9531288  34.7877083  35.8583755
  61.6798477  35.4304123  36.3552742  61.3661118  33.9470673  35.3008156
  60.0197144  35.5561638  34.8870239  59.2638664  34.8514404  34.5403938
  59.5287590  36.2453270  35.5741310  60.6817818  36.1202812  33.7131195
  60.1400375  36.7843742  33.1787071  61.4926949  36.6395302  34.0179138
  61.0229912  35.4009933  33.0915909  58.8874283  35.5362206  40.4332809
  59.6282730  36.4623375  40.7936821  57.6247253  35.3946800  40.7510262
  57.1506424  34.5406494  40.4941635  56.7036743  36.3850250  41.3390961
  57.0555725  37.3686409  41.0280228  55.2195282  36.2443771  40.7102737
  55.3462219  36.2950745  39.6288490  54.9372902  35.2276917  40.9837532
  54.2337990  37.2488937  41.1777420  54.6065826  38.2186584  41.7749939
  52.9944534  36.9804535  40.9075241  52.6056061  36.2547569  40.3224907
  52.4600639  37.8062592  41.1368256  56.5636292  36.1750755  42.8391495
  56.2228012  35.0441628  43.2682381  56.9584999  37.2333908  43.5760574
  57.1701202  38.0827522  43.0721703  56.9858971  37.2623444  45.0860176
  57.3124275  36.2637825  45.3764572  57.9693146  38.4330864  45.4959755
  57.4085579  39.3522720  45.3263893  58.3941612  38.3778572  47.0039444
  58.6656990  37.3573570  47.2740402  59.2645264  39.0315590  46.9470291
  57.6297989  38.7377090  47.6926804  59.1361694  38.3141174  44.7355118
  58.9267769  38.8083763  43.9396057  55.6332474  37.5200310  45.7525635
  55.4620590  37.3174133  46.9741058  54.6989899  38.0663910  44.8680992
  54.9268837  38.1648979  43.8890915  53.3992195  38.4346046  45.1813774
  53.3384781  38.6772919  46.2422829  53.0490608  39.6421776  44.3351860
  52.8792229  39.2908554  43.3174324  52.0922012  40.0539665  44.6560478
  53.9506493  40.8731117  44.2122574  54.8959885  40.6507454  43.7172966
  53.4907036  41.7089195  43.6850243  54.5572014  41.4511032  45.5196800
  54.0134583  41.0355949  46.5995712  55.6116791  42.1484337  45.4010239
  52.4291840  37.1688385  45.0965996  51.2377548  37.3113174  45.3813515
  52.9300385  35.9473610  44.6630173  53.8208618  35.9795418  44.1881523
  52.2528076  34.6431465  44.7270393  51.1973381  34.8458977  44.5454636
  52.8021774  33.7238045  43.5337029  53.5736160  34.2961121  43.0184898
  53.3080368  32.8195648  43.8721657  51.7565804  33.2896156  42.6285477
  51.2372017  34.1620636  42.2320786  52.4167824  32.5394936  41.5583572
  51.7139931  32.1725006  40.8103561  53.0862465  33.2278633  41.0425453
  52.9416199  31.6735477  41.9618263  50.7701492  32.4280434  43.3534737
  50.0141373  32.0874100  42.6459999  51.3472710  31.6114597  43.7873192
  50.2413712  32.9201584  44.1697578  52.3948898  33.9913673  46.0930862
  51.3908272  34.0152626  46.8176689  53.5034065  33.4671402  46.4073181
  27.1727505  44.3771477  50.8932304  26.2773819  44.7478218  51.1778793
  27.4316254  43.6573029  51.5527077  27.8673420  45.1090508  50.8489647
  27.0417461  43.6791039  49.5352020  26.1339378  43.0782890  49.5900497
  27.0614491  44.6840897  48.3228569  26.4379692  45.5268822  48.6212997
  28.0756359  45.0422058  48.1460037  26.5154228  43.9062653  47.0957870
  26.7595272  44.4719887  46.1966400  26.8990192  42.8896523  47.0094337
  24.7360153  43.6434517  47.0204582  24.2259102  45.1230698  46.2622566
  24.4578476  45.9308472  46.9563675  24.6955070  45.3021660  45.2950401
  23.1405411  45.0323486  46.2193184  28.1350040  42.6602592  49.3981514
  29.3083420  42.9873924  49.4713287  27.7482738  41.3787956  49.2049141
  26.7512760  41.2642937  49.0909653  28.6582890  40.3979378  48.6059685
  29.3262653  40.8481026  47.8716240  29.6054592  39.8068008  49.6707687
  30.0850182  40.6010551  50.2428551  28.9602280  39.2244225  50.3285027
  30.6560574  38.7460594  49.2786598  30.2454987  38.0368271  48.5599556
  31.4198799  39.2789268  48.7123299  31.2576256  37.7117271  50.7084084
  31.3630295  36.1066360  49.8682251  32.0766678  36.0907326  49.0444717
  31.6967945  35.3280067  50.5541077  30.3444099  35.9149895  49.5309029
  27.9195786  39.3558121  47.7276840  26.6988182  39.1658134  47.8635445
  28.5626907  38.7690544  46.7488098  29.5157547  38.9525337  46.4693375
  27.9268398  37.7174034  45.9154243  26.8815136  37.9744034  45.7441216
  28.6131191  37.6592140  44.4701462  29.7003021  37.6052628  44.5269203
  28.1825371  36.4442444  43.6330490  28.5504932  36.4747124  42.6074829
  28.5582066  35.5182762  44.0684280  27.0966511  36.4426270  43.5384369
  28.1751709  38.9282608  43.7016487  27.0910759  39.0029335  43.6164436
  28.3322620  39.8584557  44.2476921  28.7346592  39.0290184  42.2843475
  29.7172394  38.5723228  42.1657486  28.0583630  38.4362488  41.6684341
  28.6757526  40.0329895  41.8640213  27.9346428  36.4273643  46.7045479
  29.0057735  36.0942116  47.2108040  26.8636971  35.6312637  46.7450218
  26.1141701  35.8789825  46.1149902  26.6723804  34.4720497  47.5675507
  27.6443119  34.0296669  47.7860680  26.0637817  34.9583397  48.9033508
  25.1676235  35.4978027  48.5967865  25.7333736  34.0798683  49.4576225
  27.0100117  35.7945557  49.7848244  28.0355644  35.4254265  49.7940674
  27.0631428  36.7645760  49.2905121  26.4805870  36.0713539  51.1646843
  25.5948696  36.7031097  51.0976753  26.1308861  35.1407623  51.6116867
  27.5151825  36.7899551  51.9981728  27.2496033  37.6860085  52.3811340
  28.6439400  36.2822037  52.4322853  29.1529922  35.1243134  52.0496750
  29.9533730  34.7279167  52.5212288  28.6301460  34.4945793  51.4579277
  29.3767452  36.9332962  53.2864723  29.0579624  37.7127495  53.8440857
  30.2825413  36.5268822  53.4721146  25.8066730  33.3516808  46.8343506
  25.0991325  33.6114540  45.9112244  25.9243813  32.0954552  47.2968597
  26.7299385  32.0101738  47.9001045  25.0927563  30.9823341  46.8459969
  25.0526943  30.9659252  45.7568588  25.7668495  30.1483517  47.0413742
  23.7566261  30.6718235  47.6167107  23.7632065  30.6663208  48.8499336
  22.6564484  30.3831425  46.8927727  22.7202740  30.3644924  45.8849640
  21.3539143  30.2449741  47.4482841  21.3223190  30.0710049  48.5238533
  20.4801407  31.5401382  47.0935669  20.2371311  31.5732670  46.0315170
  19.1844139  31.3730125  47.9329185  18.4601555  32.1282272  47.6276360
  18.7641048  30.3679295  47.8976021  19.2939091  31.4586468  49.0140228
  21.3028240  32.8064690  47.4438705  21.9239273  32.7192268  48.3353424
  21.9969158  32.9458008  46.6150627  20.4418583  34.1203804  47.5077820
  19.8855553  34.1906853  48.4424934  21.0932426  34.9932823  47.5507011
  19.7386894  34.3130112  46.6975021  20.7937222  28.9974842  46.8476486
  20.6991405  28.8831596  45.6457100  20.3815384  27.9720116  47.6339188
  20.3206272  28.0776176  48.6365318  20.0908623  26.5887852  47.0648499
  20.2186680  26.5770493  45.9824295  21.1590023  25.6982975  47.7447472
  20.9975338  25.7165718  48.8225670  21.0893173  24.6577740  47.4276428
  22.6437988  25.9688835  47.5449142  22.8131027  26.2160988  46.4969063
  22.8185158  26.8334732  48.1852760  23.5717583  24.8995113  48.1231537
  24.5909595  25.2189369  47.9056740  23.3668804  24.8079624  49.1898041
  23.4328938  23.5555725  47.5075493  23.3672562  23.4393024  46.5064087
  23.2432022  22.3740768  48.0701370  23.4479332  22.2587776  49.3209572
  23.7530041  23.1046791  49.7808380  23.1701317  21.3837872  49.7420502
  22.9705963  21.3203449  47.3787880  22.9047012  21.4160442  46.3754921
  22.8808842  20.4540558  47.8902512  18.7053547  25.9771805  47.1983566
  17.8809357  26.4728870  47.9507217  18.5505409  24.7541218  46.6060829
  19.2102051  24.4317188  45.9125328  17.4325333  23.8276596  46.8808594
  17.3515549  23.7102184  47.9614868  16.4856071  24.3118210  46.6420784
  17.5088787  22.4405422  46.3359184  18.1699066  22.2335091  45.2920227
  16.8149376  21.4640827  47.0220032  16.5111675  21.6173038  47.9729729
  16.7154140  20.1197853  46.4440804  16.9308910  20.2380238  45.3821526
  17.8417110  19.1637974  46.8909912  17.7894211  18.7840061  47.9113464
  17.9230137  18.3038349  46.2261963  18.7974396  19.6412964  46.6749420
  15.2854052  19.4670410  46.5754433  14.4942646  19.7415142  47.4144516
  14.9872875  18.5115891  45.6407776  15.6530647  18.3793526  44.8928757
  13.6236219  17.9956112  45.3601646  13.1607695  17.8004475  46.3275223
  12.8184156  19.1223240  44.5532074  12.8917389  20.0583172  45.1069603
  13.2274618  19.2042942  43.1161766  12.7587738  20.0769196  42.6612511
  14.2943363  19.3895988  42.9915161  12.9044247  18.3447819  42.5288162
  11.4476480  18.7193546  44.5817070  10.9210329  19.4323368  44.2130165
  13.6873760  16.6383953  44.5432129  14.7900772  16.2112217  44.1058807
  12.5782919  15.9305382  44.3482857  11.7146473  16.3868561  44.6051712
  12.4218721  14.6515284  43.7077293  13.2099390  14.5392847  42.9631157
  12.6386557  13.4754057  44.6570892  12.4936504  12.5736122  44.0622330
  14.0231056  13.2699203  45.1808586  14.3322954  14.1494637  45.7455711
  13.9859133  12.3985729  45.8346748  14.7488813  13.0180054  44.4076271
  11.8163376  13.5281248  45.8261566  11.0466824  12.9605598  45.7418938
  11.0682945  14.4967833  42.9865761  10.0266800  15.0808363  43.4404144
  11.0225000  13.6257219  41.9916115  11.8622656  13.1744328  41.6580963
   9.8615265  13.0746479  41.2301216   8.9040823  13.4746428  41.5638962
  10.1119947  13.2952566  39.7468834   9.3311195  12.6467762  39.3496323
   9.7450523  14.7290707  39.3375053   8.7018566  15.0384855  39.4016228
  10.3364801  15.4444180  39.9089890  10.1089144  14.7972965  38.3123016
  11.4641066  12.9077463  39.1591988  11.4355545  11.8214111  39.0745659
  11.4159117  13.2647696  38.1304550  12.2696695  13.3410187  39.7520256
   9.6509752  11.5608435  41.4510460  10.5628624  10.9036474  41.8554497
   8.4697561  11.0141764  41.0751114   7.8056664  11.6340475  40.6336975
   8.1566572   9.5840225  41.2260323   8.7986250   9.1357212  41.9843254
   6.7167253   9.3796291  41.6897430   5.9735513   9.6575298  40.9423714
   6.6029925   8.3130684  41.8836823   6.3326058  10.1285887  42.9703712
   6.3726878  11.2071171  42.8178215   5.2829528   9.8867025  43.1371613
   7.2529745   9.9367819  44.2039413   7.8641343   8.8717947  44.5135002
   7.4000258  10.9278860  44.9443550   8.4160881   8.7065487  40.0177193
   8.5995741   7.5130749  40.1539841   8.4256477   9.3387890  38.8673019
   8.1922464  10.3196211  38.8073578   8.6412325   8.7828817  37.5247498
   9.1058159   7.8283877  37.7721443   7.2440152   8.3922195  36.9616966
   7.3353000   7.9388752  35.9746590   6.8520832   7.5925589  37.5902138
   6.3139710   9.6177177  36.9143372   6.1774349  10.0853596  37.8894081
   6.6864829  10.2742252  36.1279945   4.9889402   9.1318150  36.3055496
   5.1887927   9.0381584  35.2381287   4.6771841   8.2255688  36.8248100
   4.0331306  10.2388659  36.3858337   3.9461143  10.7296066  37.2643013
   3.3413060  10.8277597  35.4050331   3.3469827  10.3888121  34.1770401
   3.8645983   9.5847301  33.8520355   2.6924758  10.7807064  33.5151215
   2.6234386  11.9556723  35.5974808   2.6852856  12.3845711  36.5097961
   1.9505715  12.2182961  34.8915215   9.4088430   9.7238379  36.5915565
   9.2575989  10.9681997  36.6437302  10.2641010   9.0836000  35.8081589
  10.2596035   8.0739832  35.7806892  11.0696430   9.8151073  34.8235703
  11.5266047  10.7020664  35.2624245  12.2429218   8.9456377  34.3139267
  12.9700775   8.7338343  35.0978203  11.8880081   7.9821053  33.9482231
  13.0673122   9.6045685  33.2311974  13.4684572  10.7815714  33.3934631
  13.4446030   8.9408855  32.2531700  10.1878872  10.2641134  33.6674500
   9.8737001   9.3969927  32.8352547   9.7830639  11.5028849  33.5574493
  10.1084280  12.1589260  34.2530403   9.0665970  12.0693855  32.3946037
   9.5592117  11.7732353  31.4684639   7.6543169  11.6453924  32.2699394
   7.6840940  10.5595226  32.1799088   6.6914482  12.0639067  33.3071098
   6.7630038  11.3893690  34.1603317   6.9344420  13.1011810  33.5375786
   5.7012906  11.8689547  32.8951874   7.0797234  12.1745243  31.1017151
   7.1030560  11.5559893  30.3679085   9.1047821  13.6154871  32.5208435
   9.2365913  14.2396641  33.5540314   9.1102200  14.2008982  31.2761669
   8.8405256  13.6160650  30.4981346   9.3742409  15.6089268  31.0522346
  10.3231716  15.8545980  31.5289745   9.5628891  16.0001678  29.5325317
   9.9268160  17.0224056  29.6358967  10.3777075  15.4429445  29.0702820
   8.3306246  15.8502769  28.5270805   7.4499393  16.1620312  29.0886002
   8.5980434  16.6228981  27.8062153   8.0240030  14.4015961  28.0359001
   8.5276155  13.4584379  28.6465607   7.1527061  14.2046328  27.1972713
   8.2101526  16.4783802  31.5564671   8.4919586  17.5994225  31.9614525
   7.0125399  15.9872160  31.7051353   6.8646927  15.0689840  31.3113213
   5.9768429  16.5997581  32.5721664   5.7646112  17.6410561  32.3297653
   4.6969228  15.7687168  32.5171852   4.3562469  15.8606949  31.4858837
   4.9885678  14.7872105  32.8909340   3.6556606  16.3784294  33.5133553
   4.1076503  16.3774204  34.5052261   3.2883797  17.3892632  33.3360939
   2.4620440  15.4205437  33.8851128   2.0084195  15.4272308  35.0554924
   1.8271965  14.7632990  32.9913368   6.5613241  16.7473774  33.9985847
   6.7355742  17.8962898  34.4012604   6.9516087  15.7022934  34.7240181
   7.0064888  14.8110952  34.2519455   7.1242700  15.7805204  36.1092072
   6.3889842  16.5239048  36.4171600   7.1379819  14.4023933  36.7434006
   7.9916792  13.7844400  36.4651299   7.1825900  14.4807739  37.8296661
   5.8591938  13.5861607  36.5036163   5.5532370  13.5616713  35.4577217
   6.2784147  12.6215010  36.7896118   4.6046700  13.9117060  37.3736305
   3.9416666  12.8789167  37.7548904   4.3627000  15.0584755  37.8254356
   8.4808388  16.4660301  36.4128914   8.5093327  17.3521538  37.2681465
   9.5110693  16.2883282  35.5792961   9.5041943  15.5765982  34.8627129
  10.7932243  17.1020908  35.7329559  11.0175714  16.9824944  36.7928963
  11.8015299  16.4603691  34.8622131  11.4024315  16.3437347  33.8546333
  13.0602293  17.3204308  34.7601280  12.8696718  18.1488438  34.0778389
  13.3671656  17.6615314  35.7488365  13.8683739  16.7607174  34.2892609
  12.2502604  15.0906506  35.4929886  12.9578571  15.1740971  36.3178787
  11.3896570  14.4780540  35.7616653  12.8951340  14.2037344  34.4805603
  13.9376326  14.4900541  34.3415794  13.0300817  13.1739283  34.8112984
  12.3502941  14.1432285  33.5384407  10.6347542  18.6393547  35.4838142
  11.1377573  19.3819027  36.3077507  10.1568985  19.0457516  34.3187790
   9.8783121  18.3464279  33.6454010   9.8583059  20.4487667  34.1541252
  10.7650471  20.9792194  34.4448853   9.4068956  20.8767662  32.6603394
   8.4228745  20.4593086  32.4469566   9.4219379  21.9602032  32.5418510
  10.3830204  20.3796959  31.5336361  10.3348598  19.2921734  31.5890789
   9.9626293  20.8369598  30.1325035   8.8865280  20.9321404  29.9874229
  10.3693447  21.8151608  29.8759804  10.2352695  20.1280861  29.3506699
  11.8188448  20.7519417  31.8843880  11.9739285  21.8221188  31.7473965
  12.1515913  20.3839798  32.8549461  12.4211321  20.2290649  31.1414547
   8.9920998  21.0066376  35.2750511   9.1515837  22.1153717  35.7127533
   8.0329103  20.1952400  35.8397255   7.8464341  19.4157677  35.2251091
   7.1127968  20.6959953  36.8738976   6.8319397  21.7102032  36.5899963
   5.7808418  19.8763714  37.0503311   5.3318810  19.7020626  36.0725021
   6.0058160  18.8842735  37.4417725   4.7443738  20.5775070  37.9283142
   3.9549053  19.8432617  38.0886993   5.1681986  20.8148804  38.9040871
   4.0518751  21.8635693  37.4672661   4.4114637  22.9430408  37.9411774
   3.1544461  21.7962132  36.4826965   2.9813290  20.9066200  36.0368690
   2.8898096  22.6996002  36.1166916   7.8849411  20.8753986  38.1737862
   7.8249917  21.9545116  38.7821083   8.5971603  19.8337460  38.6359978
   8.4769144  18.9416218  38.1780052   9.2163105  19.8082409  39.9374313
   8.3995981  20.0383930  40.6216202   9.6564493  18.3689594  40.1550865
   8.7851925  17.7371407  39.9824142  10.4188004  18.0925369  39.4267235
  10.0023346  17.9803715  41.6044922  10.5681658  17.0503521  41.5497475
  10.6648111  18.7513809  41.9979095   8.7273970  17.8452187  42.4409981
   9.0627184  17.6448612  43.4586029   8.1986675  18.7978344  42.4737015
   7.6959114  16.7845097  42.0509377   7.3646517  17.0067253  41.0365448
   8.1851606  15.8308697  41.8526764   6.5253253  16.7032547  42.9303741
   6.5112615  17.4357891  43.6255722   5.6329517  16.6615677  42.4591751
   6.6419601  15.9581957  43.6022263  10.2917442  20.8851147  39.9898415
  10.4095345  21.6140766  40.9954185  11.0192108  20.9841785  38.8644371
  10.9645472  20.2429829  38.1805229  12.1237106  21.9757652  38.7371674
  12.8812466  21.9308739  39.5196152  12.8970461  21.8516788  37.3928947
  12.2783213  21.9375648  36.4996414  14.0582647  22.8991394  37.3290367
  13.5652313  23.8453617  37.1061172  14.5066891  23.1210365  38.2974281
  14.6452150  22.8372078  36.4126549  13.5222178  20.6000004  37.4131889
  13.0024557  20.0156326  36.8564491  11.5923901  23.4134750  38.9241791
  12.0664711  24.1006699  39.8150940  10.4132919  23.7201958  38.2959137
  10.0654278  23.0918255  37.5858154   9.8794699  25.0409641  38.3063927
  10.7204332  25.6772766  38.0307350   8.9426470  25.2633286  37.1219711
   8.9724798  26.2898293  36.7565842   9.4583731  24.8151035  36.2727203
   7.4340620  24.8575001  37.1199265   7.3045940  23.8123169  37.4008751
   6.8711510  25.4649334  37.8286285   6.8815541  25.0361519  35.6249008
   6.9193616  26.1094131  35.4384041   7.4704571  24.4970245  34.8828468
   5.3662534  24.6511803  35.5856667   5.3481340  23.6590118  36.0366364
   4.7782965  25.3262768  36.2074814   4.7220259  24.7184544  34.3027649
   3.8130190  24.2870331  34.3904152   4.6661425  25.6392078  33.8914261
   5.3358374  24.1987514  33.6918297   9.2605791  25.5233860  39.6080856
   9.4005194  26.6936188  39.9107780   8.6312828  24.6437302  40.3169975
   8.6117907  23.6862431  39.9961548   8.0851908  24.8637524  41.6976738
   7.4826751  25.7718678  41.6776657   7.2922263  23.6551456  42.2085609
   7.8582439  22.7353344  42.0613594   7.1395125  23.7933388  43.2789268
   5.9541683  23.3930912  41.5882835   5.1579933  24.0222549  41.9862251
   6.0750360  23.5886173  40.5227966   5.5485239  21.9746075  41.7047157
   6.3170328  21.0286560  41.6869736   4.3038354  21.7053928  41.9719162
   3.6442142  22.4644909  42.0655670   3.9095125  20.7829475  42.0889778
   9.1550322  25.0891800  42.7630005   9.1356497  26.1109581  43.4750824
  10.1102133  24.1797829  42.9180336  10.1247034  23.3607292  42.3272400
  11.3434553  24.3554611  43.6883850  10.9948330  24.3305035  44.7208290
  12.3708372  23.2944260  43.4542694  11.9412241  22.3025913  43.5949707
  12.6505260  23.4041214  42.4064865  13.6516466  23.3683834  44.3712425
  14.1092749  24.3213940  44.1058197  13.2814369  23.3440628  45.8665123
  14.2012644  23.4156551  46.4469414  12.7201824  24.2429218  46.1217461
  12.8547955  22.3808136  46.1462097  14.6552649  22.2796898  44.1624756
  14.3470211  21.4083824  44.7403183  14.5388250  22.0409622  43.1053314
  15.5923653  22.6601944  44.5688744  12.0399523  25.7325058  43.4917946
  12.1637011  26.5010376  44.3973579  12.3988123  26.0737095  42.2903519
  12.3207722  25.4154358  41.5283241  12.9680624  27.3211174  41.9837418
  13.8597250  27.4177475  42.6031761  13.4645329  27.4473820  40.4832611
  12.6710939  27.3195724  39.7469063  13.8461952  28.4253407  40.1899490
  14.4698534  26.3946190  40.1332092  14.1793661  25.4367371  40.5646935
  14.6941299  26.2785797  38.6233177  15.5145798  25.5845947  38.4406815
  13.7658873  25.8859959  38.2081718  14.9370146  27.2435493  38.1784096
  15.8234205  26.9131947  40.7361031  16.6035042  26.2232323  40.4143562
  15.9671650  27.8917732  40.2780342  15.6758041  26.9943886  41.8130035
  12.0295687  28.5362854  42.3641434  12.6022997  29.5254459  42.8465691
  10.7268190  28.5388317  42.2369843  10.3979940  27.7322445  41.7257195
   9.8349524  29.6523037  42.6096687  10.1751184  30.5692806  42.1284790
   8.3977633  29.2680073  42.0435295   8.4489651  28.9765453  40.9944649
   7.7859540  28.5504627  42.5902634   7.6834006  30.6364021  41.8460579
   7.3964334  30.9305668  42.8556175   8.3460474  31.4381752  41.5202255
   6.4628916  30.4678230  40.8776398   6.2505112  31.3341236  40.0156937
   5.7959094  29.3866806  40.8445549   9.7928238  29.8777885  44.0743141
   9.8134184  30.9291611  44.6066246   9.7787085  28.7140942  44.7775230
   9.6454659  27.9016666  44.1924553   9.8426523  28.6893349  46.2858925
   8.9989176  29.2364140  46.7065048   9.5833254  27.3776436  46.9346313
  10.3271742  26.6869907  46.5374069   9.5920582  27.4640369  48.0211639
   8.1180363  26.8654976  46.6065674   7.3665776  27.6260490  46.8186340
   8.0679893  26.5554543  45.5627899   7.6936407  25.6669693  47.5357323
   8.5057402  25.0995045  47.9902420   7.1860600  25.9985771  48.4415474
   6.8161807  24.6819420  46.7791100   7.2770510  24.3340740  45.8546181
   6.7358527  23.8132343  47.4325600   5.4697156  25.2181549  46.5276947
   5.6076331  25.9771786  45.8758011   4.8558021  24.6168728  45.9969673
   4.9201121  25.4799881  47.3335953  11.1105289  29.4209194  46.7333908
  10.9720678  30.2593384  47.6599464  12.3013878  29.0995560  46.1262436
  12.3072033  28.3390255  45.4616661  13.6057186  29.6614590  46.6399269
  13.7450390  29.4274082  47.6953468  14.7808056  28.9701004  45.8827362
  14.4952250  29.1166286  44.8410683  16.1331253  29.6326485  46.1939354
  16.1429729  30.6735630  45.8706818  16.2963810  29.5261993  47.2663727
  16.8828812  29.1603870  45.5591583  14.8937006  27.4704475  46.2844734
  15.4240332  27.3503761  47.2291603  13.8810387  27.0694771  46.3273888
  15.7835274  26.7889671  45.2061729  15.4473267  27.0106411  44.1932945
  16.8180637  27.1138783  45.0954132  15.6542473  25.7244511  45.4015999
  13.6545696  31.1152039  46.3317833  14.0295858  31.9047203  47.1758690
  13.3217926  31.5761223  45.0863342  12.9670229  30.9077034  44.4174156
  13.1754274  32.9715157  44.6126480  14.1539507  33.3964119  44.8363800
  12.8768549  32.9323769  43.1131401  12.0571098  32.2145805  43.0833626
  12.2806826  34.1892128  42.5524368  12.0242910  34.0377121  41.5039062
  11.3101978  34.2703972  43.0419922  12.9648142  35.0203705  42.7234497
  14.0073071  32.4496346  42.2269173  14.6858253  33.2783890  42.0247383
  14.6110668  31.7261162  42.7747269  13.4359665  31.8666954  40.8688049
  12.9208078  32.5918922  40.2388916  14.1850557  31.2779655  40.3393097
  12.7373133  31.0719223  41.1301880  12.1550312  33.7639084  45.4145164
  12.5204477  34.8846436  45.7368431  10.9469252  33.2445602  45.7591591
  10.6693239  32.2926140  45.5672150  10.0346117  33.9444466  46.6316414
   9.7839842  34.9174843  46.2091713   8.6927118  33.1744728  46.7234535
   8.4029770  32.8664398  45.7188263   8.7663269  32.2415161  47.2822685
   7.5720334  34.0924492  47.3299942   6.7421594  33.5002213  47.7155762
   7.9548597  34.5298653  48.2520676   6.9885445  35.1039772  46.4091644
   7.4090290  36.2339325  46.6542053   6.1474166  34.7615776  45.5326843
  10.5438337  34.1153412  48.1109390  10.4598589  35.1335907  48.7613297
  11.2210789  33.0772400  48.5499229  11.3264627  32.2244492  48.0191307
  11.7899256  32.9964867  49.9369850  10.9653130  33.2475204  50.6041451
  12.4870234  31.6085033  50.1710739  11.7979841  30.8300838  49.8433762
  13.4043188  31.5297031  49.5875854  12.7871304  31.3282928  51.6754036
  13.2481470  30.3440266  51.7577553  13.4259815  32.1217422  52.0632362
  11.5285177  31.0060329  52.4615059  10.4013100  31.0396767  51.9253769
  11.6549730  30.6493454  53.6627922  12.8306341  34.0308380  50.1772499
  12.9637537  34.5868683  51.2628174  13.6811256  34.3711128  49.2094536
  13.5585737  33.8662796  48.3432961  14.7123184  35.3391914  49.4003792
  14.9087610  35.6115036  50.4373703  16.0045567  34.6892624  48.8752365
  15.9918041  34.4629211  47.8090706  16.7690563  35.4417038  49.0688324
  16.4632702  33.4762192  49.6768341  17.1208344  33.6733055  50.6810570
  16.1459351  32.2501526  49.3721619  16.5693321  31.5590401  49.9748268
  15.4773579  32.0209808  48.6506500  14.4283190  36.6982765  48.5991478
  15.3009081  37.5294876  48.6149979  13.2639790  36.8054428  47.9667282
  12.7618856  35.9299011  48.0046158  12.6824512  37.9970093  47.3712158
  11.7614470  37.6540108  46.8998337  12.3994322  39.1017723  48.4326096
  13.3375177  39.6399002  48.5686913  11.6190271  39.7862778  48.1001549
  11.9295521  38.5508690  49.8071327  10.7683792  37.8774338  50.0834045
   9.9634523  37.8155212  49.4764786  10.8279371  37.4509964  51.3423386
  10.0062733  36.9744339  51.8563042  11.9978895  37.8597107  51.8985748
  12.1913290  37.9061127  52.8887901  12.7085104  38.5896454  50.9702682
  13.6772671  39.0584450  51.0604782  13.6450052  38.4155807  46.2169724
  13.7861834  39.5984917  46.0378609  14.2527962  37.4848938  45.5260658
  14.0387697  36.5110054  45.6867943  15.2407618  37.7080536  44.4485626
  16.0035706  38.3214264  44.9281425  15.9310675  36.4272118  44.0705719
  15.2274666  35.9478111  43.3899651  17.1571980  36.4807053  43.2491913
  17.1383324  36.9545555  42.2677574  18.0006638  36.8518410  43.8313637
  17.4097576  35.4356651  43.0697708  16.2155457  35.6867409  45.2383423
  16.5673962  36.3747406  45.8079567  14.6386347  38.4167557  43.2049980
  13.5599432  38.1471291  42.8523026  15.3768320  39.1807518  42.4034004
  16.3185196  39.3220940  42.7400703  14.9997139  39.5882492  41.0167160
  14.0529013  39.1133232  40.7596283  14.9389343  41.0964165  40.8052635
  14.8770885  41.2049179  39.7224426  14.0733461  41.4952431  41.3342247
  16.2136459  41.8066406  41.2584419  16.6562901  41.4041710  42.1695862
  16.9460468  41.7872887  40.4513931  15.9259853  43.3261871  41.5040665
  15.6243954  43.7376213  40.5408096  15.0844707  43.4017105  42.1927261
  17.0716724  44.1051750  42.1082230  16.5496807  45.0230408  42.3786850
  17.4443817  43.5331345  42.9579010  18.0917225  44.4332314  41.1190414
  17.6631088  44.7614632  40.2654228  18.8253231  44.9740219  41.5543289
  18.6496181  43.6368370  40.8458977  16.0637398  39.0716515  40.0157776
  17.2548809  39.0247574  40.3486519  15.6721354  38.7583008  38.7613297
  14.3768635  39.0635986  38.0818977  14.2880564  40.1120567  37.7973824
  13.5440245  38.8661537  38.7568016  14.3781185  38.1363602  36.8636627
  13.5921822  38.4584541  36.1805382  14.2202616  37.0998650  37.1617622
  15.8274403  38.3184090  36.4129753  16.0005360  39.3475876  36.0984535
  16.1695156  37.4918213  35.7902069  16.6419525  38.2432022  37.7581558
  16.8124714  37.1851845  37.9572029  17.9764252  39.0615005  37.6281738
  19.0103321  38.4618721  37.4594383  17.9202042  40.3711014  37.7705765
  17.0325089  40.7737617  38.0350800  19.0521622  41.2462883  37.4847450
  19.3937912  40.9987450  36.4797020  18.4998341  42.6762619  37.3226585
  18.0518417  43.0450935  38.2453537  19.3425503  43.3165817  37.0620346
  17.5255661  42.8247719  36.1854019  17.4786777  43.8365402  35.7826309
  17.9887104  42.3304062  35.3314667  16.1511593  42.4283905  36.5251808
  15.6703548  42.6196365  37.6576347  15.5602818  41.8525200  35.6040459
  20.2423363  41.0568237  38.3363647  21.3351555  41.4858780  37.9541168
  20.1055412  40.3576355  39.4697571  19.2205353  39.9176064  39.6776962
  21.1725330  40.1139030  40.3810692  21.9797039  40.8112679  40.1568832
  20.6139812  40.2558022  41.8371925  19.8270836  39.5182648  41.9950943
  21.4446259  40.0058746  42.4972420  19.9923134  41.6158600  42.1573601
  19.2070503  41.7595444  43.1153488  20.4453888  42.6109200  41.5060387
  21.7264137  38.7267265  40.2598534  22.8423290  38.5187416  40.7464714
  21.0589237  37.8217659  39.5629234  20.3211231  38.0446396  38.9101791
  21.4381618  36.3621979  39.5766068  21.8777847  36.2427406  40.5668449
  20.2840176  35.4282494  39.3478661  19.7913017  35.6897316  38.4114075
  20.7783298  33.9419022  39.2559433  21.2584476  33.8268547  38.2841644
  21.5024166  33.7957497  40.0574684  19.9415760  33.2449188  39.3024254
  19.1561794  35.6857147  40.4241295  18.5180378  36.5174675  40.1256981
  18.5042248  34.8156471  40.5018349  19.5193844  36.0869102  41.3702927
  22.5093231  36.2014389  38.4932480  22.1899891  36.2001953  37.2863045
  23.7606983  36.0288811  38.9071541  23.8832684  36.1146698  39.9060135
  24.9601269  35.8918381  38.1070595  25.0477104  36.7571259  37.4500084
  26.1305027  35.6603508  39.0482788  25.9305420  34.6796532  39.4799652
  27.4238205  35.6309052  38.2329979  27.5900040  36.4817810  37.5723267
  28.2399864  35.5315819  38.9486160  27.4177971  34.7607765  37.5765266
  26.2748241  36.7064590  40.2506599  26.2081718  37.6813965  39.7677956
  25.4996891  36.4588852  40.9758987  27.2443562  36.5820847  40.7329865
  24.8440857  34.6280136  37.1725388  25.1498718  34.6528053  35.9581642
  24.3382053  33.5535240  37.7292709  23.9656792  33.7649879  38.6439362
  24.1294670  32.2201538  37.0970001  23.7053680  32.3868828  36.1068268
  25.4483604  31.3618336  36.9034119  25.1844158  30.4257317  36.4113274
  26.0417271  31.9104671  36.1719589  26.2303600  31.2148476  38.2051544
  26.5283070  32.1922112  38.5847244  25.5098705  30.7708397  38.8920670
  27.4712811  30.3016510  38.1276627  28.0647030  30.0436554  37.0998268
  27.8202438  29.8042240  39.3138618  28.7684612  29.4578228  39.2822990
  27.3111782  29.9652061  40.1712074  23.0662079  31.3328876  37.8491859
  22.9591694  31.4655876  39.0395927  22.4239330  30.3697758  37.1994667
  22.4789486  30.3407059  36.1913872  21.5734234  29.3775902  37.8746185
  21.7554836  29.4100475  38.9488182  20.1104164  29.6401501  37.6713104
  19.8346577  30.6559086  37.9546776  19.8986149  29.3468151  36.6431122
  19.1752548  28.6925411  38.4688187  19.5929718  27.7014008  38.2920341
  19.1753349  28.9958553  39.5157700  17.5439167  28.8467865  37.8058548
  16.8357258  30.3374615  38.5323830  17.5400448  31.1609173  38.4142799
  15.9414797  30.5836754  37.9598427  16.6235752  30.1152687  39.5781937
  21.9849720  27.9388371  37.4456329  21.7099209  27.4836617  36.3191566
  22.7376251  27.3058052  38.3512039  22.7875843  27.7595291  39.2521667
  23.2708359  25.8903217  38.2027817  23.5406246  25.7683945  37.1537590
  24.5026379  25.7038155  39.0851479  24.1721992  25.5533829  40.1129036
  25.0226326  24.7823944  38.8230629  25.5190659  26.8855438  39.1557274
  24.9819698  27.7227745  39.6014595  26.8278580  26.5867462  40.0424652
  27.6041775  27.3513775  40.0702934  26.4209900  26.3822021  41.0327759
  27.1636524  25.5743866  39.8178139  25.9905491  27.1544781  37.7752342
  26.1172638  26.2544212  37.1736259  25.1942692  27.7000713  37.2689056
  26.9673252  27.6316509  37.6957626  22.2024097  24.8647079  38.5967979
  21.4383163  25.0907402  39.5203743  22.1209335  23.7871113  37.8510818
  22.8781548  23.6023750  37.2087517  21.1112499  22.6963978  38.0143700
  20.6829700  22.6995716  39.0167007  20.1581001  22.7329807  36.8924751
  20.6477909  22.6127529  35.9261169  19.4948597  21.8918476  37.0942421
  19.3355064  24.0388908  36.7070618  20.0901184  24.8254299  36.7029305
  18.5078220  23.9125557  35.4156609  17.7542992  23.1669579  35.6694336
  18.1195965  24.9138985  35.2293968  19.2370396  23.6449833  34.6509743
  18.3067932  24.3901463  37.8655853  17.5677834  23.6434574  38.1561394
  18.8165112  24.6069546  38.8043518  17.8853931  25.3627529  37.6115036
  21.8292255  21.3023548  38.0631371  22.8660660  21.2702198  37.3527451
  21.3143387  20.3148003  38.8094254  20.4304047  20.4819794  39.2685661
  21.8750343  18.9510937  38.8172722  22.2675285  18.7119865  37.8288994
  22.9535160  18.8116875  39.9094963  23.7685242  19.5352440  39.8914032
  22.4061146  18.7965164  40.8519516  23.5739670  17.5294762  39.6339264
  24.2776394  17.6763287  38.9976273  20.7902718  17.9126225  39.0508881
  19.8184395  18.2710094  39.7202110  20.9805565  16.6997185  38.4394188
  21.8113556  16.5659943  37.8808594  20.0211391  15.5859079  38.6275864
  19.4055252  15.6897402  39.5210876  19.0244217  15.4893522  37.4677658
  18.4949532  14.5387344  37.4037971  18.2464523  16.2278461  37.6613884
  19.5143223  15.8355694  36.5576935  20.7872982  14.2436342  38.7085915
  21.8746090  14.0280914  38.2030182  20.1090164  13.2652416  39.2504654
  19.1446381  13.4124975  39.5119820  20.5871105  11.8636999  39.4350357
  21.5604439  11.8692808  39.9256401  19.5576992  11.1428604  40.3594284
  19.7004242  10.0695944  40.4852371  19.7598686  11.7622271  41.7319221
  18.8894787  11.4340229  42.3000832  20.6914959  11.3912640  42.1591911
  19.7759514  12.8518133  41.7571068  18.2657566  11.4281206  39.9827538
  17.9479866  10.5781603  39.6693993  20.6410656  11.0582771  38.0493317
  19.8718777  11.3576975  37.1117592  21.4693375  10.0174026  37.9331512
  22.3484612   9.5058413  38.9471359  21.8361835   9.0750942  39.8074417
  22.8444538  10.3837910  39.3610153  23.4442272   8.5818119  38.3781319
  23.7872772   7.7424259  38.9829826  24.3293209   9.1790743  38.1590424
  22.7906361   8.1002560  37.0771904  22.2897263   7.1380620  37.1838341
  23.5872517   8.0728359  36.3337173  21.6495285   9.0915394  36.7871132
  22.0221043   9.6702509  35.9419060  20.4541550   8.2894039  36.3203087
  20.6283245   7.5269437  35.4712677  19.2804718   8.3778219  36.9974098
  19.0947571   9.0052557  37.7667847  18.1387939   7.5413709  36.6394768
  18.4372082   6.6902194  36.0274391  17.5536556   6.9456005  37.9479485
  16.5985107   6.4528842  37.7662086  18.2760525   6.1702151  38.2029381
  17.5068531   7.9314809  39.1388550  17.6169548   9.1915169  38.9431190
  17.4467392   7.3909855  40.2998390  17.1361713   8.4318962  35.8922234
  16.2464314   7.8858347  35.2250328  17.2550182   9.7742510  35.8380051
  17.9872608  10.1567373  36.4190598  16.3812790  10.7321053  35.1484871
  15.3711567  10.3238087  35.1808357  16.3167706  11.9888020  35.9713097
  17.3070717  12.3945007  36.1782188  15.8174238  12.7290087  35.3461342
  15.5682955  11.8754253  37.2610168  16.2491951  11.4776077  38.0134964
  15.4724455  13.2756586  37.8569260  15.0007210  13.2344084  38.8386955
  16.4671917  13.6952906  38.0068855  14.8699312  13.8660860  37.1666565
  14.2100945  11.2158566  37.2767715  13.6216536  11.3524551  38.1840630
  13.5722399  11.5593243  36.4623566  14.1980076  10.1321297  37.1606216
  16.8315144  10.9348497  33.7408791  17.9597912  11.4294863  33.5573387
  16.1483612  10.5271587  32.6726151  15.2223511  10.1597490  32.8387947
  16.5989876  10.6283846  31.2767506  17.4256458  11.3373365  31.2306747
  16.8418579   9.1973181  30.7099781  15.9409781   8.6076946  30.8798599
  17.1336765   9.1124477  29.6632023  17.8389091   8.3912325  31.4298038
  19.1885242   8.6066942  31.4782524  19.6506062   9.3207397  30.9335327
  19.7398281   7.7719011  32.4005585  20.7672615   7.6201172  32.6967735
  18.7881069   7.0151033  32.9560051  18.9343319   6.2388053  33.5853539
  17.6277256   7.3489895  32.3039093  16.6580200   6.9606929  32.5783119
  15.5776777  11.3266478  30.3356972  15.8240547  11.4064636  29.1214199
  14.3819380  11.6605053  30.7512226  14.1639662  11.4958467  31.7235794
  13.2847223  12.2405710  29.9614182  13.0509586  11.5065546  29.1902657
  12.0795336  12.3301716  30.8499165  12.3390865  12.7208290  31.8338470
  11.2906075  12.9776964  30.4672871  11.6245756  11.3612785  31.0557251
  13.5848684  13.6588259  29.3572044  12.9757376  14.0461435  28.3673038
  14.4901609  14.4512033  30.0200253  14.9546242  14.0863609  30.8393326
  14.5847483  15.8427353  29.7086239  14.9825706  15.8326263  28.6938648
  13.2542877  16.6527824  29.8600616  12.5111427  15.9146519  29.5584011
  12.9691496  17.1067715  31.2994652  13.1717901  16.2328587  31.9185905
  13.5811472  17.9617729  31.5867481  11.9139557  17.3798695  31.3085651
  13.2036037  17.8947048  28.9475842  13.3847771  17.5123634  27.9430466
  12.2345953  18.3748455  28.8112373  14.0606365  18.5442200  29.1256943
  15.7273560  16.4835033  30.4394836  15.9294987  16.1330280  31.6033421
  16.4623318  17.4601536  29.9194393  16.3830452  17.5968952  28.9218845
  17.3223515  18.3684158  30.7382011  17.9434185  17.7522202  31.3883400
  18.3446503  19.0908909  29.8227158  17.8361740  19.4523811  28.9289169
  18.6978245  20.0382309  30.2300453  19.3873081  18.1199360  29.2688580
  20.5595512  17.9107304  29.9763126  20.6296577  18.3766804  30.9481030
  21.5957031  17.1763763  29.3712940  22.4711132  16.9599209  29.9656048
  21.4844341  16.5979671  28.0618515  22.2355785  15.9551916  27.6270847
  20.3154049  16.8724174  27.3719292  20.1602840  16.4651260  26.3837738
  19.3275318  17.6920738  27.9454956  18.4135418  17.8970680  27.4079075
  16.4935703  19.3662720  31.5262222  15.6702471  20.0782223  30.8712482
  16.5876369  19.5768681  32.8364716  17.3170280  18.7077618  33.7008247
  18.3365993  19.0695572  33.8337898  17.1642380  17.6768456  33.3815002
  16.6449242  18.8829765  35.0258636  17.4206505  18.7188988  35.7738113
  15.8144979  18.1800919  35.0926208  16.0465755  20.2669659  35.1437263
  16.7460308  20.9987869  35.5478287  15.1123409  20.1665478  35.6961975
  15.7626877  20.4762783  33.6148491  14.7633142  20.0595131  33.4896812
  15.7521820  21.9743023  33.2139435  14.6889534  22.5850773  33.3150902
  16.7915611  22.4912167  32.5527802  17.5420704  21.8688736  32.2891045
  16.9803486  23.8437920  32.1583176  17.1327572  24.4577999  33.0459404
  18.2733154  23.8779564  31.3651237  19.0719395  23.6344509  32.0658493
  18.3568096  23.0974064  30.6089001  18.3956223  24.8879814  30.9739838
  15.7948093  24.5117455  31.4236069  15.7270699  25.7563267  31.6290588
  14.9324141  23.7607155  30.7893677  15.0976629  22.7704010  30.6794987
  13.7678699  24.2870445  29.9003239  14.1993113  24.9365387  29.1386700
  13.1532993  23.0923500  29.0804539  12.6021986  22.3934402  29.7096691
  12.5879307  23.6281853  28.3179913  14.3105049  22.2053814  28.4162693
  15.0371227  22.8864231  27.9731998  14.8153181  21.6364117  29.1970024
  13.7890787  21.1872883  27.3808784  14.6889849  20.6811314  27.0314865
  13.0620842  20.5400372  27.8714352  13.0845261  21.8346100  26.2535458
  12.1782360  22.3449841  26.5795155  13.7907925  22.6273499  26.0068493
  12.9140682  20.9340000  25.0576038  12.4451599  21.3518524  24.2666397
  13.8056211  20.5433273  24.7881336  12.2221613  20.2270622  25.2615757
  12.7889299  25.0104771  30.8458233  12.3211174  26.1042919  30.4992218
  12.5397654  24.4059982  31.9946308  13.0439672  23.5461102  32.1573334
  11.5781603  24.7591820  33.0608253  10.5126839  24.6342144  32.8678398
  11.8330040  23.8195648  34.2666817  12.7844000  24.1850719  34.6531448
  10.9395761  23.8101311  34.8910217  11.8441334  22.8111973  33.8529549
  11.8184347  26.1630974  33.5296822  10.9345303  26.8360424  34.0136490
  13.0720634  26.5996971  33.5042496  13.7952700  25.9351730  33.2687035
  13.5159960  27.8437958  34.1701164  13.1616669  28.0398083  35.1821098
  15.0899487  28.0014191  34.3466454  15.4750662  27.7906914  33.3489571
  15.5694551  29.2811146  34.9826393  15.1948757  30.1039829  34.3737984
  15.1617670  29.3195782  35.9927940  16.6550026  29.2759647  35.0809288
  15.6098833  26.8020153  35.0659714  16.6728649  26.9344616  35.2675323
  15.1466579  26.6465092  36.0403137  15.4962797  25.9674377  34.3741150
  12.9068394  29.0341053  33.3559456  12.6443062  30.0702896  33.9101944
  12.6472473  28.8144760  32.0626297  12.6559868  27.8592205  31.7347355
  11.9362488  29.8127956  31.2840443  12.4311666  30.7632313  31.4836216
  12.2025986  29.5716705  29.7784252  11.7678699  28.6470547  29.3986931
  11.7089386  30.4252834  29.3139343  13.7107267  29.6654949  29.4283237
  13.8358898  30.1906338  28.4813995  14.2824545  30.2312450  30.1639557
  14.4069405  28.3187675  29.4129200  14.0342007  27.6018372  30.1444798
  14.3572044  28.0432701  28.3594837  15.8240404  28.5028419  29.7903614
  15.9705658  29.0639496  30.6172771  16.8482895  27.8264790  29.3921070
  16.8225403  26.9016380  28.5217381  15.9425230  26.6827545  28.0770340
  17.6194496  26.2965469  28.3842564  18.0174866  28.2485428  29.8027306
  18.8448372  27.8701820  29.3640556  18.0793552  29.2139645  30.0929585
  10.4680681  30.0545368  31.5554562   9.9293652  30.9346294  30.9001503
   9.8418808  29.3168430  32.4845467  10.4364376  28.6215305  32.9124985
   8.4039164  29.4833603  32.8779984   7.8368807  29.6262417  31.9581318
   7.9290895  28.2388077  33.7010841   8.5449266  27.9685078  34.5588646
   6.9326520  28.4676056  34.0790596   7.7136469  26.9660473  32.7424583
   8.5181055  26.8266850  32.0202942   7.7830548  26.0361423  33.3068695
   6.3812585  27.1184845  32.0569839   6.4860039  27.5751572  30.8885269
   5.3494902  26.6762962  32.5256500   8.2233086  30.7079391  33.8136940
   7.1081042  31.2010365  33.9277954   9.2017851  31.1288414  34.5842934
  10.1090527  30.7190361  34.4139290   8.9640484  32.2116127  35.5747223
   7.9825377  32.1570244  36.0456352   9.9323997  31.9402180  36.7482491
  10.9548798  32.1395035  36.4274368   9.7245598  32.7965355  37.3898277
   9.9192772  30.5793114  37.4925117  10.3647308  29.7372684  36.9627647
  10.5855846  30.6656723  38.8519745  11.5626249  31.1352806  38.7381210
   9.9975567  31.4087543  39.3906364  10.6778402  29.7580109  39.4484100
   8.4805899  30.2043934  37.6828957   8.3430109  29.5333672  38.5307732
   7.9461617  31.1437168  37.8248711   8.0223980  29.7401199  36.8096237
   9.1559982  33.6043472  34.8575096   9.8093863  33.7160568  33.8181725
   8.4670467  34.6897850  35.3303261   7.8312488  34.6701012  36.1148491
   8.4492092  35.9698372  34.5489616   8.1504612  35.7652130  33.5208626
   7.5158682  37.0502701  35.1520271   6.5241957  36.6834221  35.4168091
   7.9986625  37.4328499  36.0512733   7.2700801  38.2253113  34.2558784
   8.1333103  38.5960274  34.0583839   9.8822355  36.5996323  34.3129768
  10.7279263  36.6680145  35.2286568  10.3008633  36.7239723  33.0565529
   9.5912218  36.4834023  32.3793259  11.6436825  37.2293587  32.6052895
  11.6811953  37.2773361  31.5169907  11.7746973  38.1823654  33.1178513
  12.8910017  36.4065552  33.0177574  14.0080214  36.6917419  32.5909843
  12.6601734  35.2878380  33.6998863  11.7045355  35.0073471  33.8677521
  13.8515978  34.5130119  34.1415215  14.6190510  35.1648903  34.5588570
  13.4881659  33.5189857  35.2603760  12.5656843  33.0723419  34.8893814
  14.1856375  32.6814232  35.2715454  13.3273134  34.0070076  36.6404343
  12.2228861  34.5882645  37.1161728  11.3491821  34.7357941  36.4986954
  12.4709120  35.1964836  38.3097038  11.7656574  35.6880989  38.8398285
  13.7550859  34.9673309  38.7031479  14.4885693  35.2772598  39.8434639
  13.9687805  35.7091560  40.6858902  15.8429117  34.8549881  39.9996948
  16.3315544  35.0793648  40.9363289  16.3727264  34.1691017  38.8755989
  17.4173489  33.9060860  38.9530029  15.6846199  33.8263206  37.7201691
  16.2202816  33.3462334  36.9145699  14.3471737  34.2313423  37.6485901
  14.5607996  33.8081665  32.9597626  15.6653509  33.3753052  33.1344185
  14.0968513  33.9891129  31.6930580  13.2584066  34.5487289  31.6303024
  14.8673582  33.4567070  30.4983635  14.9650784  32.3755150  30.5962582
  13.8764219  33.6646767  29.2551270  14.4841356  33.3323441  28.4134979
  12.9621439  33.0768738  29.1733932  13.4628220  35.1483383  29.0297070
  12.7293110  35.3904762  29.7987518  14.3144627  35.8278427  29.0626431
  12.6842165  35.2910881  27.7315426  12.7300558  34.4703522  26.8225822
  12.1444864  36.4190407  27.5199757  12.2831602  37.1486092  28.2045193
  11.5712452  36.5391350  26.6971321  16.2288170  34.1036530  30.1771774
  17.0782471  33.5463982  29.5649128  16.4289589  35.3320236  30.6955757
  15.6716557  35.8096428  31.1629848  17.5987473  36.1678658  30.6753368
  18.2006683  36.1867104  29.7667999  17.1077080  37.6315689  30.8609962
  16.5830669  37.8273506  31.7961559  17.9710312  38.2919083  30.7789688
  16.2714882  38.2143288  29.7030582  16.4180908  37.6783752  28.3643169
  17.0126801  36.7956352  28.1809120  15.7337780  38.2858849  27.3165169
  15.7973461  37.8873520  26.3147526  14.9139652  39.4461899  27.5365505
  14.1285200  39.9612045  26.5563030  14.2102623  39.3689384  25.8052120
  14.7616720  39.9535789  28.8065357  14.1234522  40.8003235  29.0117092
  15.5424795  39.3754539  29.8892651  15.4911108  39.8856850  30.8397522
  18.6196289  35.7903252  31.7059784  19.7789478  36.1764984  31.5449791
  18.2961674  34.9502029  32.7395020  17.3148251  34.7438774  32.8598938
  19.2909431  34.4026756  33.6712646  19.9842529  35.1832161  33.9845963
  18.5129795  34.0832939  35.0280991  17.6212730  33.4985847  34.8020935
  19.3808651  33.3474770  36.0989647  20.3340569  33.8701439  36.1786690
  18.8937454  33.3880730  37.0732193  19.4807320  32.3130455  35.7702026
  18.0988293  35.4064941  35.6403084  17.5957451  35.9450684  34.8372192
  17.3092079  35.2565651  36.3765984  18.8921700  36.0675011  35.9892769
  20.0195427  33.2022133  33.1336594  19.4036980  32.2146111  32.8103027
  21.2876644  33.2468300  32.7826080  22.1760387  34.2672729  33.2889557
  22.1926117  34.4099121  34.3694534  22.0631695  35.1608391  32.6750298
  23.6168327  33.7881737  32.7895546  24.1185780  33.2652626  33.6037521
  24.3070526  34.5560341  32.4401398  23.3129559  32.8619118  31.6424160
  24.1280365  32.1827011  31.3925896  23.1059799  33.3943596  30.7141037
  22.0100269  32.2318535  32.0595703  21.3826275  31.9395027  31.2175465
  22.3263931  30.9810867  32.9477654  22.5868950  30.9638081  34.1928635
  22.2159462  29.7477741  32.3569908  22.1129971  29.8569832  31.3582001
  21.7593498  28.4249725  32.9465828  21.9601536  28.5169659  34.0139732
  20.1494141  28.1528835  32.7174301  19.7295799  28.5949726  31.8138828
  19.7210064  26.6702881  32.8512573  18.6832886  26.5068359  32.5605316
  20.3382301  26.0161095  32.2354774  19.8307571  26.2465267  33.8494949
  19.4211731  28.9298286  33.8293648  19.7984943  29.9524403  33.8310738
  18.3623905  28.9719639  33.5738182  19.7744980  28.4783268  34.7564087
  22.5988121  27.2589474  32.3566589  22.9473896  27.3322697  31.1778259
  22.8304920  26.1527977  33.1656799  22.6476631  26.1515331  34.1589928
  23.3145580  24.7969761  32.7286110  22.9692860  24.5144939  31.7340794
  24.8680000  24.8851776  32.4493523  25.0161476  25.5509872  31.5991459
  25.6533012  25.5853310  33.6349678  25.2025776  25.2988567  34.5851669
  26.7076092  25.3089523  33.6226997  25.5125446  26.6640415  33.5666237
  25.4409485  23.6465435  32.1746750  25.5285473  23.2786827  33.0570602
  23.0891628  23.7123394  33.8095932  23.2318497  23.9800758  34.9877777
  22.8754635  22.4760742  33.3201408  22.7635498  22.4547310  32.3165855
  22.8511028  21.1255608  34.0097237  22.4497471  21.3516197  34.9976082
  21.9245701  20.2051449  33.2481575  22.3919449  20.0569305  32.2746620
  21.8229294  19.3229618  33.8802414  20.2274532  20.9177513  33.1618843
  20.3728790  21.8751850  32.2415161  24.2569447  20.5481243  34.0717239
  24.9908276  20.4808483  33.0297050  24.5993748  19.9375114  35.2224045
  24.0791759  20.0611687  36.0792618  25.7885399  19.0988483  35.4418869
  26.2117271  18.8276024  34.4746971  26.7931499  19.9298954  36.2151794
  27.6895618  19.3099155  36.2281609  27.0622902  20.7727947  35.5786400
  26.4048882  20.4496384  37.5558434  25.5304394  19.9626942  37.9874992
  27.2149754  20.1401482  38.2162018  26.1698799  22.1953506  37.7563858
  27.9050903  22.8020325  37.8242950  28.5077362  22.2814236  37.0800591
  27.8751431  23.8713226  37.6149635  28.3521862  22.6956387  38.8126717
  25.2966747  17.8731861  36.1666908  24.4533863  18.0445824  37.0591049
  25.7411480  16.6982918  35.7341461  26.3052845  16.6476288  34.8979149
  25.4244137  15.3389053  36.3011055  24.3766556  15.0396614  36.2735443
  26.1678848  14.3802290  35.3729401  25.6050034  14.4277630  34.4407387
  27.2275314  14.6182814  35.2802696  26.1038208  12.8491812  35.7504997
  26.7310429  12.3048563  35.0445251  26.6426411  12.6837540  36.6834602
  24.6554279  12.2677784  35.9272499  23.9504871  12.2318516  34.9736938
  24.2106876  11.9700060  37.0935860  23.2076511  11.8978939  37.1874809
  24.6897488  12.1595716  37.9623032  25.8630505  15.2082520  37.8238411
  26.9912872  15.5447321  38.2164497  24.8598690  14.8456936  38.6646118
  23.9405956  14.6602488  38.2895851  25.1208515  14.4217701  40.1084099
  25.5293789  15.2319365  40.7124252  23.7357883  14.0945549  40.8063850
  23.1929073  15.0202990  40.9971161  23.2401142  13.3912220  40.1372604
  23.7555637  13.3825693  42.1805305  23.3139629  12.3887243  42.1073074
  24.7798939  13.1383219  42.4619370  23.0943356  14.2678633  43.2470245
  22.5458870  13.6580439  44.2487526  23.4370670  15.4610767  43.3028297
  26.0986633  13.1732225  40.0619774  25.9083691  12.3060188  39.2645226
  26.9959164  12.9813938  41.0362663  27.0852737  13.6866493  41.7537155
  27.7287617  11.7070646  41.1234055  28.0012283  11.5849838  40.0750923
  29.1024227  11.9132271  41.7245331  29.6308689  10.9691553  41.5919724
  29.5929832  12.6858130  41.1324501  29.1007423  12.4102383  43.2053337
  28.6180458  13.3774853  43.3451157  28.5494537  11.6881752  43.8076668
  30.7580032  12.4760399  44.0464134  31.1956596  10.6668463  44.1817665
  30.6281471  10.1795855  44.9746170  31.1702442  10.1405840  43.2275658
  32.2467117  10.6156034  44.4659538  26.8897057  10.4605379  41.5993538
  25.8915348  10.5592184  42.4012604  27.2069645   9.3075542  41.0660629
  27.8897171   9.2795334  40.3223114  26.5411224   8.1091328  41.5151405
  25.5038528   8.3888302  41.6993637  26.6171455   6.9814343  40.4079514
  26.2958832   7.4179668  39.4622612  27.6490974   6.6312585  40.3841553
  25.6708755   5.7947564  40.7065620  26.0274372   4.6126666  40.3964729
  24.4966717   5.9733505  41.1913757  27.1530170   7.6767578  42.9003525
  28.3271294   7.3969941  43.0664444  26.3061104   7.6666594  43.9403076
  25.3319931   7.7467413  43.6857834  26.6367664   7.3060751  45.3248863
  27.5802746   6.7743511  45.4480095  26.8131294   8.5236406  46.2367172
  25.8685474   9.0673189  46.2198334  27.1840858   8.2288074  47.6741943
  27.4079418   9.0564909  48.3471909  26.3738632   7.7608061  48.2333107
  28.0413799   7.5556769  47.6675453  27.9520683   9.4188728  45.7350426
  28.3537540  10.1472940  46.4394226  28.8626041   8.8601208  45.5186615
  27.6407700   9.9176645  44.8172188  25.5256710   6.3836112  45.8105431
  24.3367481   6.6347499  45.4946709  25.8464546   5.2812185  46.5830879
  26.8112526   4.9828763  46.5991173  24.8490448   4.3383389  46.9432220
  24.2755871   4.0805411  46.0528297  25.4939060   3.0800996  47.4882584
  25.8353252   3.2306252  48.5124054  24.3983002   1.9268637  47.3511887
  23.9523888   1.8551642  46.3591537  24.7383976   0.9084688  47.5390892
  23.4931622   2.1847568  47.9010201  26.5819645   2.6249690  46.7663841
  27.0957565   2.1652887  47.4344482  23.7889271   4.9397225  47.8474007
  22.6146851   4.9011683  47.5408249  24.1711426   5.7129750  48.9336357
  25.1677456   5.8296041  49.0488739  23.1722031   6.4311752  49.7048645
  22.3476238   5.7300091  49.8334503  23.5275898   6.7990351  50.6674042
  22.6788731   7.6569533  49.0137672  21.8612347   8.4139471  49.5474281
  23.2706604   8.0606499  47.8674202  24.0000648   7.4816670  47.4764595
  22.7641087   9.1438637  46.9484520  23.0300903  10.1492853  47.2747650
  23.1721954   8.8754530  45.9740181  21.2779408   9.0080042  46.8659821
  20.6201286   7.9878435  46.5504456  20.5755978  10.1659174  47.0164261
  21.1078968  10.9923553  47.2482986  19.1765347  10.2406406  46.9153519
  18.8432503   9.3380566  47.4275665  18.6891880  11.4552298  47.5680618
  18.8418026  11.2991247  48.6359749  19.3492222  12.2646685  47.2561951
  17.1822643  11.7602339  47.4852715  16.9348145  12.0851011  46.4746590
  16.3290710  10.6613207  47.9790192  16.4150467   9.8482151  47.2582130
  16.6144733  10.4055204  48.9994164  15.3061600  11.0092850  47.8352509
  16.8684521  13.0309982  48.3238564  15.9301195  13.5650845  48.1742325
  16.8829346  12.8621740  49.4006081  17.6400566  13.7579746  48.0704193
  18.7727661  10.0577898  45.4154510  19.3740463  10.7569504  44.5364494
  17.8061810   9.1261330  45.1248245  17.4733353   8.6456490  45.9485054
  17.4229927   8.7000456  43.7996063  18.3187809   8.8655186  43.2010384
  17.0428848   7.1987858  43.7880783  16.0272408   7.1414399  44.1795883
  16.9761238   6.9134450  42.7382126  17.9755745   6.2892542  44.5567551
  17.9234009   6.4005089  45.6398048  17.6833935   5.2569537  44.3641701
  19.4876099   6.3681078  44.0384102  19.6546421   6.2346520  42.9695854
  19.8103886   7.3608437  44.3520927  20.2829113   5.3442411  44.8755913
  20.0637379   5.5596480  45.9213715  20.0024261   4.3083720  44.6847916
  21.7496014   5.3434978  44.7667770  22.1056881   5.1519489  43.8412437
  22.1963673   6.2023053  45.0547981  22.0712471   4.5405569  45.2882462
  16.2662716   9.5212183  43.2254105  15.5420790  10.1656761  43.9359779
  16.1024876   9.5939407  41.8934097  16.7607727   9.0862656  41.3198013
  15.1487694  10.4811163  41.1925507  15.4227238  10.5478115  40.1396446
  13.6643677   9.9435358  41.2298927  13.2160873   9.9130974  42.2229805
  13.0373535  10.6215696  40.6509094  13.5495844   8.5035486  40.6033745
  13.9361267   8.6546612  39.5954819  14.0965891   7.7387547  41.1547165
  12.0811472   8.0199575  40.5726242  11.5598354   8.0661974  41.5287628
  11.6029797   8.6570120  39.8285675  11.8486099   6.5532522  40.0587387
  10.7887888   6.3357053  40.1912460  12.1772900   6.4446096  39.0251656
  12.4542742   5.5664878  40.8789864  12.3536282   5.7204256  41.8720970
  12.0074902   4.6829638  40.6792946  13.4371061   5.4924235  40.6584053
  15.1742010  11.9362164  41.6977997  14.1343727  12.4829082  42.0519829
  16.3226624  12.6021385  41.8205223  17.0506420  12.2225628  41.2322464
  16.5294361  13.8777227  42.5717506  15.5540190  14.2522440  42.8822250
  17.4302177  13.7737560  43.8240433  16.9594879  13.0907183  44.5311317
  18.4068413  13.4016867  43.5144157  17.7301483  15.3796797  44.6950836
  16.4391956  15.4739408  45.0259171  17.0399494  14.9516077  41.6335526
  17.5691967  14.6248951  40.5953979  16.7217197  16.2128696  41.9073868
  16.1250038  16.3970222  42.7011871  17.1442280  17.4525433  41.2430725
  17.9857826  17.2038250  40.5965233  16.0106468  18.1518002  40.3620262
  15.2148161  18.5619354  40.9837532  16.5414734  19.3556461  39.5899429
  15.7856359  19.5919971  38.8409767  16.6411781  20.1938782  40.2795296
  17.4406586  19.0477009  39.0563393  15.4188719  17.1675434  39.2830658
  15.8316889  17.4332027  38.3098717  15.7020988  16.1438999  39.5280952
  13.8495026  17.2152748  39.1618080  13.4222994  16.4310284  38.5368614
  13.4511375  17.0759163  40.1667862  13.6499004  18.1750259  38.6852150
  17.6510601  18.4906235  42.3479385  16.8923035  18.6744862  43.2971382
  18.8952103  18.9704571  42.2041168  19.3939877  18.6767750  41.3764267
  19.5425549  19.9929771  43.0831985  18.8371563  20.1174641  43.9047928
  20.8774109  19.5029488  43.7153053  21.6926632  19.4715672  42.9924774
  21.0700531  20.3012161  44.4320755  20.7755318  18.1713943  44.4723549
  19.8983116  18.1345654  45.1182899  20.7375774  17.2927914  43.8283730
  21.9893188  17.9555836  45.3145065  22.8207092  18.3828430  44.7538452
  21.7671871  18.4983444  46.2332916  22.1773701  16.4699421  45.6116600
  22.4153557  15.8294687  44.8678474  21.9631691  15.8801594  46.7594337
  21.6807289  16.4412575  47.8981056  21.4604206  15.9223642  48.7361526
  22.0361767  17.3555832  48.1384506  22.0649967  14.6048040  46.7613716
  21.6179790  14.1319847  47.5338478  22.4313202  14.1695948  45.9268074
  19.8124847  21.2966805  42.2352982  20.2541599  21.3004208  41.1065445
  19.6867771  22.4640503  42.8942146  19.3571358  22.4730453  43.8488655
  19.8076477  23.7752285  42.3554993  20.2749767  23.7420006  41.3713226
  18.4044075  24.3353958  42.0399323  18.4018879  25.1668911  41.3351517
  17.4937878  23.3320904  41.3372154  16.4703522  23.6740360  41.1830635
  17.8928776  23.1428108  40.3407211  17.3738995  22.3993607  41.8883400
  17.6771584  24.8027115  43.2178345  17.4475918  23.9137840  43.8053741
  18.2884426  25.3861256  43.9063530  16.8411140  25.4667110  42.9981804
  20.6848488  24.7432156  43.1652107  20.7950172  24.7130470  44.4196320
  21.2550888  25.7302513  42.4523315  21.1872978  25.7331963  41.4446144
  21.8922386  26.8562756  43.0560913  21.3882141  27.0441341  44.0041237
  23.3595600  26.5247765  43.4558067  23.2558002  25.5575695  43.9475861
  23.9195633  26.4471073  42.5238914  23.8668346  27.7254200  44.2412567
  24.1645145  28.5904312  43.6485977  23.0730362  28.1305828  44.8688126
  25.3245792  27.3795414  45.3428802  26.6543865  26.8319054  44.1647453
  26.7085552  27.5629158  43.3580246  27.6296520  26.9166698  44.6440887
  26.4420815  25.8530273  43.7348328  21.8928413  28.0595169  42.2475662
  22.3745995  28.1099472  41.1159325  21.3571568  29.1464653  42.7856407
  21.0286846  29.0332470  43.7340012  21.5324402  30.5259514  42.3140373
  21.8198166  30.3859997  41.2719612  20.2972794  31.4471989  42.5577278
  20.2615929  31.6103497  43.6348572  20.3935547  32.3719368  41.9887886
  19.0144024  30.8524342  42.1027985  19.2376671  30.4240856  41.1256752
  18.7351875  30.0769329  42.8160591  17.7024460  32.1282806  41.9260292
  17.5627651  32.6024857  43.6410370  18.4621220  33.1628342  43.8965187
  16.8781643  33.4092064  43.9030037  17.4434376  31.6847820  44.2169571
  22.8114681  31.1119843  42.8938599  22.9931049  31.1219234  44.1543694
  23.7000122  31.6057243  42.0299797  23.4497509  31.5291214  41.0544777
  24.7375031  32.5063438  42.4250984  24.8102055  32.3045387  43.4937859
  26.1160488  32.1999435  41.7122040  25.9234104  32.3475685  40.6495667
  27.2736797  33.0370216  42.1766090  26.8555965  33.9767075  42.5375862
  27.6975689  32.5458031  43.0524673  27.9979229  33.1815643  41.3749390
  26.4854221  30.8526001  41.7629356  26.5524578  30.6121216  42.6899071
  24.2400169  33.9612770  42.2977829  23.8518581  34.2865753  41.1864204
  24.2214165  34.7270279  43.3945274  24.6268902  34.4140282  44.2649994
  23.3691463  36.0081558  43.5670128  23.0573921  36.4403954  42.6161842
  22.1104488  35.6096382  44.3435173  22.3681316  35.1897354  45.3158302
  21.2565193  36.8732910  44.5850182  21.2624054  37.4477310  43.6586914
  20.2415829  36.5601578  44.8298645  21.7332687  37.4467926  45.3799438
  21.2681351  34.5792503  43.7114334  20.3191509  34.4281273  44.2259102
  20.9828033  34.8876457  42.7056580  21.7320271  33.5988884  43.6028023
  24.1838188  37.1056366  44.2583237  24.6484585  36.8629303  45.3899002
  24.2604542  38.2991333  43.6630745  23.8971958  38.3484688  42.7219543
  24.4447098  39.5791550  44.4213142  25.3955727  39.4846077  44.9457359
  24.3938408  40.6193161  43.1755371  25.1124763  40.2336426  42.4524040
  23.3980217  40.4897003  42.7516937  24.5378513  42.1795807  43.3712769
  24.4327145  42.6095314  42.3751869  23.7608051  42.6148148  43.9996605
  25.9652958  42.4521751  43.9990387  26.5803356  41.6860504  44.7483101
  26.5670319  43.5247650  43.7095718  27.5159321  43.6908379  44.0130730
  26.0842934  44.2936554  43.2670021  23.3686695  39.9171638  45.4195023
  22.1810017  40.0254402  45.0370293  23.7579708  40.1874275  46.6374893
  24.7485485  40.0400391  46.7683792  22.8796787  40.5208969  47.8001671
  22.0130081  41.0855370  47.4564056  22.1627254  39.2128258  48.3805161
  21.8308640  38.6403999  47.5143204  23.0637035  38.2687492  49.1995811
  23.5990696  38.7429428  50.0221519  22.4555416  37.4863777  49.6535950
  23.6862164  37.6859512  48.5206757  21.1765194  39.5533257  49.3363228
  20.4164200  39.7868690  48.7984505  23.6347084  41.2253723  48.9468155
  24.8062687  40.9153862  49.1826515  22.9892578  42.0912933  49.8209190
  22.0793247  42.3910217  49.5010986  23.6662807  42.6077194  51.0484848
  24.7431583  42.7486076  50.9558334  22.9740849  43.8932457  51.5611343
  21.8868408  43.8487701  51.4977112  23.2097855  44.0354614  52.6157990
  23.4205360  45.1668510  50.8642578  22.5526009  45.9897385  50.4935913
  24.6307278  45.4517670  50.6790009  23.5766869  41.6167870  52.2331657
  24.1919079  41.9337158  53.2379799  22.7732487  40.5946350  52.1533852
  22.2305222  40.5727997  51.3018761  22.3066101  39.5973663  53.2060242
  21.8801765  40.1264572  54.0582733  21.2378273  38.7070122  52.6340103
  21.6757317  38.1836777  51.7840347  20.7753391  37.7586861  53.7616501
  21.5569019  37.0884171  54.1194229  20.4551678  38.3314705  54.6320000
  19.9974251  37.0608902  53.4517555  19.9249096  39.4412842  52.3221550
  20.1545944  40.1204414  51.5011215  19.1395893  38.8456726  51.8567238
  19.4631519  39.9278069  53.1813278  23.4958858  38.7584991  53.7489014
  24.2091846  38.1747704  52.9151077  23.6989136  38.5702362  55.1262970
  23.2044926  39.5785446  56.0658150  22.1556149  39.5724068  56.3623314
  23.2664680  40.5889206  55.6615906  24.1610832  39.5721397  57.2560120
  23.6262131  39.8154182  58.1740685  24.8219051  40.4307098  57.1365280
  24.9146500  38.2036057  57.1853218  24.3617554  37.4054642  57.6806793
  25.9144993  38.2863503  57.6114120  24.7930603  37.8358002  55.7266693
  25.7231026  38.1718483  55.2681961  24.6744995  36.3135796  55.4664459
  23.5774212  35.7632904  55.3239746  25.7854118  35.6331673  55.2200203
  26.6187859  36.1956635  55.1241684  25.8101444  34.2101822  54.8108673
  25.5074730  34.2944031  53.7671242  27.3175201  33.7969131  54.9029274
  27.9051323  34.5022964  54.3153496  27.6311359  33.8514442  55.9454117
  27.6461620  32.4006195  54.3444862  27.0102787  31.6228008  54.7672729
  27.4244080  32.4883347  53.2808914  29.1047001  32.0922623  54.5780106
  29.5408459  31.6505737  55.6640930  29.9726810  31.9692822  53.6120644
  30.9276218  31.8227215  53.9065285  29.7905140  32.1371994  52.6329193
  24.8557358  33.2137375  55.5636139  24.2482147  32.4349365  54.9152298
  24.7720051  33.2757683  56.9099770  25.2527351  34.0262184  57.3851814
  23.8002472  32.5409241  57.7287331  23.5858421  31.5278130  57.3885231
  24.3531075  32.4652672  59.1796989  23.7579842  31.7713642  59.7733574
  25.3601398  32.0501328  59.1390991  24.4746284  33.8187256  59.9087372
  24.6063366  34.8327866  59.2535324  24.6048756  33.8101234  61.1544189
  22.3537884  33.1429405  57.9183807  21.5261097  32.2651558  58.2454567
  22.0237637  34.3365631  57.4997559  22.7684669  34.8574066  57.0590172
  20.6624641  34.8302116  57.3584480  20.0525208  34.2676468  58.0652657
  20.5393276  36.3737411  57.5607719  21.2403812  36.8817787  56.8985634
  19.5819359  36.8081131  57.2729683  20.8799973  36.7251244  59.0292206
  21.8261223  36.2241058  59.2339821  20.9740582  37.8103943  59.0672684
  19.7904530  36.3049889  60.0582809  18.6799831  35.8588867  59.7106247
  20.0640850  36.4066238  61.3644943  21.0143929  36.6668015  61.5865822
  19.3814793  36.2693863  62.0961494  19.9366016  34.2677078  56.0841446
  18.6841545  34.1342468  56.1028328  20.6790714  34.0304375  55.0611076
  21.6654224  34.1636696  55.2327499  20.1878853  33.5062027  53.7493935
  19.4550838  34.2137299  53.3614426  21.3649235  33.4084816  52.7238274
  22.1000366  32.7351494  53.1646538  20.9391785  32.6657448  51.3645248
  20.6900902  31.6120434  51.4900856  20.0982571  33.2021294  50.9249306
  21.7060356  32.7425499  50.5937271  22.0480480  34.7484016  52.4121552
  21.4002419  35.3911781  51.8160934  21.9746857  35.2145538  53.3947182
  23.4140224  34.6404762  51.7385521  23.9074001  35.5785408  51.9929504
  23.9682369  33.7706642  52.0912094  23.1914330  34.5709763  50.6737862
  19.5238247  32.1035500  53.8458061  19.9608803  31.2381420  54.5542412
  18.4573574  31.8601933  53.0935860  18.1621208  32.5784225  52.4477577
  17.5394611  30.6990528  53.2011833  17.7765732  30.0000954  54.0032616
  16.1042843  31.1248493  53.3988876  15.8477964  31.9230804  52.7023659
  15.4756002  30.2363453  53.3404312  15.7996159  31.6163559  54.8482399
  16.2981682  32.5641327  55.0513763  14.7288008  31.8196564  54.8371277
  16.0030022  30.5875359  55.9867706  17.0658646  30.3614521  56.0722694
  15.7295341  31.0799866  56.9199409  15.2428923  29.3527622  55.7743454
  14.8991318  29.1996861  54.8370628  15.1253471  28.3575134  56.6381531
  15.4644184  28.4254208  57.8518791  15.1338739  27.7271500  58.5024681
  16.0096531  29.2329922  58.1176720  14.4970112  27.2802773  56.3327675
  14.4386673  26.5928097  57.0703888  14.2854767  27.1436844  55.3546562
  17.6069794  29.7232513  51.9898224  17.2653980  30.1035118  50.8781853
  17.7852592  28.4702225  52.3056259  18.0736752  28.2795296  53.2545967
  17.7638893  27.3087730  51.3466759  17.7915058  27.7282696  50.3410110
  19.1367531  26.5844326  51.4839020  19.1202202  25.9863510  52.3950157
  19.1819935  25.8741207  50.6583672  20.3927956  27.4204426  51.4731445
  20.7213840  28.3232918  50.4587288  21.8136997  28.9538727  50.9134636
  22.1627216  29.8775558  50.4759712  22.1918106  28.5080986  52.1237335
  23.0026951  28.8501568  52.6192741  21.3291473  27.5320187  52.4914246
  21.3279762  26.9785786  53.4188423  16.4399109  26.5023479  51.4784775
  15.9783916  26.2618446  52.6020164  15.8074465  26.0717373  50.3678627
  16.3626709  26.0331402  49.5250473  14.4283009  25.4148884  50.3647881
  13.9877510  25.3730106  51.3609161  13.3941412  26.1303043  49.4774437
  13.7849140  26.0803146  48.4611244  11.9894552  25.4739494  49.4371719
  12.0674772  24.4782028  49.0007133  11.4868612  25.5460033  50.4016953
  11.3226881  26.0292530  48.7775040  13.2312574  27.5923100  49.8769951
  12.6868153  27.6862545  50.8165970  14.1554947  28.1657333  49.8057899
  12.5845881  27.9531193  49.0771599  14.5677490  23.9334660  49.9011116
  15.2359533  23.6664715  48.8780899  13.9472589  22.9418964  50.6236229
  13.5112944  23.2236671  51.4900169  14.1803722  21.6001797  50.2472496
  14.5862036  21.5404110  49.2373848  15.1430941  20.9000034  51.2276649
  14.7558384  21.0306587  52.2381439  15.0509129  19.8289299  51.0476494
  16.6590557  21.1459026  51.1329422  17.1759930  22.1961021  51.9659271
  16.4378738  22.6315937  52.6231422  18.5527630  22.4782047  51.9508705
  18.9134941  23.1574459  52.7090988  19.3278561  21.8616638  50.9482956
  20.6026897  22.1669655  50.8899384  21.1315022  21.4027557  50.6492310
  18.7841187  20.9423904  50.0030251  19.3289928  20.5078831  49.1779709
  17.4050541  20.5246220  50.1156006  16.9608059  19.8068962  49.4418716
  12.7807398  21.0089321  50.2712669  11.8720751  21.4790363  51.0262299
  12.4353638  20.1025887  49.3760529  13.0900755  19.9215126  48.6286125
  11.0350790  19.5152874  49.1415100  10.4269199  19.7305965  50.0200844
  10.4381304  20.1802120  47.8671379  11.1782951  20.0955544  47.0714722
   9.5792065  19.6221333  47.4944382  10.0576992  21.6457787  47.9591064
  10.8682413  22.2483025  48.3690910   9.6721840  22.1152916  46.5374069
  10.4529037  21.8370514  45.8294792   8.8583288  21.5723724  46.0568008
   9.4285069  23.1776314  46.5248642   8.7987070  21.7794323  48.7729912
   7.9348583  21.1853085  48.4748726   9.1350765  21.5687637  49.7881622
   8.4544983  22.8136559  48.7747536  11.0624113  17.9832802  48.9165993
  12.1668539  17.3726482  48.8443604   9.8847103  17.3060684  48.8930893
   9.0253468  17.8236599  48.7760582   9.6650114  15.8460503  48.6308746
   8.7245550  15.5281506  49.0809669   9.7082720  15.5366163  47.1354752
  10.6477098  15.8643618  46.6903458   9.6461201  14.4508467  47.0623970
   8.6592464  16.3325996  46.4224739   8.5489082  17.3088284  46.8946037
   9.0277901  16.2642193  45.3989525   7.2662144  15.6662807  46.3759956
   6.9050393  14.8551092  47.2617607   6.4789438  16.0003147  45.4926300
  10.6566992  15.0340166  49.4258842  10.7790155  15.2036428  50.6341476
  11.3010635  14.0130835  48.8741493  11.0723104  13.7029743  47.9405518
  12.2316504  13.1254921  49.7106323  11.6684780  12.7728920  50.5746994
  12.7089262  11.8747454  48.9148293  13.2736483  12.1444445  48.0223885
  13.4240713  11.3057652  49.5089111  11.5015812  10.9618959  48.5945854
  11.0690117  10.6991053  49.5599480  10.7573853  11.5295572  48.0359840
  11.9339905   9.7979660  47.7167778  12.3192682  10.2661200  46.8109665
  12.8337393   9.3502483  48.1387978  10.7774391   8.8638935  47.4187469
  10.4188404   8.2124786  48.2157211  10.0128660   9.5559216  47.0657272
  11.2046661   7.8753414  46.3895187  10.5131683   7.1501865  46.2627068
  11.4156218   8.3838549  45.5427475  12.0588970   7.4381428  46.7045555
  13.4551811  13.9601851  50.2024498  14.1930094  13.5366240  51.1569824
  13.8102865  15.1582470  49.7409515  13.2779131  15.6277380  49.0224419
  14.9994707  15.9948034  50.1535187  15.8070097  15.3383789  50.4776917
  15.5402956  16.8206997  48.9519691  14.8479719  17.4956017  48.4486847
  16.3900185  17.4310093  49.2578850  15.9744034  16.1917782  48.1747208
  14.6408644  17.0270386  51.3179512  15.4980249  17.6498928  51.9200134
  13.3465261  17.1042995  51.7216911  12.6157846  16.6396847  51.2018394
  12.8328180  17.8744373  52.9506302  12.9598665  18.9348392  52.7326698
  11.3037043  17.7103539  52.9598045  10.9369411  17.6838226  51.9337044
  10.9165382  16.4216957  53.6624641  11.5978966  15.6269808  53.3587036
  10.9250393  16.5459671  54.7453232   9.9458332  16.1188526  53.2698746
  10.5183039  18.8537445  53.6968384  10.9201469  18.9258709  54.7074928
  10.7249050  19.7907848  53.1797485   9.4648266  18.6899662  53.9236946
  13.4815178  17.5439262  54.3102684  13.5011730  18.3787785  55.2072830
  14.2804842  16.4550152  54.3159027  14.3147554  15.9683800  53.4315300
  15.1524944  15.9060793  55.3906479  14.6419191  16.0966797  56.3346176
  15.5234470  14.4320068  55.0994148  16.0821247  13.9166813  55.8807068
  14.1908970  13.6749220  55.0524979  13.7772779  13.6507511  56.0606842
  13.4671001  14.1410789  54.3839798  14.3155966  12.6549435  54.6889114
  16.2877026  14.2350426  53.7506065  17.2813301  14.6826220  53.7725601
  16.4854794  13.1829433  53.5454903  15.6276808  14.6680593  52.9989624
  16.5012932  16.7193642  55.4723167  17.3113213  16.5250626  56.4102440
  16.7097569  17.6797295  54.5354500  16.0971642  17.7612953  53.7365913
  17.9146080  18.5908813  54.4244537  18.6411552  18.1980839  55.1357460
  18.5891323  18.5488968  53.0698738  17.8770981  18.8751659  52.3118134
  19.4579849  19.2069607  53.0820999  19.2506886  17.1526508  52.7269440
  18.5303497  16.3368015  52.7869949  19.5544033  17.1668797  51.1774139
  19.9007454  16.1552029  50.9660873  18.6176128  17.3953991  50.6691742
  20.3485413  17.9074764  51.0827408  20.5479164  16.8551502  53.5136909
  21.1017323  16.0275669  53.0704231  21.1912975  17.7326965  53.5775299
  20.2371902  16.6055660  54.5282135  17.6501865  19.9924984  54.8938255
  18.5422554  20.8634033  54.8633194  16.4189301  20.3894596  55.2853661
  15.7049389  19.6782436  55.3524170  16.0313892  21.8200436  55.6010551
  16.0939255  22.3856468  54.6713867  14.6100388  21.8539677  56.0494041
  14.4339981  22.9013023  56.2947655  13.9687843  21.6042480  55.2041054
  14.2826796  20.9453030  57.1856689  14.3141890  19.8805256  56.9546776
  14.9919119  21.0996494  57.9988556  12.9212379  21.3337078  57.5624504
  12.7488909  22.3945751  57.7439919  12.1676083  21.1104641  56.8072662
  12.6088142  20.6769199  58.8187904  12.5883665  21.3194542  59.5977821
  12.3222485  19.3911648  59.0922928  12.2152262  18.5084362  58.1114197
  12.3688135  18.8326111  57.1672668  12.0386963  17.5370140  58.3241997
  12.0650301  18.8058224  60.2375793  11.6588688  17.8915310  60.3761826
  12.0313015  19.3760242  61.0705452  17.0370293  22.4659042  56.5929565
  17.4300251  21.8070583  57.5651131  17.4924488  23.7228584  56.4091377
  17.1807899  24.5784035  55.2571793  16.1374702  24.8925514  55.2870865
  17.2583141  24.0768642  54.2925301  18.2301102  25.7248268  55.2049789
  18.0147495  26.6798573  54.7257767  19.0481739  25.3169422  54.6112518
  18.6223602  25.8976192  56.6495934  18.0153618  26.6265717  57.1865082
  19.6521645  26.2546406  56.6375504  18.4880924  24.4955807  57.2583237
  19.4638863  24.0121231  57.3051453  18.0631790  24.4643288  58.7791061
  18.9200840  24.4663258  59.6540451  16.7349281  24.4760494  59.0270882
  16.0159855  24.4805679  58.3177223  16.2390308  24.3470898  60.4315605
  16.6726360  25.2449570  60.8719330  14.6843910  24.5043793  60.3523445
  14.1547670  23.6411343  59.9493446  14.3610935  24.6637077  61.3810272
  14.2010860  25.5932503  59.4095306  13.7692909  25.2442112  58.2700424
  14.5772829  26.7337894  59.7124977  16.6454353  23.0581627  61.2096634
  16.8700638  23.1255188  62.4225044  16.9517345  21.9499989  60.5257835
  16.7961502  22.0514545  59.5330086  17.5704575  20.7330418  60.9554520
  17.1283703  20.5229034  61.9293633  17.2666607  19.5840263  60.0024719
  17.3270073  19.9969006  58.9954987  18.0717812  18.8519478  60.0652580
  15.8748875  18.8863411  60.1830063  15.0461874  19.5795002  60.0384789
  15.5106802  17.8158035  59.2049599  16.3543835  17.1273575  59.2530251
  14.6865911  17.1837978  59.5359421  15.3557348  18.1776695  58.1885223
  15.9248924  18.2081223  61.5856438  15.1690273  17.4326687  61.7099266
  16.8910942  17.7207623  61.7161598  15.7047720  18.9256210  62.3761101
  19.0373459  20.7955990  61.2152367  19.5129871  19.9922619  62.0069122
  19.7731514  21.8109093  60.7474937  19.3823280  22.6539345  60.3516808
  21.2513752  21.8761311  60.9323540  21.6208725  21.0861626  60.2785034
  21.7374725  23.1740856  60.2798500  21.3620663  23.2243557  59.2577705
  21.3298588  24.0030365  60.8584633  23.1143970  23.2576332  60.2022400
  23.2294254  22.8486710  59.3413582  21.7255974  21.7174835  62.3215790
  22.7566624  21.0611820  62.5192947  20.9399338  22.2204018  63.2968292
  20.1959324  22.8747082  63.1007538  21.2831116  22.0852413  64.7113342
  22.3537235  22.2733574  64.7919693  20.4924450  23.0788898  65.5426559
  20.5669804  24.0889721  65.1398163  19.4276981  22.8459682  65.5298309
  20.6687431  23.1719189  67.0695114  20.2095757  22.2825756  67.5011749
  22.0848637  23.3200340  67.6136398  22.1608677  23.3893337  68.6987839
  22.5872021  22.3741989  67.4107742  22.5153542  24.2463856  67.2333069
  19.9471016  24.4706955  67.6526184  20.2880230  25.3108234  67.0475922
  18.8704681  24.5422440  67.4982224  20.0415096  24.5907269  68.7318726
  21.1957989  20.6199913  65.3476181  22.0070839  20.2178936  66.1890106
  20.2940483  19.7947941  64.7676315  19.7671051  20.1920891  64.0030441
  20.0622292  18.3547764  64.9560852  20.2827892  18.0829391  65.9883423
  18.5127487  18.0330181  64.6976776  18.3461037  18.4144135  63.6902695
  18.1391087  16.5068111  64.6628494  17.0614910  16.3487129  64.7058029
  18.5388641  16.0894451  63.7386703  18.4238224  15.9522038  65.5569687
  17.5818043  18.8369865  65.4758606  17.6298370  19.7637615  65.2301331
  20.9704990  17.5021267  64.1109924  21.4569855  16.4351902  64.4666138
  21.2431927  17.9842739  62.9131165  20.7238941  18.7999535  62.6214027
  22.1969070  17.3255825  62.0142174  21.8502598  16.2931728  61.9687386
  22.1969547  18.0475101  60.5102615  21.1990528  18.2771530  60.1366882
  22.7883987  18.9592781  60.5937767  23.0273457  17.1028214  59.6379623
  24.0772991  17.1711407  59.9226265  22.8465195  16.0410290  59.8052979
  22.8845577  17.3712177  58.1933174  21.9803753  16.9450054  57.7586937
  22.8438931  18.4526520  58.0631371  24.1361599  16.9607029  57.4257164
  24.9947071  17.5145760  57.8054886  24.4133358  15.9280891  57.6378059
  23.9391613  17.1199589  55.9794502  24.8238316  17.0540638  55.4966202
  23.3347530  16.4277420  55.5603714  23.5438938  18.0014763  55.6848450
  23.6263885  17.3522224  62.6024055  24.4672794  16.4803009  62.2886009
  23.9529209  18.3421135  63.4477196  23.2977753  19.0841331  63.6484528
  25.1458893  18.4185181  64.2750015  25.9027367  18.4220600  63.4906082
  25.3043652  19.7860031  64.9900284  24.6682491  20.5260715  64.5044785
  24.7982178  19.7349434  65.9540329  26.7347393  20.3393173  64.9317703
  27.0493393  21.3716888  64.4484863  27.6847057  19.6094818  65.4638214
  27.5135651  18.7008190  65.8702011  28.6136875  20.0054073  65.4821472
  25.4373169  17.2231560  65.1487808  26.6389542  17.0399208  65.4615402
  24.4877529  16.4295959  65.6867218  23.5483093  16.5281391  65.3291779
  24.7713528  15.3836880  66.7414474  25.5208683  15.8470459  67.3830261
  23.5469093  15.0740614  67.6012802  23.6779461  14.3086128  68.3661423
  22.8414307  16.3719692  68.1168060  23.5242252  16.8625526  68.8105087
  22.4644146  16.9733791  67.2896042  22.0076351  16.1319389  68.7765579
  22.6019192  14.5195026  66.6771622  21.7201691  14.4551439  67.0513000
  25.3206348  14.1015596  66.0998383  25.1244526  13.0286999  66.6090393
  26.0639515  14.1657238  64.9889526  26.3896370  15.0871201  64.7338867
  26.9471188  13.1189976  64.4380417  26.6713142  12.0938244  64.6851349
  26.9033966  13.2908268  62.9293251  25.8739147  13.2948790  62.5712013
  27.4961510  14.1931295  62.7790184  27.4993343  12.0856390  62.2569084
  27.6204224  12.3870182  61.2164230  28.5459118  11.9500189  62.5296402
  26.7143097  10.7583122  62.1754456  27.3973064   9.7726622  61.8893776
  25.5933132  10.6738873  62.6811600  28.3601379  13.3169298  64.9389725
  29.0953026  12.2870684  65.1002121  28.6997089  14.5727100  65.2911987
  28.0567436  15.3300447  65.1091537  30.0805817  14.8782673  65.6509781
  30.7220688  14.0430098  65.3700180  30.5716724  16.2591991  64.9788513
  30.2523079  17.0328007  65.6771698  31.6490669  16.1671944  64.8415451
  29.9843102  16.6040821  63.6451225  28.9127274  16.6993389  63.8204460
  30.5154018  17.8727989  63.1054268  31.6010380  17.7865295  63.1506691
  30.2736721  18.0236626  62.0533295  30.2237682  18.7291718  63.7134399
  30.1566086  15.5508299  62.5902977  29.7676487  14.5681334  62.8569756
  29.6078281  15.8572626  61.6997681  31.2206554  15.4715204  62.3675613
  30.2439079  14.9836950  67.2075958  31.3283997  14.6474161  67.6815338
  29.3199043  15.1398630  68.0097885  21.6819038  21.4988556  26.9217434
  21.0854130  20.6038094  26.7585869  22.7197952  21.5132351  26.5960102
  21.2562370  22.5802898  27.6421452  22.0685883  23.8130779  27.7603798
  21.5720463  24.7287884  28.3070126  23.2296391  23.8378277  27.2496529
  20.0148277  22.5597496  28.3529530  18.7900639  23.0117264  27.7582703
  18.0261536  23.1807728  28.5270691  18.1267757  22.0724125  26.7802677
  18.4391861  21.0593376  27.0244122  17.2284565  22.3110523  25.8343105
  16.8900051  23.7148514  25.6758957  15.9915686  23.9399338  25.1044464
  17.6013565  24.7316418  26.1666946  17.3547459  25.7898941  26.1136856
  18.8645458  24.4165039  26.9745541  19.6994133  24.3550701  26.2657413
  19.1239681  25.4186039  27.8980846  19.9908161  25.1806240  28.2704697
  16.4888897  21.2521667  25.1232586  16.7744331  20.0847073  25.2121105
  15.6066456  21.5633392  24.2559681  43.9080849  18.8009052  35.1260223
  44.1938896  18.1439590  34.3073235  44.6018524  19.5663548  35.4670525
  42.7196465  18.7104263  35.7751694  42.3095398  19.7342281  36.8251877
  43.0417938  20.7109547  37.0419121  41.4967270  19.5219574  37.7453728
  41.7354774  17.7867012  35.4046669  40.8294029  18.0709305  34.3446045
  40.2603073  17.1635246  34.1080933  41.6250916  18.4660416  33.0976677
  42.1135864  17.6000595  32.6561012  42.0070076  19.7418156  32.8178635
  41.3365898  20.7911816  33.5328026  41.5422630  21.8183422  33.2377815
  40.3017311  20.5758686  34.4103622  39.7683372  21.4561119  34.7627640
  39.7817345  19.2139435  34.8223763  39.8754158  19.2416458  35.9149170
  38.4480629  19.0008125  34.4012680  37.8197823  18.6302872  35.0452461
  43.0531273  19.9608459  31.7852917  43.6889839  19.0303955  31.3203621
  43.5065231  21.0940094  31.5403938  23.9263096  18.0758533  52.0405045
  23.8497505  19.1071625  52.3782463  24.4426365  17.3497715  52.6647949
  23.5738926  17.9355068  50.6968079  22.7765789  18.9694347  49.8738327
  22.3477192  19.9853172  50.4174271  22.6498356  18.8903141  48.6405296
  23.8766918  16.7759953  49.9765396  24.8259029  15.7376356  50.2993050
  24.9661751  15.0650415  49.4442444  24.3558636  14.9530029  51.5170097
  23.2965126  14.7054300  51.5135384  25.2576771  14.4572954  52.4078178
  26.6290836  14.8328457  52.3583565  27.2394028  14.3244858  53.1023178
  27.1922684  15.6737661  51.4754486  28.2593384  15.7867994  51.2962418
  26.2979889  16.3873940  50.4775620  26.1946068  17.4064465  50.8700371
  26.8397675  16.4329739  49.0604706  26.7589283  17.3901157  48.9053078
  24.7650757  13.4716930  53.4023056  25.5067253  12.9935160  54.1758308
  23.6226044  13.0161390  53.2569733  85.2418823  60.2628059  18.1507225
  67.7694778  57.4381485   8.4306278  41.8895340  45.5728378  57.1012497
  32.9902229  38.4156265  75.6455841  39.7406960  64.8964157  81.6813583
   8.6263475  46.3388176  38.0517273  32.6475945  12.9057789  66.9916229
  50.6592407  28.9707699  52.8428497  81.4803696  60.8789864  48.4907227
  70.3566132  48.1069145  61.6333771  70.6767960  47.5576782  60.9177971
  70.3667221  47.5326118  62.3990822  77.0967331  58.7247581  51.8449554
  76.9545898  59.5998802  51.4841385  77.0254898  58.8418045  52.7922974
  62.6473274  56.7152252  31.7718697  62.1066284  56.2230644  32.3896484
  62.4277420  57.6318207  31.9387970  16.4277020  54.7691727  27.0452518
  16.4899750  55.6918869  27.2921410  17.1636467  54.6305542  26.4490948
  29.8500137   0.7961950  40.0658684  29.0221920   1.2764740  40.0824585
  30.4386749   1.3511460  39.5542641  66.2656021  65.8471985  54.0868988
  66.1575851  66.2257538  54.9594002  65.3785553  65.8139572  53.7287483
   5.8971004   4.9955630  73.1361237   5.4953976   5.6298838  73.7298431
   6.1899705   4.2852526  73.7070160  13.9683657  61.3287544  21.9917927
  13.6285200  62.0278282  21.4331894  13.1897755  60.8515739  22.2787189
  46.5664330  54.5198135  42.4850006  46.7767258  55.4204330  42.7317581
  45.9480591  54.2263184  43.1541061  40.2117615   1.1571656  71.5694962
  40.7063408   0.7875384  70.8380585  40.2886200   2.1045201  71.4561615
  49.1999207  62.7749176  58.0353775  48.3912811  63.2481880  57.8395424
  49.6400185  62.6923981  57.1893654  16.6179047  11.3449764  70.7744217
  17.5079231  11.0572271  70.9776459  16.5372715  12.1962032  71.2046967
  24.6089706  14.8510666  14.0341625  24.2108040  14.0166082  14.2819033
  24.6623402  15.3435154  14.8532343  79.4263382  25.6993065  52.5586662
  79.6721649  25.6525269  51.6347542  78.6322556  25.1686401  52.6223907
  52.4554672   4.8521090  35.5458031  52.3832893   4.2806087  34.7813377
  53.3876076   5.0628085  35.6001740  34.7723007  71.6610413  11.8426008
  35.0950432  70.8397064  12.2133808  33.8668060  71.4729309  11.5957756
  28.8466721  58.9489479  59.1020088  28.6460018  59.5094719  58.3524933
  28.7539768  59.5232201  59.8621750  48.6860237  60.4090805  18.1692753
  48.3844528  61.2803459  18.4265327  49.4345779  60.2364273  18.7403164
  27.4587650   7.7366710  71.9333267  28.1111069   7.2110100  72.3963242
  27.2733479   7.2404799  71.1360550  69.4696884  27.8491001  21.6117706
  69.1370850  28.2027912  20.7868404  70.2654800  27.3771152  21.3664665
  47.1859283  26.2561092  34.3332100  47.5661125  25.4085064  34.1024208
  47.9061737  26.8779430  34.2292938  36.7747841  52.0563469  24.9467926
  37.4157219  52.4127045  25.5619659  35.9261742  52.2908134  25.3224487
  53.1013145  23.2523518  29.5058956  52.5847549  23.2388096  28.7001572
  53.5552177  24.0948372  29.4852715  55.4056816  62.5444756  77.8328857
  55.9859810  61.7975006  77.9795609  55.8589973  63.2832909  78.2389603
  35.8504028   5.5052381  33.0516014  35.7512054   4.8809667  33.7704048
  35.6654205   6.3571162  33.4469719  51.0854721   7.9590654  49.1064873
  50.8109665   7.0540705  49.2543488  50.3733482   8.3450670  48.5964699
   3.4280481  38.7109261  62.6430969   4.3596649  38.6235237  62.4413948
   3.3086936  39.6431732  62.8244896  63.8933487  56.3993797  86.0903625
  64.3510437  57.2297859  85.9593124  64.5747986  55.7937202  86.3819733
  15.5122147  18.9215279  22.9261341  15.8916731  18.1002369  23.2387409
  15.7362623  19.5613918  23.6018620  34.9158592  42.8473282  70.0384827
  35.6879311  42.4221077  70.4117432  34.3302155  42.1247215  69.8124466
   3.5225277  13.1247597  64.4659042   3.0272837  12.4776325  63.9637222
   2.8770156  13.5165291  65.0541763  83.2025375  68.3251114  82.9718552
  82.4918213  68.5110168  83.5854950  82.7642746  67.9718933  82.1976547
  83.6114960  59.7113533   8.2041245  82.8392105  60.1601753   7.8600769
  84.0979691  59.4407234   7.4254503  56.4608269  53.0602913  18.6044388
  56.3137245  52.5347672  17.8180447  55.5820580  53.2563248  18.9293518
  75.6850662  52.3991280  12.5332022  75.1945572  51.6012268  12.7306585
  75.0573578  53.1075935  12.6756582  29.5362816  35.5460625  64.6529388
  29.7390289  36.3754082  64.2201462  29.6487885  34.8854446  63.9694481
  15.0300283  50.3266449  65.4190140  15.8222361  50.7514496  65.0901031
  14.4441423  50.2940369  64.6627655   3.3124080  56.9945946  58.5836220
   3.0951109  56.3849525  57.8783913   2.5478725  57.5667419  58.6496811
   8.1795645  25.3753242  74.8183289   8.7732725  25.1798973  74.0933762
   8.7570381  25.6184349  75.5419617  43.8313408  29.3081188  79.0763245
  44.6616020  29.0511684  78.6752396  43.9862823  30.1954269  79.4002151
  63.5102234  10.2775011  78.2651138  62.9847450  10.9379473  77.8135452
  62.9754066   9.4842215  78.2349396  60.2754173  31.2950993  22.7328987
  61.0240784  30.6987381  22.7425861  60.4890404  31.9367046  22.0554466
  57.6212044  29.4007492   3.6445425  57.5993919  28.7940159   2.9045210
  58.2911911  30.0423527   3.4085522  42.5189629  44.2630463   3.4224610
  42.7712784  44.0789642   4.3272715  42.1969337  45.1642342   3.4422257
  68.0695114  67.6318436   6.8274927  68.7891083  67.0202942   6.6712070
  68.4796371  68.4962997   6.8001537  11.9639349  62.4837379  19.0326805
  12.3643847  63.3521919  18.9918861  12.6682453  61.8834953  18.7879677
  84.5619049  53.6848068  80.8172989  85.1074219  52.9913826  80.4460754
  84.3127213  54.2219925  80.0652542   4.2620707   1.9435015  28.9853039
   3.4798143   2.4596088  29.1800861   4.6158500   1.7114589  29.8439236
  22.8805332  35.6735573  16.7379246  23.4713287  36.0019035  17.4156990
  22.0300655  36.0546188  16.9563923  31.4784756  17.9886532  67.8323364
  32.0911140  17.3468742  68.1915359  32.0354156  18.6330795  67.3955688
  84.9911270   7.2866187  31.2770290  84.5703506   7.7421517  32.0061874
  85.0723572   7.9520421  30.5937672  26.1524391   3.9175048  28.4794750
  26.8345947   4.4950023  28.8220997  25.3459740   4.2296634  28.8898449
  53.9914207  43.9978981  82.5492249  53.7093201  43.1668472  82.9313278
  54.3397408  43.7604065  81.6898575  66.1971359  45.3316841  28.6884022
  66.6457520  46.1739159  28.6133919  65.5901489  45.4478912  29.4193535
  32.2639618  41.8915977  17.8655853  33.0611954  41.7208633  17.3640881
  32.2610779  41.2193756  18.5470104  24.0652485   8.0553732  84.5559998
  23.8119583   7.3596807  83.9493027  23.6324234   8.8386726  84.2163925
  60.9260063  48.3270493  44.8516922  60.5014076  47.4748192  44.9499321
  60.2967987  48.8525887  44.3575897  21.8696346  58.0290527  57.6766510
  21.5731621  57.5782166  58.4672737  21.5321674  58.9200974  57.7682343
  25.5839005  55.5764618  24.2116852  24.9377308  54.8937416  24.3922176
  26.3048496  55.3888512  24.8127365  22.3097305  17.9196701  73.2602234
  22.1283550  18.1050053  72.3388214  22.9528427  17.2109928  73.2398987
  80.8277893   1.6548356   4.3377929  81.5120544   1.0195422   4.1270494
  80.8737640   1.7496320   5.2891769  59.8529320  61.3930168  25.5678959
  58.9685097  61.6876106  25.7852421  60.2317429  62.1184006  25.0713520
  58.4880219  12.3313608  29.7917309  58.8061218  12.2355223  28.8940353
  57.7159424  11.7671270  29.8337669  76.1905823  26.3777122  81.3965530
  76.7264709  26.9784508  80.8787079  76.0259476  25.6384144  80.8112640
  23.2336559  56.2805557  89.1791153  24.1602802  56.3693657  88.9561462
  22.8488674  55.8285904  88.4281845  54.8054543  40.0758629   3.5295069
  55.4340935  40.6465073   3.9715564  55.3346939  39.5665436   2.9157262
  58.8796692  37.7770309  75.0600128  59.2898712  36.9828186  74.7176743
  59.5084801  38.4729080  74.8687439  66.8495102  63.1962395  74.1255798
  66.4918747  62.3232307  74.2874146  67.7774963  63.0453720  73.9458313
  85.1481171   2.2135336  17.4115257  84.5523224   2.5979669  16.7685051
  84.8316650   1.3173730  17.5254936  70.6553879  54.6282082  76.7734604
  70.9935379  55.4556923  76.4311752  69.8115234  54.8571167  77.1629868
  75.1143799  36.7865486  56.7566681  74.7808151  36.6607475  57.6450043
  74.6569595  36.1282158  56.2336044  68.1324158  49.6850662  21.3774624
  67.7823029  48.9100914  21.8168507  68.1640320  49.4420013  20.4521770
   9.0287409  44.8736610  77.7078552   9.4115677  44.3455124  78.4083862
   9.7385283  44.9828072  77.0749893  67.7081375  42.1179237  31.7069111
  67.2081680  41.8652496  30.9307575  68.4390793  42.6321297  31.3640480
  79.5830841  36.3410797  48.6219254  80.5110245  36.3918686  48.8512344
  79.2209396  35.6968918  49.2302895   6.5942488  25.6753044  52.6484261
   5.6770658  25.4105835  52.7186508   6.5585871  26.6010418  52.4076576
  10.8269482  22.8734779  53.0842209  10.1988192  23.3666801  52.5565491
  11.2067575  22.2404575  52.4749069   5.7921281  26.6600361  77.6293488
   6.0790958  26.0836620  78.3376389   6.5979667  27.0651932  77.3088760
  40.6799431  30.8436756  63.4475975  41.1025200  31.0728512  64.2753296
  39.7459564  30.9745979  63.6111946  64.3491211  23.2487831  62.6003532
  63.5719261  22.7171516  62.4284058  64.8881836  22.7059040  63.1756172
  70.3824692  57.6895790   7.6424303  70.2929535  58.6331367   7.7762828
  71.2559586  57.4823608   7.9745507  25.8356228  31.8104668  73.6533890
  26.4776669  32.0156441  74.3330307  25.1095505  31.4024315  74.1251526
  65.1378632  52.5796165  38.3690643  65.6214447  53.3570557  38.0898247
  64.2437439  52.8912544  38.5092888  61.3249664  65.4170456  78.2981796
  60.4012260  65.1682892  78.2657318  61.3133163  66.3691025  78.3966293
  38.2187347  59.8561440  77.5669632  39.0320473  59.4790688  77.9024811
  37.7832451  59.1290245  77.1221313  78.6292725  46.6108322  68.6378174
  78.3302612  47.3147507  69.2134247  77.9092178  46.4845352  68.0199203
  84.3782120  53.5831070  69.7539062  84.9883499  53.5024223  69.0207901
  84.0370865  52.6977119  69.8801651  76.1553040  65.8977814   8.0739422
  75.6839447  66.3364029   8.7822275  76.9795837  66.3788757   8.0008869
  13.0206041  64.4090576  58.3524323  12.7256451  63.8625488  59.0808296
  12.7677851  65.2978516  58.6021576  53.9079208  43.1364403   8.3776674
  53.5512733  43.9787292   8.6597805  53.2339783  42.7708130   7.8046517
  63.2447052  21.9678078  88.7477417  63.3576813  21.4371605  89.5363388
  63.5066719  22.8494892  89.0127792  85.9131241  14.9325695  87.4406281
  85.8684845  14.6258278  88.3462448  86.7680435  15.3578539  87.3736649
  52.6951103  20.0747337   9.2529602  51.9864960  20.6305237   8.9286213
  52.5096130  19.2108727   8.8847656  43.2836266  48.5937958  37.3027725
  42.9954376  48.5990791  36.3900032  42.4758453  48.5043640  37.8084641
  22.2616768   5.1447320  53.4384384  22.1176033   6.0883932  53.3678818
  21.4182129   4.7557192  53.2072029   6.9685068   8.4159517   3.3780246
   6.9582038   9.2955961   3.7553186   7.6035199   8.4691172   2.6637671
  61.2323608  45.5469437  28.3032227  61.9843597  46.0763817  28.5685902
  60.8866081  45.1940804  29.1230869  38.1606445  44.1237221  71.7270050
  37.9580040  44.4318161  72.6103210  37.6936188  44.7277031  71.1496582
  22.6921482  14.7818918  25.0253220  22.3187332  15.6548567  25.1466751
  23.2420425  14.8628187  24.2460289  21.1305523  11.5399160  23.8052692
  21.6893787  11.2626104  24.5312500  20.2623730  11.6396313  24.1958504
  41.2451935  19.6868134  78.6312485  41.6992722  19.0731068  79.2086716
  40.3429756  19.3681564  78.6050262  65.1341019   3.5760937  63.2995224
  65.7229538   4.1187515  63.8239403  64.4922562   4.1918745  62.9458542
  35.5725746  48.1549416  12.5757942  36.4654579  48.4871826  12.6685534
  35.3668213  48.2766190  11.6489220  19.6395798   8.9491663  79.3592682
  20.2053280   9.4627399  78.7827225  18.9878235   8.5635252  78.7738419
  35.4513512  56.6133080  69.0453339  35.8681908  57.3063889  68.5333557
  34.7642517  57.0606537  69.5392990  24.7248898  71.2003555  41.8527641
  25.0787582  71.7396927  41.1455727  23.9538345  70.7807617  41.4711227
  47.2693024  32.8237495  78.5098114  47.5558205  32.9207420  77.6016617
  48.0818405  32.7775116  79.0136719  76.9034042  67.9808350  31.7179947
  76.1584625  67.8994827  32.3135452  76.5139084  68.2300339  30.8798847
  46.2680969  13.8589773   6.9464278  46.1455498  14.7254753   6.5586185
  46.6061134  14.0351686   7.8244553  58.1174126  62.5714493  75.5927048
  58.5206490  62.6626663  76.4560165  57.7400513  61.6917801  75.5963516
  86.8312683  66.0175629  29.7675133  86.6284790  66.9525833  29.7383099
  86.1044540  65.6299667  30.2550926  77.0528183  21.5523376  51.9320488
  77.5248871  21.4755764  51.1028976  76.6896820  20.6795864  52.0826035
  78.2807846  12.5242100  47.8640709  79.1668320  12.3060160  48.1530991
  77.7474365  12.4583540  48.6561775  67.5691757  34.7432785  59.3717232
  67.8062439  33.8185844  59.3012581  67.8500366  35.1265373  58.5407829
  43.1621933  10.9156837  61.8644524  42.3702278  10.4960527  61.5283966
  43.8629456  10.2920837  61.6739197  53.2375221  23.7043858  32.6205978
  52.7238617  23.4261570  33.3788681  52.7323875  24.4226646  32.2396240
  41.7438583  23.2642059   9.2213039  41.3838730  24.0937710   8.9075079
  42.6641312  23.2879982   8.9590750  17.6020355   6.9242868  13.3906393
  17.5819855   7.2278032  12.4830561  16.9206638   6.2533984  13.4339361
  68.0873489  64.3589096  27.7795029  68.3660431  65.2695312  27.6829166
  67.1392517  64.4101791  27.9007759  69.6882782  49.3714523   6.0635929
  69.5678558  49.6966248   6.9557776  69.9679718  48.4628983   6.1755190
  64.3336105  40.5921288  21.9552231  65.0501328  41.0366821  21.5022373
  64.6470718  39.6960526  22.0777760  64.6161957  39.9284439  35.2183800
  65.5283737  40.0451164  35.4839973  64.1711044  40.7127571  35.5392761
  55.4753723  53.9249039  56.3193398  55.4726257  54.8787270  56.2390480
  56.3384933  53.7171555  56.6772385  57.6504440  32.1595306  77.1704559
  57.9669304  31.7089500  76.3874817  57.4272270  33.0393829  76.8666992
  37.9865532  37.8333931  75.5513916  38.4080658  38.6783943  75.3947525
  37.8744431  37.7940674  76.5011902  70.1170120  36.4958153  33.0810623
  69.6940994  37.3507576  33.0007629  70.8124619  36.6321068  33.7244911
  26.3128109  32.5007057   3.5999529  26.5338020  32.8610344   2.7411413
  25.7372646  31.7603073   3.4081552  28.8708897  63.6187210   7.8944249
  29.2670860  63.3502464   7.0654607  28.7923756  64.5701904   7.8253117
  10.9816532   0.5818619   6.3214450  10.7024565   0.3769827   7.2138042
  11.6854658  -0.0414712   6.1416225  61.1438065  31.6491222  86.2037888
  60.8873367  32.1714287  85.4437561  61.6200180  30.9057388  85.8338776
  31.3760223  40.6637955  61.6058922  31.8020439  41.4495392  61.2633400
  31.0022392  40.2382736  60.8342361  52.9151306  29.3354931  15.5432472
  52.6138878  28.4406757  15.7006826  53.4964333  29.5255566  16.2795849
  71.5489502  23.1821690  45.3287315  72.2898331  22.5861797  45.4388466
  70.9460907  22.9477749  46.0343132  60.9616013   1.5312216  22.8978481
  60.3847580   0.7988834  23.1150208  61.7927742   1.3148962  23.3204384
  36.8016891  59.3821411  53.7560463  37.5452347  59.3531342  54.3581505
  36.1715965  59.9637642  54.1814079   5.8813591   9.1375666   8.2013273
   6.5429735   9.7990875   8.4035349   5.3102608   9.5585785   7.5588107
  86.1269073  45.8801575  60.2504692  86.5547409  46.5335236  60.8039131
  86.6284027  45.8914299  59.4352379  45.5516663  67.9580154  60.4866104
  45.5804977  67.0054016  60.3976250  44.6322975  68.1539993  60.6671257
  57.4149895  29.1046696  46.3249550  56.8124237  29.8432369  46.4124947
  58.2844315  29.4912357  46.4292412   8.8024406  68.5288544  62.4605370
   8.4877815  68.3086777  63.3373184   9.4427748  67.8469238  62.2576180
  65.0868988  53.4107704  11.7573881  64.3316116  53.8985558  11.4290047
  65.6566620  54.0791893  12.1379404   2.0811303  33.3492126  28.0524521
   2.5955107  33.0982285  27.2852154   1.9190316  34.2854156  27.9363327
  81.8597717  29.5796146  15.8463039  81.4234390  30.4163418  15.6858940
  81.2907562  29.1284428  16.4699192  83.5621796  68.2566071  33.2405510
  83.1417465  67.9122849  32.4525719  84.2735138  68.8062744  32.9117775
  38.2290192  70.8548508  52.3534126  37.5926895  70.2941971  51.9095879
  38.1892929  70.5829926  53.2703400   6.3402486   8.1510839  79.8386612
   5.8256841   8.9560652  79.7798309   7.2259998   8.4142151  79.5887833
  32.9087791   0.9669087  49.5140457  32.1775093   1.4936610  49.1915436
  33.6834717   1.5025190  49.3431473  45.9877014  68.3864594  29.6422062
  46.8632927  68.5597534  29.9879551  45.4016685  68.5503387  30.3810844
  81.1305313  30.8578587  23.2610073  81.4624939  30.1511345  22.7073174
  81.9096222  31.2128677  23.6890430  25.5036240   3.3787577  51.4939690
  25.2556210   3.4983008  50.5772133  26.4358692   3.5943370  51.5199623
  55.4923973  31.8437500  69.5465622  56.3765793  32.2052155  69.6081543
  54.9346313  32.6028290  69.3764725  38.5953865  65.0595245  86.7828979
  39.0740089  65.8126907  86.4366379  37.7249565  65.1279068  86.3905869
  65.6705246  49.8605003  37.0069962  66.0667114  49.0988617  37.4302902
  64.7899628  49.9102058  37.3789749  14.7375221  55.5929260   1.3386548
  15.4599094  54.9836121   1.1865855  14.4436159  55.3986168   2.2286522
  52.6108284  40.3832741  34.6680412  51.8812218  40.9600105  34.8944931
  52.5319328  39.6475410  35.2752495  13.6921368  19.2434940   8.6524963
  13.5409613  20.0036545   9.2142191  13.4790649  18.4913502   9.2048664
  56.7822189  47.9734726  43.2982140  56.7794571  47.5201225  44.1412430
  56.8179207  47.2712326  42.6487427  82.7508392  40.0920906  45.8403740
  83.0886917  40.0829086  44.9448318  83.3646164  40.6464462  46.3222504
   6.7664351  42.8863487  66.2543488   6.1735902  42.5514259  66.9271011
   7.3062162  42.1331978  66.0142899  80.3575897  70.1695557  62.8686562
  80.4201584  69.2195816  62.9679832  80.3612595  70.5048676  63.7651939
  55.4615326  23.1062431  55.2658958  55.8316498  22.5853386  54.5532265
  55.5390282  24.0118999  54.9658737  59.4863396  21.9793911   7.5879993
  59.5465126  22.8073425   8.0645590  58.7523270  22.1023159   6.9860439
  79.4857788  29.4167576  47.6753502  80.0611877  28.6700764  47.5092087
  79.2528458  29.7381077  46.8043098   1.1332048  70.1578140  18.3020687
   0.2651321  69.9533234  18.6497231   1.1245043  71.1070633  18.1792469
  53.4362068   9.3497753  61.7640038  54.2757339   9.2152128  62.2036781
  53.5694580   9.0027523  60.8819313  39.5454292   2.4467406  39.3420601
  39.1211777   3.3009219  39.2607193  38.8296661   1.8412254  39.5351143
  63.2564735  26.2145615  17.9656658  63.8633575  26.2044106  18.7058144
  63.8212852  26.2287064  17.1929951   9.7717810  50.4317551  61.0233459
   9.2416954  50.0296745  60.3351784   9.5417080  51.3603363  60.9911652
  32.2209778   3.5834785  22.2748299  32.2550392   4.4390807  22.7026329
  31.3390865   3.2592728  22.4575500  25.8808460  59.2054329  19.5659256
  26.3434010  58.7082634  20.2405357  26.3745461  59.0369110  18.7633724
  81.3154068  67.7730713   1.4003080  82.1813202  68.0042419   1.7364281
  81.1455994  68.4170456   0.7127825  30.0763435  12.9872084  85.3849106
  29.5958347  12.9554720  84.5576630  30.2770081  13.9147539  85.5099106
  54.7894859   2.2201245  26.9828930  55.5026894   1.6095040  26.7965794
  54.3557587   2.3464787  26.1390038  25.0260506  34.6420479  81.7628250
  25.8388767  34.9466896  82.1662292  24.5761528  35.4435959  81.4957123
   2.8344944  32.7069893  44.6477776   2.6629164  31.8696632  45.0786819
   2.1003778  33.2642212  44.9062271  23.3644943  41.4490585  70.5544357
  23.9573479  40.7242279  70.3560028  22.7200756  41.4319801  69.8468628
  41.8615227  49.8251686  66.8288727  41.4980049  50.6903076  67.0176086
  41.6238899  49.6593399  65.9165878  66.8714294  22.3804760  41.4057083
  66.2602005  22.1596375  40.7029572  67.7261734  22.4186230  40.9765282
  20.6435356  65.2887802  77.9409561  20.5410099  66.0998230  78.4388809
  21.5901566  65.1855469  77.8435822  34.7152824   7.2062216  15.7092409
  34.9408760   6.3120885  15.4526014  34.2190666   7.1043153  16.5214081
  55.6723404  12.9464197  55.7775536  55.8588791  12.0123615  55.8722649
  54.9980049  12.9884424  55.0995102  44.3911057  61.6496391   1.5640627
  45.2094612  61.2440262   1.8504289  44.0173912  62.0240669   2.3617926
  70.0248795  41.7570305   6.7505922  69.4826126  40.9883766   6.9276490
  70.7369080  41.4267731   6.2027054  65.2879257  19.7666798  79.3368454
  64.6764603  19.3083897  78.7603760  66.0226440  19.1613007  79.4364929
  78.9025116  55.6449890  13.9588442  78.5270615  54.7715759  14.0702591
  79.7247162  55.6164551  14.4481258  72.7868347  37.6879272  75.4391556
  72.0955353  37.9630318  76.0413589  72.5897751  38.1468620  74.6225891
  73.5339203   9.3261585  21.0421352  74.2700272   8.8248730  21.3929768
  72.7840118   9.0516815  21.5698986  30.7915668  56.5876961  44.8590240
  30.7898388  57.5448837  44.8628311  30.8288841  56.3445702  45.7840805
  10.2619896  58.3753624  56.7095985   9.5553818  57.7360382  56.6190300
  11.0597458  57.8776093  56.5305481  39.9420128  33.0153923  83.7642975
  39.0817146  33.4159431  83.8895264  39.7917824  32.0792465  83.8958206
  59.2335320  28.4467487   8.5102062  59.2814598  28.4074345   7.5550151
  60.1041107  28.1793995   8.8049059  65.9364853  34.3307800  61.5781097
  66.4056778  34.4807816  60.7573853  65.4234543  33.5384293  61.4193420
   8.1989651  57.5528984  64.6546936   7.9338751  57.4279518  65.5659256
   7.3756595  57.5785484  64.1671066  58.0275993  33.0954094  69.1972275
  58.1380119  34.0386620  69.3168793  58.6305656  32.8717079  68.4882660
  69.5340195  67.8371811   1.3401055  68.9420547  67.5594025   2.0391381
  68.9563065  68.0472488   0.6063824  24.5212364  30.0407543  75.1140137
  24.3425541  29.2847862  74.5547180  25.1017590  29.7024307  75.7957535
  62.7542114  28.8309002   1.5763642  62.7848587  28.2335358   2.3236594
  63.3273621  29.5558891   1.8256063  66.5739975  23.2183132  85.8652039
  66.6066132  23.8185692  85.1203079  67.1302719  23.6281757  86.5276184
  24.3940601  51.3247032  54.6581841  24.6520157  51.3868828  53.7384987
  24.5349121  52.2050819  55.0064964  85.2010117  17.0140724   0.9574993
  85.4551239  16.2399940   1.4599547  85.9945297  17.2631950   0.4836949
  28.2084160  46.4006958  21.9856472  28.1705971  46.3195686  22.9386539
  27.8307152  47.2611237  21.8033390  81.7081375  52.4164810   6.9444203
  81.4194565  52.0363579   7.7741203  82.6476746  52.5584068   7.0600195
   6.2957816  46.0803223  53.3979034   5.6570253  46.7914772  53.3481026
   5.7654476  45.2846832  53.4419365  22.5120926  65.1929016  53.5437241
  21.8986912  65.7237473  54.0518265  22.9933128  64.6889343  54.1999855
  83.7467041  34.5053139  39.7064857  83.6640701  35.1905975  40.3696518
  84.5161209  34.7575607  39.1959991  45.2085648   5.8047137  60.1362038
  44.8968239   6.0415564  61.0096779  44.4144745   5.7535620  59.6041946
  83.1709595  23.3922901  28.8146954  83.7948380  23.8906918  29.3425159
  83.6212082  23.2505589  27.9819775   3.5562723  15.0155716   8.0798445
   2.9155858  14.9866247   8.7904177   4.4000306  15.1101904   8.5218296
  36.7581062   7.0249367  81.6616135  35.8024673   7.0779977  81.6485291
  37.0496330   7.9320188  81.5697098  24.1772232  30.0824718  79.5833359
  24.1597786  29.6560726  80.4401398  25.1069355  30.1385651  79.3626022
  64.3168716  42.1508598  10.5420885  63.8005104  41.6003876   9.9533768
  64.3728027  42.9945984  10.0935259  31.4850426   8.4308605  74.3041840
  31.0875454   9.2886572  74.4538956  30.9312820   7.8217402  74.7926025
  18.5637798  14.6533298  18.3845882  18.8600044  15.1842289  19.1239319
  19.1526089  13.8986816  18.3804703  13.0338984  16.6002750  70.9544373
  12.4587717  17.3338318  70.7368240  13.7517281  16.6636353  70.3244019
  76.4346161  53.9215546  44.1172409  76.8705444  53.3317566  43.5021515
  75.5170822  53.9164276  43.8446045  76.7900162  62.5183334  16.5186062
  77.4707489  62.2806740  17.1481762  77.1204987  63.3113136  16.0964699
  16.4077053   3.8749800  61.7130013  16.6369781   4.6616564  61.2182236
  16.5352211   4.1223989  62.6288376  48.5905495  67.7139893  20.2820492
  47.9463577  67.7305298  19.5742531  49.2892609  67.1463394  19.9567719
  27.5002098  57.9848366  43.0183563  27.0551796  57.4017715  43.6333466
  27.8324032  57.4032249  42.3345375  48.4815712  16.2182293  67.6945343
  47.8926888  15.4737530  67.5712357  48.7972565  16.4222698  66.8142319
  81.5887527  19.6667480  32.3993835  81.8074036  18.7946587  32.7278442
  81.0402069  20.0499058  33.0838661  33.1465378  68.2080917  76.0398788
  32.3600159  67.6652527  75.9856033  33.8267136  67.6876602  75.6123886
  22.1684608  63.1143112  58.5907478  22.7558804  63.8435936  58.7890244
  21.4234047  63.5204811  58.1478615  74.3715591  53.5965729  68.8027267
  74.9815598  54.3144722  68.6331863  74.9221191  52.8137779  68.8212357
  67.9312897   3.8410301  54.9080887  67.2912292   3.7846704  54.1985970
  68.7759857   3.9124045  54.4635277  16.5576344  17.6834164  82.5677795
  16.5735016  18.5789585  82.9053955  17.4779835  17.4680386  82.4167709
  84.0863266  54.1307259  43.6612511  84.4206696  53.2719460  43.4025230
  83.2035370  53.9557724  43.9872818  15.1483030  23.5886288  87.3670349
  14.7818317  24.4642982  87.4900589  16.0394859  23.7437515  87.0540466
   9.5046844  36.7770424  57.2222061   8.8993540  36.0565567  57.0469704
  10.1583624  36.4024429  57.8126373  70.0381699   8.1666965  45.1605453
  70.1104126   7.3551216  45.6628990  69.1675415   8.1267128  44.7647781
   9.9364548  24.9252510  81.5618286  10.4563742  24.5091839  82.2494354
   9.5092325  25.6626625  81.9976425  36.8184280  29.1108131  10.9955254
  36.1753273  28.4186878  11.1491899  36.4199486  29.8957653  11.3714218
  31.2720337   2.1602399  47.5908775  30.7086449   1.4308913  47.3322754
  31.8510170   2.2934432  46.8403664   7.2275376  54.2235718  29.3095303
   7.2045903  54.9774857  28.7201920   8.1382179  54.1743965  29.6001740
  81.2835617  19.8610611  66.1146545  81.8320694  20.6442833  66.0707169
  80.5920181  20.0875378  66.7365112  79.6794968  42.3279686  33.5744286
  80.5432053  42.7206650  33.7010498  79.8460083  41.5491562  33.0434303
  45.6650543  61.6229744  23.8254719  45.8650894  61.5810928  24.7605991
  45.6002693  60.7076149  23.5531673  51.7546921   4.3176975  19.0810204
  51.0168495   4.3379960  18.4715900  51.5960159   3.5452533  19.6235924
  14.1141968  59.5924225  29.6796188  13.3861723  59.0066032  29.8870506
  14.8926716  59.0392227  29.7442894  25.8779278  30.1200504  64.8803635
  25.3784256  30.8452625  64.5051346  25.7672157  29.4040184  64.2548447
   3.2770028  20.3476238  64.4618912   2.5346487  20.0807457  65.0040283
   4.0248346  20.3401165  65.0593185  37.6385880  62.3845711  39.9090614
  37.7254982  62.3125496  38.9585419  38.4572830  62.0265236  40.2522430
  11.6458712  42.0552750  46.7654877  12.5943642  42.1839790  46.7708702
  11.2840462  42.9412575  46.7467957  28.6392365  58.0724297  79.6593781
  29.1285095  58.5239830  80.3470840  28.0456123  57.4886513  80.1316528
  34.5115318  53.0518417  12.4094048  35.0337791  52.2551270  12.3159256
  34.6897926  53.5500412  11.6117496  50.2778130   1.6466011  61.5907364
  49.7060127   1.1766350  60.9837685  51.1523552   1.5604534  61.2112808
  29.8370972  47.8256569  83.4016113  29.9812164  47.3562813  84.2232819
  29.3068752  47.2281532  82.8742752   7.1599531  51.8951607  53.1799850
   6.6240249  52.1497459  52.4288559   7.6696119  51.1473541  52.8681107
   3.7389030  44.3015900  82.4560547   3.4240339  43.4171257  82.2694778
   3.2346673  44.8642769  81.8683853   9.3264456  24.7411900  51.8231277
   9.5221891  25.6720047  51.7158928   8.4181824  24.7206173  52.1245689
  67.9411163  52.8134308  29.0689754  66.9984665  52.9627991  29.1419373
  68.1430054  52.2053032  29.7800694  43.0292931  52.3369865  30.4694080
  43.3997345  51.5703583  30.0320435  43.1443939  53.0500183  29.8412590
  12.6863136  53.0147400  81.4180679  13.0611839  53.5372543  82.1270752
  11.8855448  52.6453705  81.7903137  79.7921524   4.9401917  61.8797340
  80.3592453   4.2125130  62.1349373  80.0606308   5.1508350  60.9854279
  62.0361633  68.2625504  14.9771099  61.3642807  67.6781387  14.6260185
  62.8523064  67.9521484  14.5849495  37.0800667  56.3113365  10.8022566
  37.3979378  56.3000870  11.7050667  37.6285896  56.9614601  10.3632889
  50.7309685  17.5603237   1.3509976  50.2570648  16.9697723   1.9365692
  50.8609962  18.3559246   1.8670818  15.0623646  53.9646912  31.6374073
  15.2428684  54.8950081  31.7721615  14.7514429  53.6553459  32.4882088
  78.4634094  63.4895325  33.4754486  78.4129791  62.9909058  32.6599350
  77.5649033  63.7779846  33.6357689  65.3700180  22.0131683  75.3326645
  65.2180328  21.9275703  74.3914948  65.5429764  21.1197720  75.6295776
  68.8314362  42.7538338  51.5924721  68.1475296  43.3884506  51.8063889
  69.4489059  43.2416878  51.0475311  36.5302544  12.2461863   3.7247937
  37.1597748  12.7039118   4.2819505  36.2134857  12.9171152   3.1200275
  70.2367706  63.7762032  83.3210983  70.2837372  62.9071083  82.9227295
  70.5609055  64.3685074  82.6426163   6.2344179  28.1491508  25.9524517
   6.2352715  27.5967922  26.7341995   5.5643258  28.8100452  26.1268845
  57.3816833  46.8251495  35.0514946  57.5430260  47.4099541  34.3110847
  56.4639282  46.9742584  35.2789192  27.6451778  41.0622253  56.8780670
  27.6938553  41.8020515  57.4834747  26.8672848  41.2369804  56.3483734
  31.7176323  14.6430092  71.7607574  32.6517677  14.5353155  71.9397049
  31.3187771  14.7475328  72.6246033  73.0317535  23.4912682  40.4029922
  72.9182358  22.7624569  39.7929230  72.1719894  23.5993481  40.8096466
  43.1238060  32.4902725  71.4286423  43.0556068  33.3261528  71.8900375
  44.0476952  32.4247398  71.1870499  32.7599983  68.9198151  69.4956131
  33.1080704  68.9948120  70.3841248  32.9440918  69.7688675  69.0938034
  66.7280807  70.7776031  75.8370590  67.4284210  70.1868896  75.5599060
  66.1041565  70.7665558  75.1112213  21.2607403  13.0788431  71.4958420
  20.8741131  13.9455833  71.3712845  21.0636024  12.6098757  70.6850204
  10.5715752  45.2363396  55.2237129   9.8112059  45.1771851  54.6452904
  11.3230352  45.2489510  54.6309395   2.7990441  66.6920242  13.3238878
   2.7435813  66.0536270  12.6128254   2.5451643  66.2020569  14.1060047
   0.9472851  68.2025986  84.2466202   1.5844868  67.7176514  84.7710571
   1.4581312  68.8973846  83.8312454  31.5233154   6.2106590  70.3702393
  31.7245998   7.1374917  70.2410126  32.3661003   5.7669759  70.2748871
  64.3871689  56.4852104  55.7530098  63.4663086  56.6178627  55.9780731
  64.3855667  55.7188416  55.1795044  40.9304161  65.3372498  34.0026436
  40.2213364  65.7616425  33.5196037  41.6681099  65.3353577  33.3927002
  79.8761826  19.6767349  48.4062157  79.5118179  19.2652760  49.1899071
  80.4457169  19.0073471  48.0270233  80.1919022  25.2978535  50.1075020
  80.6101151  26.0415192  49.6735802  79.5618134  24.9696178  49.4660339
  40.4349327  70.2195969  61.9200478  40.4900513  70.8060303  62.6745605
  39.6505890  69.6951065  62.0811386  64.0699844  30.2584057   8.7858849
  64.1387024  30.4863148   9.7130136  64.9768677  30.2076454   8.4838676
  78.8865433  14.3502655  39.1486320  79.8208237  14.2977791  38.9471436
  78.4731979  14.5678034  38.3131371  81.5453262  41.2898521  31.7259865
  81.0038757  40.9178581  31.0297928  82.2658920  40.6679382  31.8271942
  68.2701111   1.5219326  17.2744789  69.1350784   1.2009864  17.0194073
  67.9074783   0.8246800  17.8208904  83.6881714  32.4715500  21.2957878
  83.9888687  31.6628418  21.7102814  84.4921341  32.9488373  21.0906639
   7.7999711  15.1825323   3.9525557   7.7958927  14.7420349   3.1027458
   6.9314399  15.0098972   4.3159876  84.5418930  18.1359234   5.3012590
  85.2070694  18.6472244   4.8404503  83.8025970  18.7362385   5.3977075
  32.8878288   4.0703030  78.2344742  33.4166641   3.5427694  77.6359100
  32.7129707   4.8778691  77.7512589  60.2828560  28.2444286  84.5393295
  61.0658150  27.9406567  84.9985962  60.5876541  28.4477787  83.6550293
  45.9447327   5.7827988  20.0898685  45.6822586   4.8705683  19.9666862
  46.8438759   5.8194604  19.7636318  82.8694534   5.5696802  66.6301041
  82.1829529   4.9205613  66.4765320  83.2691040   5.7035356  65.7706909
  22.3377743  43.8132401   6.2714276  22.3848400  43.7357178   7.2243218
  21.9677486  44.6829185   6.1198630  77.6083679  47.6276321  83.1772537
  78.0671082  47.2068787  83.9044113  76.9926071  48.2278519  83.5977402
  57.8313866  21.2963486  37.7398071  57.9598198  20.3865757  37.4713860
  56.8968735  21.3580761  37.9375572  71.8646317  28.4704342  42.7619057
  72.0734711  28.5943298  43.6877937  72.5831451  27.9359989  42.4237442
  83.9244385  20.0263882  28.8537731  84.8047714  20.3881493  28.7518940
  83.3982086  20.7616768  29.1678829  55.3786697  25.1253548  50.0584373
  54.8507957  25.9073544  49.8970146  55.6307564  24.8222961  49.1861763
  16.5249214   2.3468473  64.6330261  17.0917587   1.9638827  63.9635010
  17.1083889   2.5157914  65.3727951  62.3377380  61.9326134  59.1160088
  63.0625801  61.7489052  58.5184402  61.9062653  62.7000465  58.7403641
  75.4269104  63.9508743  47.1474419  75.7579041  63.8833771  46.2518311
  74.5187988  64.2360687  47.0463219  22.2735233   9.7475281   5.1541667
  21.4295387  10.1543722   4.9582047  22.1306572   9.2855358   5.9802327
  80.0689774   1.5677323  35.5064125  79.8128510   0.7323069  35.1156502
  79.5988083   1.5965544  36.3396797   9.0087414  27.8234959  17.0272503
   8.8492775  27.2898750  16.2487583   9.8617983  28.2280903  16.8696747
  17.7750053  40.3080521  18.3400536  17.2617683  41.1099091  18.2408199
  18.6348610  40.6088753  18.6339741  29.0249615  58.5536118  71.1333847
  28.5855751  57.7065010  71.2080688  28.8005657  59.0120277  71.9431534
  59.9562187  28.4030972   0.3968831  59.8469200  29.1225243  -0.2249775
  60.9002075  28.3595524   0.5492590  71.6406021  58.8819885  10.5807247
  71.7681580  59.7589035  10.2188091  72.2006607  58.3186646  10.0466490
  41.9370956  58.2459412  57.9215622  42.6231651  58.8438873  58.2182083
  41.6682243  57.7786407  58.7124901  19.9226856  10.7197695  66.3419266
  19.1205177  10.1998606  66.2924118  20.1013241  10.7958469  67.2792282
  73.9392776   1.9712789   1.1067375  74.2152557   2.8200805   1.4525738
  73.2213745   2.1783690   0.5084434   9.8181667  56.3299904  33.5584488
   8.8864117  56.1218414  33.6272736   9.8446903  57.2824478  33.4670296
  38.6479225  32.6407928   8.4436741  39.5524406  32.8200912   8.1869068
  38.6588020  31.7304077   8.7391624  38.0813255  61.2024460  63.0634155
  37.2014198  60.9375114  62.7954445  38.1970520  62.0716553  62.6795998
   8.5691519  18.6079369  56.7384186   8.6603088  18.2727070  57.6303520
   8.4885168  17.8240776  56.1950111   8.6437006  36.4418678  44.3082428
   8.3381405  36.4500389  45.2153244   9.4237156  36.9966507  44.3132591
  79.8769608  47.9093323   9.2928419  79.4251099  47.4653435  10.0104322
  79.2660370  48.5896072   9.0095749  76.4779739   3.9256628  27.8878307
  75.7624054   3.4181547  28.2707500  76.1441803   4.2047553  27.0352364
  59.7446289  68.9644928  72.6403351  60.0350494  69.4451675  73.4154739
  59.0738373  68.3651581  72.9675522  15.8239098  58.3159637   1.5045637
  15.4782801  57.4433975   1.3164135  16.4661827  58.1743355   2.2000196
  57.3078880  28.6611252  77.5842438  57.3368301  29.5138493  77.1503601
  58.0446472  28.6780720  78.1950912  53.3918724  46.0839500  70.2088013
  52.7449188  45.3787537  70.1893005  52.8723793  46.8868065  70.1665497
  80.7973328  70.8002396  68.4821091  80.1498718  71.3940735  68.1021194
  80.7512360  70.9663925  69.4236450  14.0220203  62.4908447  47.6029358
  13.6127501  61.6628990  47.8543968  14.2661791  62.3684196  46.6855316
  31.3742847  62.4232864  85.2853470  31.7866421  63.2754745  85.1440353
  30.5223904  62.4950829  84.8548203  50.9589577  23.4192982  60.2273636
  51.5220337  23.7060127  60.9463730  51.0143661  22.4638863  60.2461014
  68.9773712  49.9318008  36.2349358  68.7309875  50.7500191  36.6662636
  68.3854141  49.2776184  36.6062355  40.3290176   6.1534090  22.1720943
  40.9851418   6.0459046  22.8606968  39.7411804   6.8314729  22.5051289
   1.6588824  37.8168488   2.9318442   1.7757519  38.6674881   2.5087790
   1.4928743  37.2109566   2.2096469  71.3213120  23.5899277  54.3396797
  71.1688309  24.5238781  54.4836082  70.7813416  23.1546307  54.9993591
  32.4294395   1.3653198  52.2531433  32.1324539   1.4163673  51.3446159
  32.0570145   0.5468537  52.5812378  61.4673767  22.8066273  21.7526684
  61.9247398  22.6391582  22.5766869  61.1805725  23.7174568  21.8187447
  31.5379925  66.0502853   6.5528326  32.1592712  66.0894623   5.8257074
  31.9102192  65.4025574   7.1512685  79.5452271   3.4572935   2.8419900
  79.7305450   3.7254460   1.9419991  80.2260361   2.8160734   3.0458612
  11.0510025  26.2257652  14.2611380  10.1924715  26.6368465  14.3619747
  10.8666563  25.2865944  14.2467394  43.9004402  57.4309235  18.5441074
  43.1473694  57.1396255  18.0300426  44.2762794  56.6242485  18.8966064
  15.7004004  53.8321762  17.0726776  15.2772655  53.6008606  16.2458267
  15.5386171  54.7705460  17.1702271  78.4927826   8.1089125  24.4861298
  78.2378387   8.3635139  23.5993271  79.1006546   8.7931623  24.7663536
  40.3423615  21.1513252  64.1585617  39.8301125  21.2344151  64.9628754
  41.2183533  20.9064312  64.4567184  52.9168968  35.9278526  61.4040184
  52.1836128  36.1129494  60.8172760  53.6860580  36.2527695  60.9359894
  50.6373482  24.5352135  64.7626801  49.8543015  24.4347534  65.3039551
  51.0910263  25.2910233  65.1357269   2.3389039  10.8819942  41.8913040
   2.2796333  10.0042810  41.5140266   3.0005157  11.3263836  41.3611908
  85.8839188  42.2347260  23.7687454  85.5513077  42.0583572  22.8886890
  86.2395325  43.1219101  23.7170544   8.0642948  45.5823288  15.9166164
   8.1269436  46.4933739  15.6297350   8.8518543  45.4420471  16.4422607
  25.5749092  22.2645779  87.3063889  25.0893021  23.0745182  87.1501312
  25.7225475  22.2524757  88.2520523  75.9890137  37.6611023  39.3247414
  76.9436417  37.7305908  39.3153801  75.8173141  36.7194672  39.3157921
  56.5854683  10.3153582  30.3246326  56.0123672   9.5639172  30.4767056
  57.3069305  10.1951780  30.9421101  76.9236908  40.9544296  86.2200012
  76.8042526  40.0962906  85.8130951  76.8360291  41.5763130  85.4976349
  24.4573898  18.4068050  25.0750141  24.9658489  18.1389942  25.8405056
  24.8191662  19.2594662  24.8335247  11.6358547  33.5969467  71.0091095
  11.5343819  32.6871414  70.7294769  12.1197157  34.0140572  70.2962723
  42.2888069  35.0842590  49.0553055  43.1035614  35.2028542  48.5671043
  41.6027641  35.1204910  48.3887711  73.7065430  51.6665344  27.2878952
  73.8412933  51.7785988  28.2289143  74.3222809  50.9775352  27.0381470
  24.5234089  15.6841469   5.3317237  23.6490822  16.0543251   5.2102637
  24.6721153  15.7260027   6.2763753   2.5433207  45.0031204  59.2166367
   2.0431769  45.5632477  58.6230507   3.4513319  45.1007195  58.9298935
  61.5254478   2.8350444  59.3794479  61.6889381   3.5106411  58.7213669
  60.6425476   3.0207896  59.6991692  57.3590660  42.1718788  25.2659016
  57.8497353  42.8330574  25.7540798  56.7361603  41.8184853  25.9009876
  71.3502350  45.5645180  34.1142578  70.7667084  46.1202011  34.6309280
  71.0193253  44.6768799  34.2514648  83.9900055  66.4747925  63.7028160
  83.0967789  66.7464218  63.9139824  84.4088364  66.3464203  64.5538940
  72.7395554  44.8001480  51.5796204  72.2369003  45.6146317  51.5931511
  72.1943741  44.1904716  51.0823212  63.7830086  31.7001953  14.5632029
  62.9745293  31.8100910  15.0637207  63.9781799  30.7651920  14.6257067
   1.4121450  30.4194126  88.2085724   2.2195988  29.9636993  88.4464340
   0.7227608  29.9418488  88.6699982   2.5376129  41.1960297  62.5458565
   2.9627864  41.7772560  63.1764374   2.1287849  41.7868347  61.9133682
  79.1435547  63.4076576   2.3317025  78.8253021  62.8741226   1.6034914
  79.2303925  62.7921066   3.0595684  76.9801407  53.0273132  10.1309948
  76.5571365  52.8198586  10.9642210  77.7145462  53.5929794  10.3695202
  39.3938026  56.9443588   2.0521228  40.2780190  56.5881805   1.9653629
  39.2655029  57.4629898   1.2578958  26.3668022  60.2674026  39.0474892
  25.8090382  59.7219810  38.4928322  25.7540474  60.8132401  39.5402603
  76.6731339  71.4682922  44.7071533  76.8889999  70.7451782  44.1183052
  77.1175003  72.2266464  44.3281136  80.9381256  33.8379250  63.4539413
  81.8216171  33.9313431  63.0976334  80.3620224  34.1152534  62.7416039
  85.2256470   5.3430905  79.7201538  85.3201904   5.5491962  78.7901993
  85.4973145   4.4280295  79.7914963  23.4782448   5.8472300  87.0038605
  23.7461815   4.9673700  86.7387466  24.0194244   6.4323287  86.4737549
  37.5195503  50.7533340  85.8404770  37.5232391  50.8691483  84.8903198
  38.0816536  49.9933853  85.9913177  18.8123226  16.5713177  68.7682724
  17.8993073  16.7410469  69.0002747  19.1669693  17.4321575  68.5459824
  45.6305428  52.2556000  84.2406845  46.0960617  52.2046547  83.4058609
  46.0148010  51.5583572  84.7721329  61.8922958  57.3960724  55.2647247
  61.7810059  56.7201996  54.5961113  61.5053291  58.1815376  54.8780289
  80.7829285  11.4674377  11.8456984  80.7300949  12.4199896  11.7676830
  81.7188416  11.2856331  11.9307785  75.4260941   6.7840471  27.7068539
  75.2000427   7.5101905  28.2880993  76.0634384   6.2699437  28.2025585
  11.4417887  42.1382484  70.2269287  10.5734110  41.9391212  69.8769302
  11.9812469  41.3908920  69.9687195  56.6166916   3.6090691  83.2100372
  56.5211906   3.5869448  84.1622009  55.7778244   3.9436722  82.8928986
  35.4879074   7.8992882  70.8933258  34.8739433   8.3821602  71.4466019
  35.7349091   7.1376157  71.4178009  26.8882160  40.1496544  68.3450241
  26.2237778  39.5555992  67.9959488  26.6075897  41.0184364  68.0574570
  59.2609177  15.4165077  24.1210480  58.5931587  14.8543510  23.7282295
  59.8294792  14.8139334  24.6005001  84.2417297   4.3881187   6.1219649
  84.6584930   5.0692062   5.5940781  84.9671021   3.9604118   6.5770941
  84.8954849  24.8442307  13.0675316  84.1883698  25.3754921  13.4335604
  84.9794617  24.1074543  13.6727924  72.8087234   0.5777498  43.2082977
  73.2265549  -0.2185912  43.5361595  72.1235199   0.7697123  43.8485107
  28.6029491  10.1935434  71.7613754  28.1427021   9.3720064  71.9330750
  28.7912846  10.5486555  72.6300888   3.2509329  33.7347946   6.5941796
   3.2437675  32.9074707   7.0755463   2.5013778  33.6738434   6.0019937
   9.9754343   2.9835563   7.1198287  10.2508507   2.0802815   6.9633918
   9.3132362   2.9163201   7.8077278  82.9731369  18.7064724  80.0662308
  82.4297562  17.9184589  80.0672226  82.4094238  19.3865833  80.4348984
  54.7919655  67.3230896  27.3116512  54.5732613  66.4790802  27.7066879
  55.0244370  67.8816528  28.0534000   5.6379347  29.9163380  63.0151863
   5.0748076  29.7199326  63.7638817   6.1723471  29.1299458  62.9046364
  58.4061775  17.8500423  62.4353561  58.2708588  18.5391064  61.7848854
  59.3459435  17.8722763  62.6158600  63.7425156  13.3108883  73.2427673
  63.5654564  13.4676933  72.3152466  62.9801712  13.6705942  73.6962814
  81.0267105  65.5053406   2.6696348  81.0171661  66.1820984   1.9927777
  80.4781418  64.8051605   2.3160024  69.3104706   4.9812360  43.1016769
  70.0022278   4.4930482  43.5481873  68.5157166   4.7745147  43.5934792
  75.7260895  67.6801300  53.7554703  75.1603088  68.2222824  54.3051949
  76.4964523  68.2248611  53.5940666  57.1260567  16.3480759  58.7556000
  56.6761818  15.6892586  59.2845650  57.3841667  15.8815413  57.9606438
  42.3616791  60.6333008  14.7406092  42.1303215  61.1101875  15.5376577
  42.2288322  59.7124023  14.9653959  38.4202271  68.7824478   2.9441147
  39.2315025  69.1855927   3.2532043  38.3605652  69.0393066   2.0239549
  47.1660118  26.5820961  83.6926270  46.6334648  27.0492744  84.3363419
  47.9403725  27.1328411  83.5774002  51.3320541  15.4111328  85.7066879
  50.8264542  15.1300735  86.4693146  51.5813675  14.5961208  85.2709885
  61.5819244  43.9914513  87.3963623  62.2982330  44.0967026  88.0225067
  61.8232956  44.5529671  86.6597061  66.2468185   7.4110932   5.8727403
  67.0819168   7.0688057   6.1916056  65.5946426   7.0478597   6.4718728
  39.1749687  56.3664246  64.4773636  38.7214012  55.5718460  64.7587051
  38.5080872  56.8705597  64.0111542  32.3898354  47.5212746  78.4650650
  31.7635574  47.2004967  77.8161392  31.8458042  47.8548241  79.1785126
  51.6665764  52.9418182  68.4942627  51.6603584  53.1136513  69.4358978
  50.7453499  52.8137093  68.2680817  85.1566925  26.9335213  79.4808807
  85.9094009  26.5633354  79.0197678  85.5404205  27.5102177  80.1414871
   6.5010724   2.0675311  37.0019569   5.6167030   1.7347852  36.8489761
   6.3782783   2.9992111  37.1839600  43.7922783  25.8869991  86.4374161
  44.5912590  26.2851334  86.7828827  43.2156906  26.6284237  86.2528381
  44.2037392  52.9299049  16.6929474  45.1385460  52.7639961  16.8147488
  43.8857918  53.1610184  17.5657196  19.4208336  60.3904114  64.3846512
  19.0765476  61.2449341  64.1248627  19.4121647  59.8736801  63.5789566
   0.3271453  41.2454796  17.4272194   0.2000361  42.0166588  17.9798069
  -0.1987818  40.5628777  17.8439808  50.2156296  47.1946678  66.6568680
  49.5467148  46.6647911  67.0904694  49.9668999  48.0987473  66.8492279
   9.9767456  54.8325806  30.2220268  10.0604620  54.1984558  30.9341450
  10.8639622  55.1686745  30.0950680   4.1056437  45.6788330  76.1333389
   3.8757572  46.1513290  76.9334183   4.7680717  45.0460434  76.4108276
   1.1188918  32.7525139  10.1244745   1.7154648  33.2461739   9.5617752
   0.2799006  33.2054482  10.0397730  31.1730652  22.1069965  70.7153702
  30.7810726  21.2618389  70.4956436  30.6250362  22.4487705  71.4218292
  50.1417084  42.1913414  54.0722160  50.8978729  42.5172462  54.5603065
  49.5370827  41.8811417  54.7463341  52.0928497  38.8586311  77.6123581
  52.2104492  39.7708817  77.3474045  51.3029594  38.8661537  78.1529617
  58.6600990   8.0067196  24.1967793  59.5096436   8.2626629  24.5559406
  58.8248405   7.1675634  23.7667713  38.8653069  67.5424881   6.7421222
  38.5379791  66.8136597   6.2149639  39.1457710  67.1374817   7.5628185
  60.1789513  70.9698410  78.6446609  59.9546547  70.6371613  77.7756119
  60.0369034  71.9144669  78.5835114   1.8823116  31.4967232  80.0958786
   1.1790309  31.4365883  79.4493408   2.1648185  32.4105072  80.0581818
  71.7711258  63.2402077  43.2315712  71.8546600  62.6235657  43.9589005
  72.0800476  62.7529488  42.4677773  19.5999374  21.0900269  13.9170303
  20.2381001  21.3030949  13.2361612  20.1269264  20.7574825  14.6436167
  38.6429214  19.5388279  69.1157150  37.7857323  19.9346657  69.2730865
  38.9795647  19.3411922  69.9896927  30.3352547  44.6248360  10.0205832
  29.6904964  45.3207932   9.8934650  30.9833660  44.7699509   9.3312883
  63.7302246  68.5882797  22.9907360  64.3770523  69.1107330  23.4649601
  63.8667107  68.8153687  22.0709362  12.8773470  71.1398163  18.6453381
  12.1049604  71.7045898  18.6714878  12.5233231  70.2524490  18.5863934
  17.2541656  67.7395401   2.0092320  17.9195652  67.6216965   2.6871612
  16.4250851  67.5642090   2.4543328  53.9115753  68.6626511  32.6631165
  53.1578331  68.2439804  33.0788307  53.7792244  69.5985413  32.8142166
  72.8628082  69.4265289  18.8357315  72.4922485  69.8800507  18.0786133
  73.7940292  69.6470413  18.8148518  17.1425362  10.0980787  13.1081524
  17.3565216   9.2357903  12.7519226  17.7621193  10.2205658  13.8274193
  14.3228502  21.2713737  75.8830109  13.4136400  21.0845718  76.1168365
  14.3372564  22.2128201  75.7106705  32.9328728  19.6509476  65.7412415
  33.4930496  18.8815174  65.8432846  33.1700630  20.0080910  64.8854218
  73.7157669  17.8461685  26.2733822  74.1710968  17.2353802  26.8529034
  73.0138931  17.3264980  25.8815308  65.3094025   7.2533364  52.7656403
  66.2316818   7.0324974  52.8954849  64.8665314   6.4068503  52.7059631
  39.7288170  53.8955574  81.0287170  39.6891594  54.5287323  81.7454758
  38.8383293  53.8744125  80.6782684  48.0742264  32.0722923  18.8944187
  47.7101555  31.8105145  18.0487499  48.9866066  32.2911644  18.7049713
  51.4143219  27.2209415  46.4286308  52.2275620  27.7255821  46.4139481
  51.2748451  27.0183239  47.3536835   4.4024725   0.9554357  31.5693588
   4.3986149   0.1154831  31.1103420   3.4830832   1.1167737  31.7813129
  62.4682465   7.6201878  33.7127113  62.0744362   7.6898303  32.8430595
  62.8634605   6.7485123  33.7275620  18.4538269  66.7764664  11.9292002
  18.7292080  66.8944473  11.0200930  19.1387653  66.2326813  12.3182888
   0.2469337  -0.1648106   2.7445056   0.2146339   0.7864153   2.8462789
   1.0127611  -0.3206912   2.1918380  84.1782532  66.2965622  58.9360542
  83.8500214  67.1776810  59.1152992  84.9758835  66.4372711  58.4259415
   4.8344316  17.7647972  13.6338520   4.0181522  17.9613495  13.1741934
   5.0169015  18.5528831  14.1455708  85.6306763  21.1525192  65.2389526
  85.8815765  22.0548038  65.4368439  85.3069992  21.1858654  64.3387604
  29.5699177  53.0780945  45.7357864  29.5506325  53.4406929  46.6214371
  29.5785828  52.1297455  45.8653831  24.3131962   1.9380275  56.1362572
  24.6424370   2.7467678  55.7441216  24.6219902   1.9679025  57.0417862
  61.8351364  37.3427925  71.0023346  62.6218109  37.8640709  70.8421860
  62.0269928  36.8605499  71.8066177  32.7459068  48.7779121  15.9747372
  32.3684883  48.0138779  15.5388050  33.1609726  49.2750893  15.2699184
  59.0041008  37.2611008  28.3376446  59.0492287  36.4985771  28.9144936
  58.6302071  36.9238052  27.5235996   3.7980564  13.5830326  76.2378159
   4.6834841  13.2294579  76.3228760   3.2261014  12.8632421  76.5042801
  28.4089108  43.6630707  81.2476120  28.2259178  42.8883591  81.7791824
  28.1728630  43.4036484  80.3569870  26.5932922  40.7140617  72.5919037
  26.4622078  39.8366737  72.2324066  26.5330868  41.2950668  71.8335953
  70.1982651  24.0332775  40.7785454  70.0627289  24.1545296  39.8387833
  69.4163666  24.4084187  41.1836739  56.0843811  14.2348270  84.6383057
  56.5275955  14.4535437  85.4580383  55.9545898  13.2874546  84.6815796
  45.3380585  33.4853668  67.0084610  45.6668358  32.5869331  67.0393600
  44.4684677  33.4088135  66.6157990  53.7047615   9.1841764  72.7663651
  53.7744942   9.5596676  73.6440735  52.8356285   9.4457035  72.4623337
  83.7406921  46.3899078  69.3227463  82.8350983  46.2885513  69.6157532
  83.6776657  46.9219894  68.5295563  71.8237915  46.4302864  31.2598209
  72.6579742  45.9649582  31.1978245  71.3047867  45.9107628  31.8737907
  61.4664993  69.9325714  59.6857414  60.7470055  69.3236847  59.8525276
  61.8565292  70.0840378  60.5466537  54.7113190  67.4761353  47.0189743
  54.1198082  67.3932266  47.7669525  54.2748070  66.9975739  46.3142242
  15.1462002  57.2597237  62.2405319  15.4398575  56.4947357  62.7352943
  14.3671074  57.5621643  62.7071991  80.7189255   3.8771868  66.1429672
  80.3564377   4.5300517  65.5441360  80.1200256   3.1333759  66.0774155
  19.9780636  14.2781525  77.0137939  19.7043877  14.1997023  77.9276733
  19.1588860  14.3483744  76.5236435  28.6362724   0.5265437  50.7161331
  28.6391830   1.0299017  49.9019737  29.2758827  -0.1702643  50.5692062
  40.0125008  46.1101875  78.4066162  40.9560280  46.1832466  78.5503464
  39.6610909  45.8409309  79.2552872  22.4417076   7.1378865  42.3133736
  22.6655693   8.0071697  42.6457367  23.2111320   6.8676238  41.8121986
  69.7257462  57.3464775  71.8423691  70.0909042  58.2094841  71.6471558
  68.8089294  57.4081078  71.5742722  13.5574112  52.0037117  79.1282043
  14.3124638  52.5514336  78.9134369  13.2520599  52.3369331  79.9719849
  45.8038673   8.3318405  67.8546524  45.1505394   8.3447847  67.1552048
  45.5014114   8.9930630  68.4771729  80.1317139  12.3536081  61.3236580
  80.1067276  11.7893410  60.5508614  79.3033752  12.1827326  61.7718697
  68.2937546  50.7267799  30.9295635  67.4097214  50.3770180  31.0408478
  68.8673935  49.9694061  31.0459728  69.2763596  35.0567551  30.8441181
  68.5556412  35.6599960  30.6627464  69.5833588  35.3056107  31.7159290
  52.4820557  34.6092834   8.1189032  52.0074043  34.8830223   8.9037638
  52.2229805  35.2423515   7.4493251  11.5723410  28.3077450  61.6365891
  11.0450735  27.5679874  61.9382172  12.4583673  28.1098194  61.9399300
  28.7089729  46.9401474  25.3885651  28.6195030  47.6029701  26.0733261
  27.8135815  46.6457405  25.2217445  70.5383987  30.8247166  41.7782478
  71.0754623  30.0538177  41.9612885  71.1381226  31.4396210  41.3558083
  45.7243690  68.4113235   2.7759683  45.8994560  67.7526016   2.1039100
  44.8182831  68.6776276   2.6200240   5.1903977  29.8575611  75.7836990
   4.8026972  28.9900074  75.8989029   4.8908949  30.1409588  74.9198608
  16.1155262   3.6741455  19.8198261  15.7413969   4.0268512  20.6272030
  15.7869053   4.2520285  19.1311378  17.1954479  41.0316277  57.9105644
  16.4473763  41.0665398  58.5067215  17.4188213  40.1021919  57.8607216
  62.4157181  71.6242905  63.7895126  62.2929764  71.8663559  62.8715973
  62.9789543  70.8509064  63.7600060  16.5719471  30.9556618  32.2226791
  16.1607513  31.7412548  32.5832253  17.3413925  30.8135357  32.7740288
   2.6056709  19.1727886  75.6632919   3.3452079  18.5991974  75.4625168
   2.9999259  19.9281120  76.0995026  85.7243652  30.4220886  78.6565247
  84.7775269  30.3083935  78.5740891  85.8329926  31.3309917  78.9363861
  60.6016197  16.6110325  75.3885803  61.3219719  17.0550842  74.9412079
  60.1271286  17.3130589  75.8338318   9.0809288  54.7477760  84.9489594
   9.7004232  54.4240456  84.2950058   9.2826633  54.2462578  85.7389069
  11.1124887  47.2259331  41.6718636  11.6550846  47.7610741  41.0926857
  11.2616644  46.3274803  41.3773117  63.9949684  23.7384357  23.5998154
  63.8465309  24.6812325  23.5268002  63.4624100  23.4693851  24.3482990
  62.2161102  12.4265175  29.3738403  62.3763199  11.4849892  29.3098831
  61.7402229  12.6434965  28.5721664   1.4974257  30.0695648  62.4685211
   1.4498893  29.5808220  63.2901688   0.6629700  29.8908958  62.0349388
   2.6768982   4.3727560  66.4837646   2.7535007   3.8946786  67.3094788
   2.0318940   3.8772824  65.9790802  13.5917673   0.4259144  72.3902130
  13.8186665  -0.4056714  71.9740295  12.7223797   0.2781036  72.7624359
  80.0040283  50.3505287  47.4170990  79.8185730  49.4180374  47.3061943
  79.3069382  50.7926559  46.9325218  77.0784454  68.8690109  23.5479813
  76.3204041  69.0167847  22.9825058  76.7026749  68.6811371  24.4080582
  56.6426926  56.0682716  42.3599548  56.1222763  55.3024750  42.1171494
  56.0287552  56.8009033  42.3093796  13.3573742  11.1452932  62.9287071
  13.7500544  10.4547195  63.4626923  12.4556379  10.8563032  62.7887497
  12.1544609   4.0914688  26.3364182  11.7506361   3.9894230  25.4745922
  12.3919306   5.0176482  26.3814983  67.3645172   7.0298443  65.8387451
  67.6685638   7.5728879  66.5659943  66.7178421   7.5730643  65.3882370
  84.1467743  55.3662262  41.2358627  84.2574615  55.0526085  42.1334305
  84.8165207  54.9004860  40.7351074  40.4768677  56.3363838  48.5011406
  40.5727615  55.3839989  48.5003357  39.5419044  56.4830894  48.3577995
  72.8807144  53.7748146  59.7676964  73.1461868  53.7112617  58.8502426
  73.6920319  53.6529541  60.2607880  40.8525009  44.4904747  43.4174767
  41.5724831  43.8752708  43.5566940  41.0236511  44.8682098  42.5547752
   0.5899342  65.3157425   0.3678447   0.4053820  65.9322357   1.0764399
   1.5151651  65.4538651   0.1651081  19.1293850  66.9902573  55.6833153
  19.9612370  66.9361267  56.1537666  19.3721409  66.9275589  54.7595367
  83.9357224   5.3043809  64.1872787  83.7964249   5.5838766  63.2824516
  84.7432785   5.7446432  64.4523239  78.2132034  43.4394875  86.9438095
  77.7346039  42.6128235  86.8821564  77.5343552  44.1129951  86.9014969
  79.0309830  69.8611526  21.8938808  79.6278992  70.5350418  22.2191505
  78.2733994  69.9106216  22.4768505  64.7373962   4.6787143  88.8032684
  65.6551437   4.4114122  88.8533783  64.2463379   3.8581011  88.8443527
  57.2205162  52.2457733  59.5855103  57.8101616  52.0888405  60.3230209
  57.6770134  52.8924179  59.0472794  68.0785217  63.8238068  50.4864464
  68.8334198  63.5960655  51.0291214  67.3199921  63.6186409  51.0330429
  69.8136139  50.6022797   8.5475368  69.2226334  51.3546104   8.5163546
  70.1534958  50.6016235   9.4423637  76.2227402  55.5074158  68.2077866
  77.0841293  55.1728477  67.9581757  76.3494720  56.4519234  68.2976379
  72.9640350  57.2160873   8.5550318  73.1540298  56.4032974   8.0865192
  73.7629395  57.4000931   9.0491285  75.5972366  25.3111649  62.8908234
  75.6822357  24.6766243  62.1792297  75.0584335  24.8664780  63.5451813
  56.3598366  39.8610573  58.6158409  55.8231277  40.6441498  58.7380791
  56.6148300  39.6047134  59.5021210  15.4493551  46.1143379  64.2641220
  14.6757708  45.6272316  64.5478897  15.0980320  46.9092712  63.8630180
  50.8494377  49.6972656  50.3404007  51.7901917  49.7323685  50.1672440
  50.4876747  50.4343452  49.8483925  72.7692490   1.6205560  72.7356262
  72.1722565   0.8879734  72.5834351  72.7548981   1.7481505  73.6841736
  78.2884827  28.9232311  33.2083626  78.3010559  28.2411232  32.5369415
  77.9176178  29.6872044  32.7667389  86.5065384   1.1319028  43.4157600
  86.9568863   0.3196953  43.1839409  85.5926132   0.9752220  43.1782265
  85.4010086  15.7829533  46.7195473  84.7891388  15.7163839  47.4526329
  85.5663147  16.7215099  46.6300201  22.9491978   3.8464642  66.1452789
  23.0787029   4.2008524  67.0249786  23.0898857   2.9047499  66.2433243
  50.2570877  16.7421989  24.0593357  50.8095398  17.0328979  23.3337135
  49.9134483  15.8954573  23.7744312  61.9809761  68.3393097  44.4187355
  61.7193604  67.5985870  43.8718147  62.3514290  67.9376755  45.2046661
  54.1073914  29.5469036  77.6271515  54.6711807  28.7777653  77.7095947
  54.3367462  29.9219608  76.7768860  75.5807037   5.2302675  88.8251495
  75.2337875   5.2082200  89.7169952  75.7928391   4.3179169  88.6280518
  28.7619457  49.2392082  57.9594727  28.8691406  49.1249161  58.9037590
  28.9640713  50.1620560  57.8054390  71.4277420   6.6777377  74.4814224
  70.9771347   7.5107532  74.3425980  70.9299850   6.0466413  73.9616241
  38.5595779  63.6608467  80.0906677  38.7683830  63.4171753  79.1888580
  37.6123962  63.7989578  80.0882645  41.2399826  68.6796417  82.0714798
  41.9824333  68.4393311  82.6257782  41.0830154  69.6031036  82.2684860
  75.4685287  15.8710670  53.0303955  75.9889450  15.0701180  52.9681206
  75.8899612  16.3771172  53.7250481  83.8389664  31.3320503  56.4015083
  84.5468140  31.4006519  55.7608223  83.9983139  32.0514984  57.0124321
  74.6748886  29.1275864  27.8375759  75.1515884  29.7092571  27.2454262
  74.4948578  28.3472424  27.3132801  11.2525969  53.6826820   6.7162910
  10.6387177  54.1020126   6.1133437  11.3319283  52.7856331   6.3918834
  17.6823120  62.1984901  37.3095436  18.0237198  63.0701561  37.5092239
  17.0780678  62.3391266  36.5806122  47.7655830  14.6087027  65.2762146
  47.7542458  14.1341972  64.4449844  47.7915306  13.9227028  65.9432678
  39.3759689  15.9057789   7.8833036  39.6138077  16.5492554   8.5508394
  39.9307175  15.1488533   8.0718546  69.7710114  30.1293335  84.2899323
  69.1521912  29.3997021  84.3203583  70.5751572  29.7468815  83.9387741
  36.7901344  37.0928307  10.1540813  36.5358009  37.6568985  10.8844080
  37.5990372  36.6727219  10.4463348  29.1925240  20.8998222  84.8201599
  29.7457600  20.8596840  85.6002579  29.6412468  21.5145702  84.2396774
  55.0023727  19.1185856  52.7117615  55.5216522  18.3951168  53.0627213
  54.2852745  18.6928463  52.2419205  74.3450470  18.6587448   4.5324183
  75.1411209  18.1486568   4.6817946  73.6371155  18.0943375   4.8430781
  62.0781364  71.0677261  88.9480820  61.7346916  71.7338867  88.3526764
  61.3149452  70.5397568  89.1826477  74.0313644  10.1834183  41.3932610
  74.0307388  11.1316862  41.2628021  73.1067047   9.9373980  41.3667755
  32.0121078  48.0850830  20.9402065  31.1201897  48.2825165  21.2261009
  31.9051971  47.7010880  20.0699482  70.2842712  43.0809822  30.9285011
  71.1730118  42.8386726  31.1886120  70.2878494  43.0151825  29.9735718
  -0.0886049  66.0520248  20.0664883   0.4656652  66.2503891  19.3117237
   0.4498923  65.4825974  20.6160374  40.3731995  42.7040100  25.5624714
  39.7646828  43.4062119  25.7923737  41.1888504  43.1554451  25.3453312
   6.1342583  47.9108887  17.3296204   7.0704918  47.8921509  17.5279808
   6.0304646  48.6528282  16.7338142  58.0027771  26.9386005  83.1806870
  58.5248756  26.1382694  83.1248703  58.6074791  27.5954704  83.5257797
  29.2515221  66.4916992  20.8354740  30.0906849  66.1953354  20.4830437
  28.8014278  65.6865921  21.0913048  36.5731888  38.0990753  88.8063660
  36.8257942  38.2125435  89.7226334  37.2728081  37.5655708  88.4293442
  38.3280602   8.9789886  33.0552711  38.6642494   8.6994190  32.2037735
  37.6163216   8.3674831  33.2442780  35.1801949  34.1333275  86.2994690
  34.3513184  34.0592422  86.7724457  35.0668488  33.5768471  85.5289459
  59.0507851  22.3640976  87.2636719  59.1343231  22.2845745  88.2138977
  59.7399979  22.9793472  87.0132980   4.8527985  31.2805309  17.3176193
   5.4440184  30.5750446  17.5802631   4.3867292  31.5138130  18.1204834
  53.3707161  53.0822105  19.9380093  53.3445282  54.0267715  20.0908298
  53.3575592  52.6973457  20.8143311  38.5089798  70.1617737  48.3713341
  38.0080872  70.7357101  48.9509277  38.1204605  70.2961807  47.5069160
  84.7172852   1.5935724  62.1257782  85.0885086   2.4556293  61.9379349
  85.4667740   0.9988199  62.0979614  63.9545631  15.2926416  67.6720505
  63.1688614  15.7868948  67.9057693  63.7038765  14.7997303  66.8907547
  68.0643692  25.0324249  42.2586288  68.1800003  24.3900375  42.9587708
  68.5405197  25.8054638  42.5618134  34.6385002  58.1189613  16.0692387
  34.0813828  57.8817253  16.8105698  34.3990517  57.4979553  15.3813076
  82.0935440  37.3822479  66.4427643  81.9611511  36.4342575  66.4384155
  83.0209503  37.4936028  66.6519394  14.1379719  30.4267349  62.8696442
  14.9772968  30.2827511  63.3067169  13.8620167  29.5546074  62.5877304
  21.6356087  28.4448280  80.2427521  21.7776356  28.4708366  79.2965088
  22.5065460  28.2979965  80.6117249  52.3133583  44.6916046  43.1322289
  51.7187157  44.3548965  43.8024979  52.2844009  45.6420555  43.2419510
  10.2385626  33.5144043  60.9739609  10.3428144  32.6369972  61.3420906
  10.4545689  33.4124603  60.0470390  43.7010727  42.3294983  37.0756149
  44.4855537  42.6869354  37.4916191  43.7932320  42.5613632  36.1515083
  58.5456009   7.7687588  72.3701706  57.6694450   7.4843154  72.6303177
  59.0187340   6.9556718  72.1933517  83.0575256  48.8072739  26.3917313
  82.9068222  47.8732338  26.2465191  83.9494019  48.9575424  26.0783348
  33.5809441  58.3456459  69.6094513  33.2892723  58.1871758  68.7116547
  32.7877998  58.6093559  70.0759354  40.9827805  54.6793365  56.4264565
  41.0370369  54.5946846  57.3783607  40.1175117  54.3355179  56.2043533
   2.0839536  58.7437057  63.0416374   1.2398515  59.1695175  63.1913300
   2.1263623  58.6228371  62.0930481  34.1919518  10.6607323  84.7609100
  33.4728622  11.0665722  85.2451019  33.8301125  10.4927816  83.8908005
   8.7992725  66.2530975  28.7539425   8.1406736  66.4770813  28.0964375
   8.6642408  65.3201447  28.9200611  25.6822720  58.5766106  71.4156570
  25.7826118  57.9166412  70.7296448  25.7601147  58.0855865  72.2336197
   4.4122100  32.3288155  66.0036316   5.1491499  32.1728935  66.5942535
   3.7021070  32.6164780  66.5774155  84.5690002  42.2381935  47.2613525
  84.7130432  41.3760719  47.6515236  84.3929138  42.8121109  48.0069008
  71.7873230  16.5487862  29.8130226  71.5650558  17.3473282  30.2917328
  72.7275085  16.4383965  29.9547768  27.1505165  15.9360580  73.7147369
  26.9661999  16.1134567  72.7923508  27.0997124  14.9831886  73.7901764
   2.2973104  18.7981396  87.7406921   2.9261739  18.8833942  87.0241089
   2.7266598  18.2166996  88.3682480  55.9486618  62.3268509  23.9920406
  56.5703239  61.6230888  24.1777382  55.9997826  62.4475822  23.0438614
  61.3942032  65.2012177   5.6591158  61.9511681  64.4233093   5.6888528
  61.7028275  65.7446213   6.3841634  65.1868286   5.6136112  56.3452415
  65.4369431   5.3819547  55.4508057  65.8299789   6.2707634  56.6112061
  52.5773849  14.0148821  45.9312172  51.8471947  14.2135878  45.3450699
  52.8003273  14.8561077  46.3297997  47.9007759  34.7231903  81.8761673
  48.3875160  35.5297318  82.0458832  47.1741486  34.9953995  81.3156738
  46.6920815  41.7213326  19.2583027  46.4853935  41.0350914  18.6238079
  46.6181755  42.5365067  18.7620506  38.4666252  29.9017944   6.0271544
  39.2497063  29.5238686   5.6269188  38.1668854  30.5559044   5.3958626
   0.3092981  33.5145721  41.3218422   0.9172035  34.1580124  40.9576035
   0.8690597  32.8923416  41.7863083  77.4868240  58.0647125  81.0579834
  78.4274979  57.9879951  80.8983536  77.2305832  58.8649788  80.5995560
  10.2581387   1.8734552  88.4526367  10.4644175   2.3278072  87.6357880
  10.3814850   0.9463825  88.2487946  53.6881371  36.1282463  63.9490776
  53.4847565  36.0965195  63.0142746  54.0001869  35.2473907  64.1563339
  26.6592979  11.7665100   4.1671553  26.5923653  10.8866310   3.7962587
  26.6695404  12.3470650   3.4061799   3.1945131  45.2840881  50.1685066
   3.6099215  46.1423492  50.0844955   3.8958611  44.6594200  49.9837532
  82.2232742  39.1426773  29.1565895  82.2226410  38.4980011  29.8641376
  83.1153336  39.1175194  28.8104382  79.7665405  33.9226761   2.4668808
  79.3106918  33.0810852   2.4795582  80.5761948  33.7493134   1.9866304
  44.7246094  24.0660934  59.8681831  44.6379929  23.1269798  59.7044907
  44.4282227  24.1801586  60.7711639  10.0971899  13.2934208  62.2481194
   9.7122822  14.1663723  62.1704369   9.3779249  12.6955385  62.0445900
  84.8651962   3.6381128  52.1920700  84.9023743   4.5733576  51.9916534
  83.9631958   3.3863757  51.9939346  36.3504906  24.8537769  80.8623581
  36.3210907  25.4140263  81.6379166  36.2304993  25.4554062  80.1275940
   9.8741312  26.9463501  28.8489857  10.0510311  27.0277004  29.7861729
   9.0310688  26.4954300  28.8026333  22.2310486  58.2606125  79.9021454
  21.9095612  59.1476593  80.0634766  23.1821861  58.3559380  79.8523102
  20.5308647   0.3242002  49.5042534  20.8346043  -0.3671831  48.9160652
  21.0117168   0.1745364  50.3182640  35.3483124  52.0378532  75.3743973
  34.7373199  52.5800743  75.8733139  35.5013008  51.2747307  75.9315948
  85.9119797  14.5736198  32.1471024  86.6403122  14.8208284  32.7168808
  86.3245850  14.1096277  31.4186134  57.8107910  20.3560562  75.3195190
  57.1049614  19.7169437  75.4173508  57.3629913  21.1997318  75.2569046
  44.5633698   9.5895548  26.7542133  44.2074280   9.5222034  27.6402149
  44.8446999   8.6998587  26.5408421  57.7204628  70.9410553  18.3417549
  57.1804771  70.3539886  18.8709087  57.3315735  70.9017105  17.4679985
   3.0222747  58.7392654  34.4564590   2.6047952  58.4261398  33.6540298
   3.8479252  58.2570152  34.5007935  79.5212708  47.4282875  25.2472305
  78.6786041  47.6671219  25.6333752  80.1680908  47.8951569  25.7762718
  64.4729691  31.5598907  25.8155594  63.7374573  31.6145458  26.4256935
  64.4054184  30.6833782  25.4368877  74.1581345   4.7576294  60.5387840
  73.7792053   3.9243977  60.8187218  75.0298080   4.7691846  60.9341240
  72.3770905  35.5782890  64.5507507  72.6976089  34.6836548  64.4361725
  71.4941559  35.5655365  64.1812973  43.8405304  56.3445625  79.6305923
  43.8361206  56.5435028  78.6943054  43.4122849  55.4910126  79.6961060
  78.1842194  46.7925110   4.4099174  77.5498428  46.4913635   5.0603886
  78.0159836  47.7312393   4.3279901  22.1895657  63.9312172  24.0874882
  21.9866390  64.1059570  25.0064640  22.1923981  64.7947083  23.6744499
  26.3971310   6.6030979  50.6555138  27.3110218   6.3652821  50.4990654
  26.4328175   7.2276645  51.3799934  81.6289825  27.0307465  72.9491882
  82.0927277  26.2150517  72.7599487  80.9363556  26.7765503  73.5590134
  65.1572647  25.5260944  20.3919334  64.8535614  24.6205215  20.3292236
  66.0364456  25.5105991  20.0137348  32.9080505   6.9234366   4.0630221
  32.7818298   7.2292452   4.9612322  32.9290543   7.7237029   3.5382698
   8.8499384   3.4757156  70.1912918   8.3908882   4.2405553  70.5384598
   8.5841093   2.7563987  70.7641373  58.2594719   0.4431531  40.0616722
  58.2467575  -0.4185763  40.4781990  57.3888474   0.5349581  39.6746140
  56.4956284  38.9501457   1.8549297  57.3372879  38.9401627   2.3107181
  56.7108154  39.2140579   0.9603481  14.6969910  45.6651421  35.1013565
  13.8435850  45.2621346  34.9416237  15.1590233  45.5864143  34.2667542
  63.6787186  56.7107811   6.9773593  62.9317360  56.1126747   7.0000916
  63.4943123  57.2964935   6.2430797  70.5497360  39.2285576  43.4784737
  69.6373520  39.2008934  43.1903343  70.9470367  38.4486732  43.0909691
  22.0110626  57.3670044  73.1660690  22.4545460  57.9696274  73.7630692
  21.6530151  57.9300003  72.4797287  45.5080490  60.2001381  68.5220184
  44.6796913  59.9728127  68.0996628  45.4700813  59.7647705  69.3736267
  18.5719814  58.8632965  46.2483826  17.6320553  59.0314751  46.1813889
  18.9643879  59.4279289  45.5824699   1.2390692   4.3807335  72.3406067
   0.6798694   4.2460709  71.5754929   1.4210424   5.3204761  72.3418503
  51.6393852   3.0148964  68.0804825  51.4512215   3.9197886  68.3294754
  51.9436760   2.6023796  68.8888550  55.3625031  45.1155319  39.9021530
  54.7633553  45.8551979  39.8014412  54.8020859  44.3885994  40.1736870
  86.6826401  67.3949509  32.5626259  87.1712646  67.8194733  33.2677879
  86.3570099  68.1186829  32.0274467  78.6896286  36.7434349  57.1748238
  78.8314819  36.1271095  57.8933296  78.4578400  36.1914024  56.4279861
  64.1694717  69.2490005  55.0341492  64.6790314  68.8949509  55.7630005
  63.2629967  69.2225418  55.3404808  47.0062256  43.9274521  88.0541916
  46.2166367  43.6940994  88.5423737  46.6799774  44.3032036  87.2365112
  76.2450180  58.3185196  76.6003647  76.8097305  58.8853874  76.0750122
  75.3909073  58.3670006  76.1709747  62.7625504  41.1178970  81.9036255
  61.8970146  41.0138969  82.2989426  62.7619553  40.5116577  81.1628876
  55.6330948  54.1622963  11.6379719  55.2233887  55.0101318  11.8098621
  55.0858040  53.7647209  10.9607420  85.6044998  40.2482529  56.7343597
  85.6881332  40.0257416  57.6615715  85.0122757  41.0001335  56.7209549
  16.9524498  55.6010704  86.2354355  17.3426552  55.1494675  86.9837875
  17.4358997  55.2712784  85.4779816  44.7964172  57.9557686  51.4948616
  45.3209953  57.3092194  51.9671173  43.8969040  57.6381416  51.5737228
  85.8966217   1.3371373  65.1533661  86.7577057   1.7513400  65.0968475
  85.3631058   1.8051125  64.5110321  76.7288132  17.5804520  21.5043678
  77.4432526  18.0051994  21.0296078  76.4958572  16.8266850  20.9623394
  64.2205505  31.8516388  73.0565948  64.7554092  31.5090599  73.7726898
  64.8468399  32.2820168  72.4745560  54.8671112  69.2719040  82.0917816
  54.8027077  70.0806122  82.5997925  55.1280670  68.6081619  82.7302017
  86.1010056  10.3953304   1.3180847  86.5594482   9.7870235   1.8977635
  85.5930176  10.9518766   1.9083666  56.8825264  14.8786755  42.8026962
  56.8458519  15.6110830  42.1875000  56.7863503  15.2845116  43.6642494
  71.3246918  60.2367401   7.5942087  70.9988785  61.1334076   7.6720777
  72.1625824  60.3249664   7.1399021  74.8694687  55.9925690  46.7540550
  74.0121994  56.4078941  46.6601067  75.4385681  56.4806175  46.1589317
  30.1578674  10.4506025  10.7761478  31.1150074  10.4559879  10.7854338
  29.9131336  11.3759871  10.7761049  63.2633133   8.6601391  57.4467926
  63.0194778   9.2251492  58.1799622  63.9836273   9.1219769  57.0177422
  57.1096802  56.0865173  78.2943115  56.9629669  55.7882271  79.1919327
  58.0613670  56.1536865  78.2167740  68.3288040  49.6473999  62.7265472
  68.9872742  48.9915047  62.4975243  68.4559250  50.3479462  62.0867767
  64.5928879  18.3074913  70.7264252  64.9923782  17.4981461  70.4076843
  64.1433868  18.6695995  69.9628372  68.0568390  52.6516571  50.1476250
  67.4582748  52.5233994  50.8834991  67.5304794  52.4527512  49.3732758
  68.1397247  25.4115295  76.0558319  68.2918320  24.5955124  76.5324936
  67.2087021  25.5935402  76.1835480  50.2534065  58.5325623  56.0555725
  50.3124924  58.7453270  56.9869576  50.9307251  57.8703957  55.9177208
  60.2358055  42.9135475  63.3904572  59.4214363  42.4161911  63.4657936
  60.6340103  42.5995178  62.5786400  35.9626770  11.8860722  82.0711060
  36.1457520  12.1829805  82.9624939  35.2693443  11.2341175  82.1734695
  36.4989853   8.6288280  14.2547607  35.8928223   8.0773268  14.7493773
  37.2084999   8.8159571  14.8694210  21.2359676  17.9108372  14.4294529
  20.3181858  17.7212830  14.2345686  21.2129974  18.7394829  14.9080448
  61.8336220  20.7546005  76.6769791  62.2362175  21.2115192  75.9384842
  61.4388657  21.4503307  77.2026749  18.4276886  64.3889313   3.8772967
  17.4716091  64.4351196   3.8737075  18.6290474  63.5597420   3.4435527
  67.5452728  67.4383087  71.5843277  68.2821121  67.9794388  71.3006592
  67.4925079  67.5818253  72.5292358  60.0159912   5.6431179  72.0005722
  59.5107193   5.2980752  71.2644424  60.9294815   5.5118990  71.7465057
   0.1434729  61.6972504  85.7369766  -0.6381618  62.2235756  85.9050903
   0.8556210  62.1884003  86.1466751  74.1762314  15.6832724   5.5521035
  75.0085526  16.0710754   5.8224554  73.6329575  15.7089863   6.3397703
   0.9849883   4.5659595  61.5394936   1.8623449   4.5296235  61.1584969
   0.4467413   4.0350838  60.9523888  72.6056137  49.0893936   3.4524355
  73.0345840  49.6343460   2.7927039  72.0915146  48.4604378   2.9461324
  21.8551540  44.8168907  42.0233574  21.4379120  43.9938698  41.7688522
  21.3616314  45.1086121  42.7898865  82.6459732  29.1083946  87.8515472
  82.0427322  29.7982845  87.5751724  83.4555588  29.2932796  87.3755035
  77.0497818  61.7028542  61.0786667  77.0626068  61.6448288  60.1233139
  77.7693710  62.2968292  61.2922249  77.6554871   1.4293889  32.6189957
  77.8305893   0.8588721  33.3673820  77.2030792   0.8673056  31.9900131
  25.3299160  12.3581944  23.4514160  25.0789318  13.2689581  23.2973137
  26.1882687  12.2728052  23.0364799  84.6964951  38.2770462  23.0540848
  84.3704834  39.1722031  23.1470108  84.9834518  38.2200546  22.1426907
  82.0881424   7.0872326  30.4074783  81.9538193   8.0227737  30.5589790
  82.8664551   7.0438819  29.8519821  53.4191513  28.5807590  55.9564934
  54.3507690  28.3633633  55.9890366  52.9892006  27.8622780  56.4203491
  78.3919983  62.2883911  12.0605326  77.5614090  61.8566246  12.2603626
  78.7863235  61.7450371  11.3782549  45.6101227  66.4654465  57.3070869
  44.6550293  66.4208755  57.2619057  45.8182106  67.3734360  57.0869141
  37.2039375  47.0043945  67.5878143  36.3366508  47.3889656  67.4607086
  37.0354195  46.1775475  68.0396500  58.0835800  48.7080498   3.7477117
  57.7619972  47.8142433   3.8657231  57.3816605  49.2621613   4.0890303
  84.3679810  57.0398102  22.9884262  84.4516373  56.2441292  23.5138988
  85.2200928  57.1367722  22.5632896  43.7798729  49.0446396  49.0981102
  44.4334335  49.2323532  48.4244194  43.1228790  49.7327461  48.9927826
  72.0675659  52.6472740  18.9025269  72.0343704  52.5360641  17.9523888
  71.1767120  52.4579964  19.1971035  46.3822136  38.1454086  19.6144600
  46.2277031  38.7948532  20.3004494  47.3342781  38.0512276  19.5838585
  78.1041336  65.8392639  64.1120987  77.8300629  65.6240311  63.2205925
  77.3798294  65.5431824  64.6634140  36.4213676   2.8321640  63.2736359
  36.6419334   2.2342737  62.5594139  37.1422272   2.7377558  63.8962746
  85.5606308   5.5972724  36.8437729  84.6303635   5.7880173  36.9639702
  85.6888580   5.6182966  35.8954315  78.6218109  11.4085197   4.1739769
  79.1661148  10.6813622   4.4759874  77.8068924  10.9953136   3.8886735
   3.1505821  52.5545158  28.9545727   3.5467153  52.0052147  28.2781296
   3.1551032  53.4356384  28.5806274  64.8921738  24.5423450  72.2949524
  64.7687225  24.5492210  71.3457718  64.9147110  23.6139278  72.5268250
  56.7059517  52.8393250  33.5835533  57.2415924  52.0596733  33.7300797
  55.9582748  52.7301407  34.1711693  82.5485153  64.9669113  22.6950645
  82.3095703  65.8563461  22.9559059  83.5055008  64.9719925  22.6754417
   0.5819865  40.5694504  71.1011276   0.0499579  41.2198677  71.5595398
   1.1056994  41.0803566  70.4839325  19.9483490  50.0195808  49.0989571
  20.6454468  49.6263084  49.6239510  19.1964836  50.0588837  49.6900482
  29.1801033  64.9222412  85.5893707  29.8240318  65.6173859  85.7248917
  29.1989651  64.4165573  86.4018784  27.2710037  30.7509346   0.4604678
  26.4247494  31.1971283   0.4288720  27.2488232  30.2529163   1.2776070
  61.4849014  56.6221008  84.5439377  60.8572845  56.9191513  85.2027893
  62.3384628  56.7154846  84.9669571  63.1569977  11.2713270  62.3472404
  63.5985069  10.7937622  61.6449356  62.3579750  10.7706270  62.5118446
   4.8087363  62.0746422  22.9103699   4.8509483  62.3489838  23.8264408
   5.4307613  61.3497314  22.8485374   2.8533444  51.7182312  81.5124054
   3.6804023  51.4588203  81.9185028   2.6108959  50.9715996  80.9646912
  76.7444611  14.2462101  85.9650955  77.2235184  14.6310577  86.6990051
  75.8683624  14.6271448  86.0248413  71.7663727   9.5059395  29.6793060
  72.5999756   9.9166298  29.4498119  71.1415634  10.2306118  29.7055798
  66.5635834  58.0076599  83.5037460  66.9596329  57.1376305  83.5529709
  66.4101181  58.2529335  84.4161758  76.2845078  15.6093035  66.5936050
  76.3253632  16.2146511  67.3339539  77.0834045  15.7847490  66.0964050
  70.7128143  21.3892822  88.3334427  71.6138000  21.5665665  88.6036911
  70.5613556  20.4788723  88.5872955   1.0252471  27.4729919  24.6501026
   0.5744352  28.0950546  25.2211018   0.8264281  26.6153965  25.0259094
  67.2049026  61.5775337  70.3379669  66.9688568  61.2287254  71.1975327
  66.4299393  61.4260254  69.7969513  50.3854637   6.9450135  24.3118591
  49.5994110   6.4524555  24.5479565  50.4589119   6.8386369  23.3634281
  79.0916138  35.9318352  14.5704489  78.1631775  35.9068871  14.8020010
  79.3849335  36.7990837  14.8498812  72.9143982  53.1561661  16.0584278
  73.0214844  52.2924919  15.6598921  73.8085175  53.4640770  16.2066574
   4.1473389  46.7339630  45.0585442   4.1540484  46.0684700  45.7465172
   3.7689614  46.2900543  44.2995949   4.3696976  41.2622528   7.7130485
   4.3257594  42.2149239   7.6310859   4.3062873  41.0996513   8.6542025
  13.0088120  68.5505295  22.5219536  13.4131708  67.7169418  22.7624836
  13.6403742  68.9616089  21.9317188  70.3035507  12.1581268  22.0933437
  71.2570801  12.0876827  22.1386795  69.9879150  11.5952196  22.8002682
  68.3728027  10.8732433  34.0103683  67.8659897  11.2311678  34.7392426
  67.7138367  10.5940533  33.3747215  55.6698418   4.8615613  55.8146973
  54.7944450   4.4769301  55.7703667  55.6826324   5.5096736  55.1104088
  39.1337776  15.6986408  79.5948410  38.3053932  15.9249144  79.1719666
  39.7921486  16.2034245  79.1173782  20.6809292  53.1511307  31.6767597
  20.7866936  53.1413651  32.6280479  21.5753574  53.1730690  31.3365421
  21.7918453  64.5865936  11.2338791  21.5883350  63.8672447  10.6360893
  22.7479744  64.5985413  11.2775116  81.6417084  34.0202255   6.3120241
  81.9305878  33.4172020   6.9969654  80.6906128  34.0591240   6.4126811
  56.5637627  38.1187820  26.2209148  57.1930580  38.5625420  25.6523247
  56.8950157  37.2235489  26.2920513  39.4815865  52.7341461  84.6076660
  39.0424995  52.1393280  83.9997025  40.3908463  52.7534866  84.3091583
  18.7995472  57.2190742  64.8396912  19.3354111  57.7522278  64.2524719
  19.3206196  56.4302063  64.9893723  44.5983582   7.0519052  40.5451965
  43.7818375   7.5512547  40.5320625  44.8126068   6.9675527  41.4742928
  15.3230171  63.2633781  32.1702347  15.8794355  63.6142654  31.4748878
  15.8499832  63.3488235  32.9647408  11.5777006   3.6827531  55.6058273
  12.3047161   3.6750205  54.9832344  11.7798910   2.9760439  56.2189445
  12.1472282  48.9595413  53.3268013  12.3089018  48.4312439  52.5451355
  13.0161619  49.2511902  53.6027069  69.4218826  15.5413961  46.8851547
  69.3359375  15.0920305  47.7259369  69.0723038  14.9212303  46.2452927
  35.2792130  56.1678467  38.5524940  34.5059891  56.7011948  38.3683701
  35.8621864  56.3268890  37.8101463  63.7526550  36.4928856  77.9891129
  63.4295158  35.6258507  77.7440338  64.4415436  36.3192368  78.6305923
  26.0650177  26.9416656  71.1607819  26.6449146  27.2783604  71.8438568
  25.7217026  26.1234951  71.5198975  41.1807671  15.5588455   2.9715614
  41.1396599  14.9230423   3.6859119  42.0359306  15.4106007   2.5678904
  63.2060165  36.9519386  21.9151268  63.5185204  36.8907318  21.0124493
  63.9427376  37.3254509  22.3988285  37.8158913  54.3240700  86.2288284
  37.5362282  54.9414749  85.5529327  38.1858788  53.5875397  85.7421417
  35.7745438  60.3483887  62.0012436  34.9321060  60.2267227  62.4391136
  35.6879654  59.8682899  61.1776886  66.0293655   0.2628567  31.6486645
  65.7945633   1.1814249  31.7803173  65.2273254  -0.2202538  31.8475971
  84.2634048   1.7927390  13.8726501  84.1285248   0.8484155  13.7933311
  83.3865509   2.1676750  13.7903690  22.2599430  62.8530426  43.2050629
  21.3172016  62.9755592  43.0934372  22.6442509  63.6837616  42.9249802
  21.2612095  66.9088745  59.2862396  22.0320377  66.3863144  59.0649109
  21.5294952  67.4199219  60.0498390   2.8405280  68.1848373  19.2310123
   2.5789733  67.4037170  18.7434902   2.1947615  68.8475266  18.9859428
   5.9609661  55.4439240  62.3096924   5.9824944  54.6250458  62.8048820
   5.9463549  56.1281776  62.9788818  71.4726715  47.7502518  81.2444534
  72.0137939  48.5271606  81.1036224  71.1147308  47.5477829  80.3800964
  44.0402832   6.6414213  11.0145206  44.9361954   6.3595662  11.1992693
  43.7021599   6.9346533  11.8606405  76.0949631  23.1781216   5.2839594
  76.9527512  22.8952255   5.6008158  76.1411438  24.1341953   5.2890072
  77.9077377   0.4507010   8.3161116  78.5943375  -0.2041452   8.1896572
  77.2120895  -0.0176853   8.7775412  67.8800812   0.2190445  48.6014252
  68.0957565   0.8892429  49.2499199  67.4465103  -0.4702857  49.1044922
  62.1289864  60.0961266  87.2908859  62.1858826  60.9859352  87.6390762
  62.9848671  59.7105293  87.4779968  22.3969936  59.3046951  22.8088379
  22.9861202  58.5630112  22.6707439  22.9799824  60.0525475  22.9395027
  48.9879837  14.1434927  33.6271744  48.7184753  14.9013443  33.1082764
  49.0670967  14.4802189  34.5196915  69.2910385   2.9157939  76.0877991
  68.8613510   2.5932801  76.8800049  68.6628799   2.7417202  75.3868332
  59.6921196  16.1285820  32.8114090  59.2763252  15.6920214  32.0679321
  58.9657478  16.5219345  33.2950325  63.0498962  60.4050789  82.6143494
  63.2177887  60.1423264  81.7093582  63.8852348  60.7586670  82.9199905
  40.0412865  38.0717239  70.5179214  39.5293808  37.8763046  71.3027725
  39.7008171  37.4717216  69.8543549  42.0594711  51.8313942  76.0580978
  41.1153717  51.7467690  75.9248886  42.1659431  52.6818504  76.4842682
  11.6811514  71.7196808  83.4117737  11.9082232  71.9815598  82.5195312
  11.9039059  70.7896500  83.4524384  32.9039536  30.2947483  69.0881653
  31.9814072  30.1850319  68.8577271  33.2695007  29.4113979  69.0401840
  25.9033298  19.3432655  77.6563339  25.0209732  19.5537357  77.9619141
  26.4818344  19.7028008  78.3288574  34.4630013  58.3086395   8.1020117
  34.8058739  58.1412506   7.2241449  33.6007538  57.8930054   8.1056452
  12.9226627  22.7543526  20.2785606  13.6824589  22.2367306  20.0120869
  13.1011486  22.9906597  21.1887989  50.0076981  22.6317730  83.7544708
  49.7414742  21.7614746  83.4579315  50.5855675  22.9541073  83.0628052
   1.6733185  70.8097000  29.6481590   1.7107052  70.8410034  30.6041164
   2.5043128  70.4116364  29.3888741   6.9994287  36.0183754  17.2631092
   6.2822776  36.1774025  17.8768158   7.6938128  35.6364403  17.7999401
  12.8576555  56.0246811  48.5141983  13.0296154  55.6824112  47.6369781
  13.2245884  55.3663902  49.1043243  40.4553452  53.7984543  49.5654678
  40.2914009  53.5734482  50.4812851  39.8075104  53.2926178  49.0748825
   9.5957575   2.2653182  64.0616531  10.0073185   3.1294575  64.0510254
   8.7852182   2.3799438  63.5655479  82.5445251  24.7097473  22.4657059
  81.7808533  24.2138309  22.7608376  82.6245880  24.4955921  21.5362110
  72.7785416  39.3556366  73.2483063  72.4774094  40.0572662  73.8255997
  72.0614395  39.2329216  72.6262665  24.2401848   1.7166196  13.1751795
  24.5939655   2.1893301  13.9285822  24.8590221   1.0010991  13.0292292
  19.5430565  28.5781994  54.9749413  19.9601040  29.2756863  54.4691620
  19.7983265  28.7536354  55.8806419   7.4662929  66.4552536  26.2741051
   7.5568709  67.1642151  25.6373920   6.5401821  66.4672470  26.5157795
  38.6407280  70.0193329  82.7134628  38.1457214  70.4631424  83.4021149
  39.0589027  70.7280045  82.2244339  30.8161354  63.3441582   2.2179089
  31.3740807  64.1219254   2.2156181  31.2806797  62.7177734   2.7729526
  27.5864010  60.6277161  46.5897675  26.9698658  60.7249298  45.8640518
  27.0953732  60.9115372  47.3608513  42.7366257  45.7798195  32.4255257
  42.4885750  45.1536064  33.1056442  43.4243927  45.3352699  31.9299603
  66.6825027  48.2557564  48.3074875  67.4971390  47.8197289  48.5574493
  66.9585724  48.9634819  47.7251320  27.4739418  66.0898972  49.6911659
  27.6332207  66.7441559  50.3714676  28.3470345  65.7900696  49.4380989
  25.9083633   0.4699633  80.5689468  25.2730427   0.4761583  81.2848740
  25.6269035   1.1806477  79.9927979  59.3093605  41.8110504   2.9599977
  59.7544250  41.9813385   2.1298463  59.0848923  40.8811989   2.9250839
   4.4800043  65.8662643  71.3180466   5.2588081  66.2827759  70.9489670
   4.0084963  66.5792236  71.7488556  71.4255371  40.4056435  26.3521919
  72.2707825  40.0418777  26.0886040  70.8819199  39.6395378  26.5360222
   4.6845641   5.6505551  29.1832752   3.8368402   5.2772541  29.4246082
   5.2144408   5.5744061  29.9767876  64.2840347  34.8354149  38.5386963
  64.9104385  35.1170464  37.8719635  63.9335747  35.6506233  38.8976479
  58.4409714   6.7421823  39.5539436  57.9309654   7.0888104  38.8218422
  59.3335686   6.6770339  39.2144394  67.4321594  51.7490845  10.9982462
  66.7032394  52.3632202  11.0862093  68.1456375  52.2744789  10.6361065
  53.9971581  33.9539719  68.0897598  53.4523773  33.1676102  68.0569229
  54.1969910  34.1453400  67.1734161  59.5163498  28.7697468  20.2132740
  59.3667221  29.6932068  20.0106316  59.3578720  28.7024269  21.1548595
  58.8094063  22.5643139  25.0321503  58.9352112  22.7905350  25.9536877
  59.0512810  23.3583355  24.5554333  11.1054640   9.3812170   1.6709319
  11.3800001   9.6343689   2.5522811  11.3447199  10.1278543   1.1218224
  80.2484970  47.3989830  37.2366714  79.5272141  47.0905457  37.7851601
  79.9709244  47.2009010  36.3422737  86.3630753   1.6754510  57.2340240
  85.8342209   0.8870327  57.1118011  85.9673920   2.3222282  56.6497803
  47.9830170  46.7797852  12.9303637  47.7145233  47.5281029  12.3972912
  48.2539291  46.1176262  12.2944555  32.8670807  67.5732346   9.0432062
  33.6357002  67.1952820   8.6158829  32.1963921  67.5878601   8.3604202
  55.0880508  17.8964653  85.3257599  55.0203934  18.6491795  85.9131927
  55.8764801  17.4371090  85.6148911  50.6841469  55.5343666  41.5675468
  50.9830132  54.6759338  41.2675400  49.8527946  55.6707993  41.1131592
  53.2987137  15.7834444  71.7851639  52.5728683  15.2956247  71.3960419
  53.1995010  15.6491995  72.7276917  73.2620697  66.6747284  12.2090425
  73.5329361  66.6687698  13.1270981  73.2825165  65.7542343  11.9473076
   1.8776487  40.8836479  24.4128284   2.2839422  41.4797173  25.0419979
   0.9591219  41.1517906  24.3875523  28.0495529  39.0793228  54.7010612
  28.1830578  38.3636208  55.3224907  27.8516045  39.8386612  55.2491951
   5.8347969  20.3055153  33.4910126   4.8844466  20.3601685  33.3906212
   6.0016031  19.3852158  33.6946144  16.1570816  34.3980865  71.3663712
  16.9561062  34.0368195  70.9826050  15.7730942  33.6678581  71.8517075
  86.8415756   8.2997904  20.0066853  86.1338806   7.7175894  20.2831631
  87.2055588   7.8807845  19.2268276  48.9151535  61.0968208  43.3006973
  49.6680145  61.6836891  43.2298698  49.2260132  60.2644234  42.9447327
   7.3442430   2.2852819  53.8148041   6.8690038   2.4322832  52.9970207
   8.0977869   2.8732555  53.7629318  67.4818420  34.3648529  28.4242973
  68.0567703  34.0326157  29.1137276  66.6159515  34.4000130  28.8307800
  76.5876236  15.2871332  43.2006035  75.7118607  14.9456291  43.3813019
  76.7513275  15.9122810  43.9067345  85.0822296  63.5218582   7.1391172
  84.7300186  62.8639297   6.5396957  85.9608536  63.7037277   6.8056960
  85.6591873  40.1795425  35.6741371  85.7036743  39.3335800  35.2284851
  84.8617020  40.5867882  35.3359070   4.6249838  61.7989082  36.8227768
   4.1060596  62.1360664  36.0925217   4.9648371  60.9611092  36.5084076
  83.6329117  20.5972347  50.3640518  83.6157532  21.0261765  51.2195892
  83.4567032  21.3010368  49.7396774  42.8983231   1.3212515  34.6558266
  43.0848007   0.6001974  34.0545464  43.4425430   1.1407882  35.4223061
  12.5129557  53.4740906  43.4467697  12.7129421  53.2766762  42.5317459
  12.4635897  52.6176147  43.8713150  34.6154366   4.2560945   3.0627956
  35.5219040   4.0659399   2.8211479  34.5261688   5.2003317   2.9336476
   9.1687040  38.9309311  17.2699757   8.9108181  39.8253670  17.0470219
   8.5452957  38.6631775  17.9451809  45.4345474  11.0138235   7.2122140
  45.9401512  10.7569046   7.9833107  45.3780289  11.9676199   7.2697492
  63.7620583  64.8120804  36.3331490  64.3744736  65.2810211  36.8999634
  64.2154846  63.9986954  36.1117096  62.7250938  38.0227089  10.4546385
  62.1789169  37.5864525  11.1085520  62.6077156  37.5031128   9.6593542
  34.3612709  38.9265213  11.1695671  34.0601997  39.4428444  11.9172287
  34.2214012  38.0173912  11.4344406  78.3852997  63.8577309  70.1670227
  77.4645920  63.7455330  70.4035187  78.4973221  63.3238792  69.3804550
  56.2576904  45.9091911  80.7245026  56.5462227  45.3220444  80.0257645
  56.6263924  45.5308952  81.5227356  81.0912170   7.7352099  17.6956768
  81.8659821   7.6056199  17.1487083  80.6739044   8.5188999  17.3380318
  21.6917267  48.7831993  82.8539124  20.9873009  48.2458839  83.2162781
  21.5016232  48.8271255  81.9168091  47.7709961  44.8073807  39.7429962
  47.1884346  45.2276573  40.3756294  48.0747452  45.5231819  39.1847878
  52.2034149  42.7490387  67.8051224  53.0238953  42.7566299  67.3121872
  51.5815697  42.3053513  67.2283325  54.8348389  21.6220837  78.8202515
  54.2537918  21.9612007  79.5011444  54.6558456  22.1715164  78.0571518
  62.2124100  25.2770100  32.2171288  61.8766632  25.8662815  32.8926048
  62.8792038  24.7555809  32.6640358  70.4508438  23.0723419  82.8275146
  69.8165054  22.4216003  82.5268784  70.2929688  23.1436443  83.7689056
  41.2532349  46.5579529  22.9189854  42.0849915  46.0914154  22.8367863
  41.4605675  47.3249397  23.4528179  86.3128510  13.5644064   0.6397521
  86.4448395  13.8729544   1.5361938  87.1288452  13.1156960   0.4182997
  81.3268433  53.2589951  44.1989174  81.0789719  52.4058151  43.8427238
  80.7739410  53.3651581  44.9730339   2.7013752  62.0413055  21.3919640
   2.2882204  61.1829224  21.2986012   3.4876759  61.8734360  21.9113693
  39.5599518  41.0403938  56.4721985  38.9479294  41.6030273  56.9466553
  40.2863998  40.9092789  57.0815544  25.2473812  45.9903603  61.0931244
  24.4789467  46.0697632  60.5279388  25.5640869  45.0996323  60.9430275
  81.1531677  67.7678528  81.2686081  81.1963348  67.0064163  80.6901703
  80.2421494  67.7951202  81.5610733  49.0318985  56.1303368  85.8583374
  48.7744484  56.9549179  85.4460068  48.2280540  55.6110229  85.8777313
  19.0277939  71.1393433  59.5694122  18.8960266  70.3678436  59.0183678
  18.1758213  71.5755692  59.5784340  71.2999115  37.4503288   8.0952024
  71.9784012  37.8069038   7.5218477  71.5816116  37.6906586   8.9778795
  81.5496063  61.8636246   6.9925208  82.1382446  61.6893196   6.2581110
  80.9300842  61.1340332   6.9812999  58.1542549   5.8438792   6.1657400
  58.8200645   6.3890543   6.5849195  57.4764595   6.4617620   5.8917985
  57.1725883  61.1667747   5.9254899  56.2966270  61.1312828   5.5412145
  57.5094032  60.2752037   5.8366709  35.1397591  46.0592728   2.1498275
  35.8936806  46.1283302   1.5641109  34.5539017  46.7626572   1.8700758
  30.8194809  68.9928818  65.3779831  30.4755173  68.5825806  64.5845261
  30.0458469  69.1579361  65.9169388  11.7183905   5.6653252  30.9332600
  10.8929367   5.3079629  30.6059208  11.7070589   6.5827971  30.6605873
  23.9562435  55.0646095  18.5557747  23.2116928  54.7305260  18.0555115
  23.5723190  55.6970558  19.1630993   9.2128639   8.5041618   5.3664951
   8.3958769   8.0747290   5.1128178   9.1724787   8.5505896   6.3217149
  10.0448217  71.5644150  39.5925446   9.2505884  71.9378433  39.2104797
   9.7872887  70.6846466  39.8680763  45.6589317  51.7710571  64.8147659
  45.8824615  52.7009773  64.8536758  45.9844170  51.4819527  63.9622955
  57.5770607  41.9552193  64.0279541  57.6301537  42.6601715  64.6732864
  56.7897720  42.1534653  63.5208969  81.4314651  37.3564262  84.9393234
  82.1006470  36.8180656  85.3619385  80.7631607  36.7312622  84.6586761
   1.0121913  11.8481112  23.2772522   0.3605084  11.1483498  23.2339439
   0.9312872  12.3029671  22.4389248  44.4090500  42.9091949  70.9114761
  44.2047729  42.5031433  70.0690842  43.7313919  42.5845451  71.5044479
  69.0881500  59.1124420   2.2206967  69.4637985  59.6965866   2.8794048
  68.4495239  58.5870667   2.7027469  59.1715927  67.6065369  69.9620972
  59.3557510  68.3470230  69.3841705  58.9256859  68.0083923  70.7953262
  83.5984650  30.7903156  30.4336796  83.3030396  31.6255398  30.7961102
  82.7952881  30.3570766  30.1448269  31.7879314  71.2943268  41.8313408
  31.6356106  71.5608749  42.7379723  31.1507301  71.7968140  41.3236847
  69.4291687  32.5504799  53.7225990  68.9248352  32.3459358  54.5100327
  68.8923111  33.1892128  53.2535248  27.0479832  68.1502151  63.8921967
  27.6005287  68.9279480  63.9699783  27.3495903  67.7212448  63.0914154
  38.0960808  55.5690804  82.5901566  37.3754311  54.9408264  82.5432892
  37.6906013  56.3753128  82.9092178  63.3869705  31.5936985   6.2578993
  64.1657639  31.0950203   6.0108624  63.3766747  31.5634422   7.2145658
  14.7337074   0.8869547  55.4014702  14.2653131   0.3119129  56.0065880
  14.6580868   0.4529795  54.5516586   0.7547330  53.2726212  13.2869081
   0.0576000  52.7118378  13.6271429   0.9518365  53.8727531  14.0060911
  76.4846725  60.7368240  12.9292221  75.7405243  60.8045311  13.5274630
  77.0062637  60.0133286  13.2766809  15.9031372  15.7484035   9.5807619
  16.3179607  16.3095455  10.2359505  15.1871490  15.3206797  10.0504913
  61.2962456  61.1423836  37.8697319  60.3615379  61.0225487  38.0376358
  61.4469337  60.7056007  37.0314293  18.0196095  40.2116852  76.3354568
  18.0996685  41.1065216  76.6657410  18.9090729  39.8604889  76.3772202
  79.8314285   9.0640221   5.3796883  79.4075394   8.2083540   5.3134823
  79.7264252   9.3129187   6.2979784  57.1915092  28.5194645  10.8915453
  56.4970856  29.0798512  10.5451736  57.8330612  28.4674492  10.1830683
  75.0085526  48.5680389  17.5605221  75.4444580  49.0912018  18.2332191
  74.2013931  48.2664032  17.9773369  55.9697342  11.6879492  15.9243832
  55.7176971  11.2745371  16.7500954  55.4668961  11.2189903  15.2584515
  13.7755537  61.8729057   9.5852509  13.7454262  62.7376633   9.1759644
  13.4285288  62.0126991  10.4663086   0.8369355  58.3297577  59.3102837
   0.0436512  58.8407059  59.4711075   0.6427640  57.4654503  59.6729240
  84.9848404   7.6156220  73.3458633  84.2805786   8.2309856  73.1419449
  84.5805969   6.7521691  73.2605896  44.5953140  46.9127617  77.0441132
  44.5618858  47.7058372  76.5091858  45.3110237  46.4002724  76.6681595
   1.8112564   3.4957395  42.6158409   1.4676009   2.6439309  42.8852005
   1.0490224   4.0746861  42.6230583  83.6701279  10.7452030  84.9981308
  84.1992340  10.8168716  85.7925720  82.7776566  10.9361401  85.2867126
  29.8802357  14.5975180   8.8154917  30.7114182  15.0689344   8.7595100
  30.0321541  13.9217987   9.4762163  50.5694618  66.0325165   9.3408661
  49.9634438  65.3243408   9.5587206  50.8204994  66.4018784  10.1874990
  30.8428898  15.4519663  85.8649445  30.1963959  16.0648689  86.2151260
  31.6842766  15.7905560  86.1709824  48.4420052   3.0071332  42.1358032
  48.1956062   2.5377495  41.3388100  48.4907570   2.3278596  42.8084412
  75.5836105  45.1242409  86.1828156  75.0139008  45.8739586  86.0108185
  75.3433456  44.4825325  85.5144501  42.6232452  17.2514477  75.1031418
  43.3071976  17.4833336  74.4749146  42.3401299  18.0893764  75.4691391
  40.4929848  62.8109741   1.7218761  39.9064789  63.4481354   1.3141149
  39.9569435  62.0249290   1.8268778   3.1210713  13.9902267   5.5991635
   3.1480248  14.1588373   6.5410104   2.7739370  13.1012936   5.5248194
  20.5885487  45.4381866  68.5528793  20.9503841  45.8514786  67.7689819
  20.1610031  44.6450424  68.2298279  66.0895615  60.3934669  38.4104767
  65.7641983  60.4025917  39.3106346  67.0219269  60.1939392  38.4948120
  27.8092651  65.5916061  53.8237610  27.1926098  64.9270706  53.5165787
  27.5118504  66.4029236  53.4120026  52.7934685  29.2115955  36.4393425
  53.0131531  28.6292896  35.7120934  53.4248924  28.9891071  37.1234741
   8.9123144  57.8545494  29.4248085   9.1139059  57.0005798  29.0422764
   8.1644659  57.6892891  29.9989548  38.7058411  65.5034409  52.6802368
  38.1942329  66.1724625  52.2253647  39.3436432  65.2070312  52.0309410
  16.4466419  38.3803215  88.8789520  16.5293121  37.6891823  89.5360107
  16.3152046  37.9123650  88.0543442  29.3999691  44.3032646  20.5200367
  29.0187950  44.1311913  19.6590328  28.8995628  45.0452614  20.8595505
   1.0925491  33.8509064   5.2115474   0.4790110  34.4680023   5.6102891
   0.5353531  33.2190742   4.7570667  29.7896004  55.7856979  42.3881874
  30.0933628  55.6830940  43.2900963  30.4641132  55.3606606  41.8584633
  26.9874592  51.0279922  33.1301193  27.8698788  50.6947021  32.9673843
  26.6824188  51.3265686  32.2733612  59.5338554  20.2762566   4.1242619
  58.8426361  20.8120728   4.5133004  59.5305290  19.4697685   4.6398168
  47.0784760  29.5482368   9.0526381  47.3878441  30.4484406   8.9518547
  46.6426392  29.5387478   9.9048052   1.7534955  23.6369686  23.1874866
   0.9435630  24.1353626  23.2963200   2.3149104  24.2046185  22.6594563
   1.3386385  14.4964113   9.7748432   0.5937780  14.8738680  10.2427549
   0.9763978  13.7342367   9.3230658   0.0354773  61.7544060  48.6996880
   0.3457132  61.7325516  47.7944221  -0.0963364  62.6841354  48.8853226
  10.1172018  49.9031067  36.2224617  10.4136114  49.6064034  35.3620338
   9.4147110  50.5249176  36.0324898  74.2686844   3.3773093  57.7907486
  73.9776840   3.4398215  56.8810005  75.0520782   3.9259341  57.8298683
  83.0574493  64.9760361  80.4326096  82.7770233  65.0103989  81.3471603
  83.6417770  64.2191086  80.3895416  45.3566933  61.2936821  29.4432793
  44.9192772  60.4425278  29.4224815  46.2098846  61.1149101  29.8386745
  30.6228542  43.3440590  88.7821274  29.8179035  43.4579735  89.2874069
  31.2928467  43.7978096  89.2934494  65.2374191  52.9347458  42.2944374
  65.8597031  53.6608391  42.3367386  65.2599792  52.5486565  43.1700287
  25.8561153  48.9168358  76.7653198  25.1591911  48.3338432  77.0663910
  26.1261272  49.3928680  77.5506363  40.8326569   2.6495318  80.6984482
  40.6957855   3.5955944  80.6488113  41.6231537   2.4944425  80.1814423
  25.8568058  15.7398949   7.5896721  26.6579704  16.1545219   7.9097524
  26.1446152  14.8919706   7.2514100  61.1416550  62.6511612  77.1637650
  61.3693504  63.5806122  77.1862640  61.5455818  62.2864799  77.9512177
  75.6504974  12.0980129  60.6094208  74.7543182  12.4254694  60.5327988
  75.6264648  11.2352695  60.1955032  17.4196148   2.2947216  29.2809887
  17.9447670   3.0734460  29.4654770  16.6493359   2.3869345  29.8416996
  51.8832550  52.5987129  85.1606827  51.2231331  52.0104752  84.7940063
  51.5796890  53.4755707  84.9257355   1.9816146  30.4046345  32.9994469
   2.7492492  30.8419552  32.6310463   1.7331604  29.7591152  32.3377762
  77.9233627  51.0530396  59.5804405  78.5812149  51.1789246  58.8966179
  78.4009094  50.6379852  60.2987099  56.8678741  67.5727997  44.1081352
  56.8018456  67.8652802  43.1991119  56.4239998  66.7248230  44.1197472
   7.1203222  37.3311501  67.9293976   7.8524766  36.7187271  68.0009613
   6.4746652  36.8709526  67.3931351  26.3679695  70.4230881   9.6944838
  25.4940510  70.7549515   9.4886503  26.4506016  69.6255646   9.1716452
  14.8457346   5.1562023  86.8567810  15.3751678   5.3443756  86.0818481
  14.4601479   5.9995809  87.0939865  30.0018425  24.1905441  87.5950317
  29.1457977  24.6187458  87.5871353  30.6178875  24.8906918  87.8106995
   2.8280714  27.2432346  26.9848366   2.9180183  26.9409847  26.0810738
   2.9977856  28.1842346  26.9406967  37.2991829  49.8836784  51.0101509
  38.0371056  50.0086174  51.6068840  37.4440498  50.5232811  50.3129005
  69.9231720  65.9047241   6.8222237  69.8271179  65.1086807   7.3450217
  70.3255768  65.6080856   6.0059490  14.0989294  21.2998466  10.5246468
  13.5560722  21.6111202   9.8003225  14.4637680  22.0964508  10.9100647
  80.8631134  67.7855759  16.3316574  81.3065567  67.8730240  17.1754246
  80.7060318  66.8458176  16.2398987  87.1150742  62.1374969  10.9650269
  86.4972458  62.8528175  10.8139191  86.5824814  61.3443909  10.9053497
  50.1739845  65.1984253  33.1639099  49.7529297  65.9354095  32.7214203
  49.4611244  64.5830994  33.3355103  53.6430893  25.3089352  24.2558403
  52.9875832  25.5519009  23.6019974  53.6973991  26.0693951  24.8346157
  74.1595001  46.1329994  39.1385803  73.7660904  46.9108658  39.5340347
  74.6478577  45.7224770  39.8521729  79.7052307  33.2341766  47.9242592
  80.2893829  33.7428818  48.4865952  79.0726318  32.8435135  48.5271111
  45.5739899  63.4826279  45.4496498  46.1477890  63.3751602  44.6910744
  45.8471107  62.7941742  46.0560036  52.1498222  20.7732277   5.7526908
  52.9206505  20.2275009   5.9083734  52.5041237  21.6014404   5.4290171
  70.5595398  46.5676727  84.9627075  70.0013046  46.2744713  85.6828842
  70.9302063  47.3954468  85.2686920  60.4039116  40.4396477  31.6736965
  60.6578217  40.9564362  30.9090462  60.9510078  40.7768364  32.3830795
  35.4715881  71.2627563  78.2864532  36.0278053  71.4607468  77.5330200
  36.0567055  71.3317642  79.0408401  24.6983032  29.9900894  53.4263191
  24.5653648  30.7377720  54.0090103  25.5941887  29.7039280  53.6044502
  23.0780621   3.5366254  11.5004053  23.3447704   2.9743180  12.2276669
  23.3065529   3.0380638  10.7158928   2.9998522  67.1157608  85.6374893
   3.7244065  66.7213364  85.1520157   2.7886851  66.4742432  86.3157883
  42.2710228  59.9415703  70.2017441  42.2904205  59.2256393  70.8367996
  42.7340851  60.6586075  70.6349487  70.3280182  62.6221161  14.0984802
  69.9100037  62.6888580  14.9569893  69.7805710  63.1566467  13.5233202
  13.1076508  42.7485847  61.0699310  12.2471476  42.9917412  60.7284012
  13.5331955  43.5838127  61.2636719  66.1984329   9.4040699  31.4927711
  66.1538849  10.3379250  31.6981030  66.1888504   9.3684216  30.5362835
  22.4220619  39.4273109  77.2744675  22.6582832  39.3572350  78.1994095
  22.6229534  40.3343773  77.0440216   5.1034641  39.9681015  64.8903351
   5.5706124  40.1008148  64.0654755   4.6833515  40.8100891  65.0658188
  63.0657387  42.2838631  28.6400738  63.0329399  42.9945068  27.9996490
  62.5006104  42.5787086  29.3541679  38.0378571  44.3831596  25.7785816
  37.9032402  45.3017845  26.0114803  37.2769318  43.9300156  26.1417427
  54.9167252   7.4180913  10.6665049  54.6463280   6.5953503  11.0741997
  54.5788918   8.0971403  11.2504530  74.8114624  53.6072235  31.2876244
  75.5399475  54.1407623  31.6052284  74.2626190  53.4675369  32.0593071
  21.4365005  16.6427097  86.8425903  21.0037231  16.1603031  87.5470200
  21.1240292  16.2257614  86.0396271  56.6569290  43.4754105  29.8936234
  55.9476357  43.1947899  29.3153610  56.2255135  43.6667938  30.7263813
  71.1860809  25.1922607  75.0127258  70.5873566  25.8946114  75.2666321
  71.1408997  24.5661087  75.7353058  59.7621956  52.6237030  50.9395103
  59.3607101  52.0730972  50.2672920  59.1122284  53.3052750  51.1104927
  75.6802216  42.9057541  26.8337803  75.0002823  43.0408173  27.4938374
  75.3205109  42.2351952  26.2531052  82.9538040   0.0809527  19.7881012
  82.3399506   0.7383265  20.1156368  83.7882767   0.3066174  20.1991520
   0.8945051  53.6071320  26.9061775   1.7103236  53.9308548  27.2881145
   0.9657525  53.8178062  25.9751720  85.4233627   4.7900128  23.4958611
  84.7471924   4.1201215  23.3945198  86.2396088   4.3418918  23.2741394
  10.8148127  22.5629635  23.8266411  10.6311111  22.6376839  22.8902092
  10.1315660  21.9808025  24.1590462   6.2724400  50.5852776  64.4687729
   6.9499259  50.1790352  63.9282074   6.1851192  50.0014076  65.2222366
  24.6674843  48.8962975  27.3579121  25.4245796  49.2257118  26.8736324
  24.0491543  49.6269722  27.3616734  17.0996532  61.0108757  51.8518791
  16.6918411  60.4335899  51.2063866  16.4326782  61.1215363  52.5294724
  70.9816513  40.3704147  34.7527390  70.9495544  39.8638725  33.9411850
  71.8415451  40.7906685  34.7389183  38.7447357  26.6904888  10.9158096
  39.5820236  26.7472267  10.4554129  38.4738541  27.6010036  11.0333509
  10.1382065  44.6665382  64.5121918   9.7639465  45.3576126  63.9657745
   9.8704700  44.8938484  65.4026337  36.7480583  57.6878853   2.6515334
  36.9050636  58.4475288   2.0907071  37.6226654  57.3613586   2.8628969
  16.5540314  51.8034363  70.7037201  16.0863762  51.3695259  71.4173355
  15.8633966  52.1855850  70.1622238  33.4937859  56.8065071  20.7721310
  33.0443306  57.4004364  21.3733559  34.4009094  56.7977982  21.0775452
  62.2574577  15.4120026  32.1952972  62.9348564  16.0582905  32.3944817
  61.4336357  15.8665047  32.3713036  71.0749130  50.9226952  67.6906815
  70.2638855  51.3500252  67.4152756  71.2566299  51.2888947  68.5561981
  39.8804855  67.6988297  64.5828629  40.4520340  67.3537369  65.2687683
  39.6312828  68.5690460  64.8940811  17.4519272  13.2124424  66.3181076
  16.7408772  13.8462267  66.4127502  17.1343346  12.4276934  66.7648010
  51.0206718  68.0335007   1.3873891  50.1338654  67.7763138   1.1350718
  51.5714073  67.3035278   1.1044401   7.8128419  56.3207970  45.0439339
   8.1951485  55.4676399  45.2493553   8.5518703  56.9283028  45.0755959
  59.7972717   1.0148556  19.3329144  59.1653442   0.4621557  18.8731098
  59.7284584   1.8668085  18.9020157  23.2349434  49.7767258  57.8955078
  22.5729084  50.2968826  57.4401207  22.7326164  49.1263809  58.3863754
  59.4382706  53.3245888  80.1966705  59.1611443  52.4761353  80.5424500
  60.3469925  53.4149017  80.4835587  82.2829132  34.0601921  65.6956711
  83.0320969  33.8162384  65.1521301  81.5590820  34.1561356  65.0767212
   7.2153234  24.7184181  23.6638794   7.0809741  25.5634766  24.0928993
   7.9439855  24.8687134  23.0616379  49.8306122   0.2797475  77.4827271
  50.6170845   0.7545549  77.7515259  49.9737549  -0.6149428  77.7913895
  76.9150085  42.5684967  55.2898331  76.1876602  41.9516411  55.2081032
  77.3545685  42.3143501  56.1012688  54.5080338   2.0204816  17.9033508
  53.9015694   1.6329128  17.2723007  54.6071625   2.9275863  17.6142712
  47.6464386  16.2924805  57.0582123  46.8839798  16.8663979  57.1324043
  47.6621475  16.0329666  56.1369972  13.5679379  46.8606834  30.6871681
  14.0692396  46.4732819  31.4046974  14.2220840  47.0565147  30.0163651
  22.4022083  59.4153938  17.3643265  21.4673386  59.2540016  17.4916191
  22.8175774  59.0435715  18.1424332  12.2492294  52.7489929   3.5388675
  11.9570141  53.1725922   4.3459640  11.8649845  53.2766533   2.8387523
  53.3156891   5.7205234  66.5023193  52.6436195   6.3572521  66.2591400
  54.0376968   6.2511411  66.8390350  14.0481272  35.7818375   7.7634726
  13.2198133  36.1436119   7.4484377  14.4637556  35.4187164   6.9814067
  29.8043346  61.9752693  81.9741211  29.1633720  62.4996567  82.4541321
  30.1950054  62.5868950  81.3500061  75.3884811  23.3716278  70.7389221
  75.1027374  22.4600353  70.6790466  75.8776093  23.4158382  71.5605240
  60.7415085  51.5375938  67.5066223  60.9235573  51.6275978  66.5712128
  61.3052597  50.8186874  67.7922516  22.6938400  51.4373932  74.7808609
  21.8525009  51.7244225  74.4259033  22.8621197  50.5992889  74.3501663
  16.0514183  64.9669724  40.4533348  15.3640738  64.3253784  40.2740593
  16.3965511  64.7152176  41.3099174  36.2937164  57.4976006  83.9984589
  36.2184792  58.4125862  84.2693405  35.3919945  57.2213783  83.8346710
  53.4696236  27.2088470  81.3581848  53.7724724  27.0443764  80.4651794
  52.8298378  27.9150677  81.2678757  45.4078598  39.8920746   5.8733869
  45.2122459  40.2481079   6.7401085  45.4336357  38.9441872   6.0040641
   6.4175019  60.7184296   5.4367127   7.3364754  60.9861298   5.4292388
   6.4463096  59.7655220   5.5225692  83.1188507  60.3661003  33.3088799
  82.4481583  61.0314598  33.1549263  82.9076385  60.0081406  34.1711349
  10.5067368  57.4337578  45.7325859  10.5942802  57.4072838  46.6854057
  10.9495487  56.6412010  45.4292679  79.7955246  13.4961767  80.7685852
  80.1928711  13.7927771  79.9498215  79.7821121  12.5417995  80.6963654
  52.2560806  47.7403641   3.0816159  52.9321709  47.9813194   3.7149205
  51.6472282  48.4789314   3.0885906  55.9059181   7.5770807  72.4490891
  55.0621529   7.9840231  72.6457825  55.7269440   7.0023422  71.7048569
  68.2133102  13.6678696  62.2463608  68.1080170  14.5842571  62.5020485
  68.2922745  13.1955175  63.0751419  47.1096382  31.1307716  66.9381104
  47.4197731  30.8816376  67.8087311  47.1384430  30.3187332  66.4321518
  29.3444500  37.2675209  84.0439529  30.2689533  37.2441711  83.7970123
  29.3524437  37.2805901  85.0010300  32.7132301  61.7221947  52.5017357
  32.7134018  62.2783394  53.2807961  32.0059013  62.0705032  51.9589653
  86.3940353  27.1918240  37.3626022  85.9970474  26.4426098  37.8068047
  86.3587875  27.8986340  38.0071259  14.2214127  36.8362885  73.2119370
  14.8127260  37.4687347  72.8037796  13.8649473  37.2971840  73.9713745
  61.7017708  51.5352364  37.0468788  60.8100395  51.4411201  37.3818245
  62.2517586  51.1164360  37.7089615  60.7239685  39.6943932  35.9832497
  60.3401604  39.5072098  36.8399200  59.9715500  39.8524590  35.4130669
  81.1947021  45.7912903  70.0900650  80.9777069  46.0145187  70.9952240
  80.5461884  46.2608643  69.5655060  70.3885574  27.8836155  67.1480255
  70.3935165  28.7798958  67.4840164  71.0892944  27.4435616  67.6292343
  46.6593246  56.4628067  69.2083588  46.3005753  55.6063499  69.4407578
  46.0502625  57.0909538  69.5965652  55.0481377  44.4296913  36.6933517
  54.7881317  43.7636490  37.3297615  55.1832848  43.9437904  35.8798027
  61.3321648   9.0869408  83.7437668  60.6883011   8.3827496  83.8198471
  62.1774826   8.6380863  83.7296906  66.4947357  66.5129471  44.7046318
  65.7598114  66.2650604  45.2655869  66.8551025  67.2988663  45.1153603
  55.8159027   7.0459218  53.4496193  55.3056259   7.8515534  53.5321236
  56.5529556   7.1668844  54.0482407  71.0546799  42.1850357  57.7829056
  70.9610901  43.1107178  57.5579948  70.1558762  41.8683548  57.8728752
  40.9896355  37.4996147  16.2232437  40.0635643  37.2820282  16.3294544
  41.1544876  38.1735420  16.8826923  29.5146961  36.7705154   9.3039932
  29.6989059  36.7329025   8.3654385  28.6305447  37.1329384   9.3602057
   7.4353666  66.6992340  18.3142319   8.2239447  66.4567642  18.7996025
   6.8473029  65.9520035  18.4240284  10.4956751  39.0537300  62.6333160
  10.8890944  38.5580292  63.3514633  10.1650686  38.3849640  62.0335808
  13.1129551  64.4477234   9.1317329  13.8577614  65.0373459   9.2494001
  12.8874941  64.5286484   8.2049904  37.4001236  29.1973209  66.8949966
  37.8778763  29.7545528  67.5093918  37.8977470  28.3798523  66.8763123
  75.3953781  40.4100952  71.3724518  74.4795380  40.5463905  71.1297836
  75.6560059  39.6241913  70.8921814  85.3680191  25.4180756  67.8707123
  85.2643204  24.5186195  68.1812897  84.7310333  25.9214725  68.3777466
   1.4264975  70.3570328  82.6916885   1.2232568  71.0786743  82.0965805
   2.3829160  70.3217392  82.7074966  43.8059578   2.9705820  51.0047340
  44.6309013   2.7605612  51.4424400  43.3734894   3.5895503  51.5930214
  31.6076927  19.9078064  77.8581085  31.1382103  19.3373394  78.4666977
  31.2418213  20.7782784  78.0150986  48.3876572  23.9300499  58.6841202
  47.9906654  23.0598354  58.7209206  49.2644424  23.8089256  59.0485497
  70.1166687   9.0425711  74.0455780  70.0587082   9.1650467  74.9931412
  69.3385849   9.4797010  73.6995392   1.5936451  17.7573814   9.4268227
   2.0174639  17.0324669   9.8862858   0.6594766  17.5524082   9.4661465
  70.6710205  34.1942940  70.2048874  70.8393021  33.7880325  69.3546753
  71.4657516  34.6934128  70.3933411  29.5541096  69.9641113   7.2975545
  29.4749870  70.5567017   8.0450897  29.8289490  70.5269775   6.5737596
  72.9261169  43.2058983   7.9910870  72.2762070  43.7824974   8.3928213
  73.2867889  43.7187500   7.2678089  82.7707138  19.0218811  85.8329163
  82.7806015  19.5382080  86.6388550  83.6864929  18.9926987  85.5559158
   5.5342035  39.8344688  12.5979004   6.3453445  39.4352837  12.2833633
   4.9156189  39.1062889  12.6556950  19.3453064  18.7052879  80.2048950
  19.5621872  17.8991699  79.7365341  20.1787720  19.1698418  80.2807770
  34.6485138  57.8749886  87.1119080  35.5689850  57.6154442  87.0718918
  34.2244034  57.1771965  87.6113586   6.6428666  46.0498047  77.1020813
   7.4572768  45.6208344  77.3646698   6.1491609  46.1454926  77.9165344
   2.8058555  58.6254234  39.5753517   3.3362131  58.5791435  40.3708458
   3.3383567  58.1941109  38.9070396   7.3372054  32.1653366  63.8766136
   6.8465414  31.4715652  63.4359703   7.3330531  32.8934021  63.2552147
  27.4932728  69.0807800  48.4768372  26.8929043  69.4558105  49.1211548
  26.9222679  68.6629257  47.8321800  36.4080734  63.3432426  60.3295403
  37.2348328  63.3660088  60.8113976  35.7508850  63.1284027  60.9914894
  63.0601807  29.3024788  50.7315750  63.6187859  28.8483639  50.1007271
  63.6678581  29.8175049  51.2623367   4.8425403   3.0046711  62.5549088
   4.5090046   2.1274753  62.7433548   5.3020835   2.9120092  61.7203636
  14.1875772  19.8169193  15.0572405  14.8999596  19.2856903  15.4129601
  14.6164999  20.6122761  14.7415400  58.6231232  53.4127769   5.6735673
  59.0480080  54.2593918   5.8112288  57.7481155  53.5204964   6.0463834
  10.8767748  63.6326065  31.9435081  11.3436852  64.4103241  31.6379318
  11.5680151  63.0013657  32.1433945  79.3059616  59.5105133  19.3452778
  79.4171677  59.3140602  20.2754765  78.7722702  58.7899055  19.0104256
  25.1543484  64.0061035  28.4262524  25.9897575  63.6826477  28.7634468
  25.3976917  64.6514969  27.7625599  64.8794785  64.8485031  46.0801620
  65.5408173  64.8182602  46.7715034  64.7426453  63.9322548  45.8393478
  77.5075836  42.1910858  72.1380768  76.9104843  41.4874535  71.8838882
  77.2433395  42.4191742  73.0293579   3.8098397  31.4925346  31.7415028
   4.1309438  30.9364090  31.0316792   3.9140213  32.3852463  31.4122009
  12.6871643   8.7327948   7.0912046  12.5430546   7.9604096   6.5445013
  13.0852528   9.3729029   6.5012732  65.5295563  45.8799629  47.4219322
  65.7524338  46.7597809  47.7260361  66.0166550  45.2952995  48.0025673
  62.6635780  67.1911316   3.3979151  62.3527946  67.9127808   2.8512249
  61.8766251  66.6823349   3.5930190  30.0712395   5.5599365   8.6391764
  29.7632198   6.4615016   8.5467806  30.9004383   5.5399752   8.1614084
   7.3383937  38.7959671  19.2487316   7.8651400  38.4867630  19.9857254
   6.5611119  39.1800766  19.6543484  21.1970711  59.8609467  13.2255726
  21.6658592  59.0267792  13.2004213  20.7259998  59.8961525  12.3930559
  75.6552887  14.0388975  63.6063461  75.4729233  14.8416243  63.1178741
  75.0314255  14.0532351  64.3321686  73.5870819  43.8785782   2.6705256
  73.0763474  43.1604233   3.0442059  74.3996201  43.8832169   3.1764722
  73.7491150   7.6052556   5.5218606  73.6339340   7.9610863   4.6407537
  74.1349030   8.3244238   6.0220580  29.6239357  61.9785385  32.2648010
  29.4171505  62.5903931  32.9712715  30.5758934  62.0267715  32.1771469
  85.7948837  67.0448761  82.4004517  86.3739090  67.4405746  83.0518951
  84.9288330  67.3983078  82.6036224  48.0831070  49.8475990  71.3787231
  48.6381226  50.1504936  72.0973587  47.6643600  50.6423302  71.0481415
   0.9154864   9.0124645  65.3840256   0.9553591   8.2379723  65.9450989
   1.0549328   9.7478752  65.9806442  41.4852600  59.1280937  65.1378479
  41.9626083  58.6254005  64.4777985  40.5858536  59.1583633  64.8116837
  63.0697021  61.5099068  51.6531258  62.8436317  60.9429131  50.9158020
  63.7873497  61.0549698  52.0938606  67.0336761  69.3751755  56.9246216
  67.6541977  70.0379944  56.6215324  66.4961166  69.1813889  56.1567001
  15.0550356  58.9729843  50.7049446  14.2789879  58.4332924  50.5542374
  15.1088161  59.0545464  51.6571465  40.1761360   7.7575674  71.9784927
  39.8880424   7.5765920  71.0838013  40.1053963   8.7082014  72.0652313
  43.8754845  44.1333618  82.6263046  44.6529617  44.6596794  82.4398804
  44.1188240  43.6083908  83.3888092  27.2493782  43.9635124   9.5639915
  27.2569962  43.0627022   9.8875847  28.1050701  44.3140717   9.8112383
  83.1910858  35.9234428  23.1001358  83.8169250  36.6306038  22.9436665
  82.8838348  35.6780586  22.2274284  35.5417900  43.4127655  17.5426025
  36.4675713  43.1952972  17.6515293  35.2805557  42.9547462  16.7437248
  83.5461426  49.3628159  55.2325439  82.9377060  48.8639908  54.6873741
  84.2098846  49.6813736  54.6208267  62.6520081  42.9173546  13.6172218
  62.9425392  42.0230331  13.4382992  62.4285316  42.9148941  14.5479650
  80.5816574  36.8068848  27.7887630  81.4586945  36.4907761  28.0058155
  80.1165085  36.8159828  28.6252937  55.8752708  53.2238884  27.9450226
  55.2986641  52.4610062  27.9029865  56.7162895  52.8726311  28.2374916
  44.7422256  55.4284630  58.7202759  45.2484932  56.0783997  59.2076225
  45.3587761  54.7133522  58.5630569   8.7577763  52.9441414  77.5933228
   8.7334127  53.3705063  76.7366714   9.6582346  53.0640678  77.8950195
  78.4013672   5.9100161  19.9981079  79.1671295   6.4820461  19.9468307
  78.5146637   5.4311662  20.8191433  72.4671555  27.1533928  17.9815178
  72.6363754  27.7739067  18.6904316  72.9516373  26.3665276  18.2312145
  21.7086964  51.0120697  70.7700272  20.9530888  50.6125526  70.3391266
  21.5663185  51.9541626  70.6782684  18.0195618   1.5325367  44.5326767
  17.3071404   1.1544536  45.0481758  18.8166637   1.2334403  44.9701729
  73.0980453  64.7089920  46.0306168  72.1913300  64.9542084  46.2149086
  73.2616348  65.0420609  45.1482735  19.3378258   8.2083311  21.1318054
  19.6497231   8.0907555  20.2345161  19.9186497   7.6615353  21.6608505
  80.1772842  54.5312881  10.1276836  79.9479980  55.0716324   9.3715801
  80.3852692  55.1610527  10.8178806   3.6948965  49.0841599  80.9912338
   4.3087397  48.9482307  80.2694626   4.1400142  48.7194061  81.7561188
  73.2253799  61.4602470  10.0927811  73.5732193  61.9208755   9.3291969
  73.9620743  60.9412651  10.4155416  47.4458275  24.5722942  77.4049759
  48.0581207  25.2951298  77.2677307  46.8296127  24.6386013  76.6755142
  45.2726936  70.7656174  62.5540886  46.2278976  70.7040558  62.5596962
  44.9790230  69.9056168  62.2534332  57.2602463   1.5609198  64.4610443
  57.1318893   0.7724077  64.9883041  58.2102203   1.6376350  64.3722153
  21.0526657  45.1780663  57.9520645  20.6074505  44.4006348  57.6149902
  20.7114964  45.2832718  58.8401909  21.0590992  65.1062775  88.9726028
  20.7831173  64.3205032  89.4444275  20.2407703  65.5340118  88.7203827
  60.4032784  10.9780502  42.5227890  61.3165779  11.2522583  42.4395714
  59.9004822  11.7864943  42.4235458   0.4016588  56.2014198  24.3463116
   0.5725134  55.2880821  24.1164169   0.5612779  56.2449837  25.2891045
  17.9207573  65.9039764   0.0869765  17.7854118  66.5996475   0.7303686
  18.0820312  66.3664169  -0.7354428  54.9745522  69.1172409  68.0991974
  55.1109543  68.1698380  68.0920868  54.1600533  69.2456131  67.6130447
  21.1932735   9.5755644  62.2149048  21.4241619   9.0885448  63.0059395
  20.7890415  10.3805494  62.5386772  17.4532223  49.0277863  15.6573830
  17.7093830  48.4274445  16.3575268  16.5725441  49.3150444  15.8984613
  83.5598221  15.3772812  82.9102325  82.9965363  16.1250572  83.1096497
  83.7883377  15.0145836  83.7660751  82.9219284  45.7263031  27.0409088
  82.7836838  44.8723412  27.4506245  82.3846970  46.3286362  27.5555077
  83.8583679  45.4887009  56.7438049  83.7404022  45.1659660  57.6372032
  84.1692810  46.3874054  56.8528900  60.7545547  12.2909842  26.8268127
  60.9202499  12.2493057  25.8849850  59.8371086  12.0344610  26.9201794
  66.8814545   9.9613791  65.5987320  67.7112732   9.7738676  66.0374527
  66.2183685   9.8392382  66.2781677  54.5155525  26.3527699   2.7957470
  54.5741806  25.6662102   2.1313457  53.6144066  26.3013992   3.1143789
  56.4265366  43.1320686  55.2106514  56.8125687  43.4197922  56.0379524
  55.8100357  42.4438095  55.4605713   5.0257530  38.6701317  86.7237244
   4.7299294  39.1900635  87.4709778   4.4852967  38.9713554  85.9933777
   0.7485815  41.0930519   5.3445878   0.1974227  41.7052994   5.8320379
   0.6996842  41.3963470   4.4380269  75.1476288  52.9244423  74.1669693
  75.0779266  51.9705353  74.2049255  74.3109360  53.2113571  73.8011169
  57.6278267  45.6375008  23.4058704  56.8115768  45.9342346  23.8082561
  58.2812843  45.7206421  24.1003590  31.3160553  45.5982590   7.3986197
  32.2697945  45.5247192   7.3639002  31.0924797  46.1648254   6.6602111
  54.4965820  45.1523476  54.4467659  54.8563118  45.9892120  54.1526833
  55.2652931  44.6188622  54.6485214   3.9674978  40.6033516  57.4250526
   3.4080138  40.9538841  56.7319908   4.5003810  39.9382477  56.9892769
  23.0041332  57.1374893  48.7894745  23.1176701  56.9662895  47.8545799
  22.3853321  56.4683838  49.0820808  68.3070908  37.5506935  22.2041016
  68.9732895  36.9380302  22.5156364  68.3506546  37.4871216  21.2500095
  26.3878193  58.5519485   6.8983612  25.8788834  58.6110878   7.7068892
  25.7788315  58.1833611   6.2584333  23.9424210  26.2467518  83.0508041
  23.5326500  25.3873768  82.9518356  24.8750610  26.0570602  83.1529388
   4.4221506  67.9245987  54.1751938   3.5084941  68.1999893  54.1001968
   4.4348502  67.3407822  54.9336357  64.6948242  71.4063797  39.7464561
  65.4606018  71.0225143  40.1736107  64.7231064  72.3315353  39.9904251
  80.7086716  70.0070648  14.8382463  80.5225830  69.1458130  15.2122221
  79.8945618  70.4978561  14.9503975  67.3328705  31.2373619  70.6554565
  66.9297409  31.9740047  71.1148911  68.2704773  31.3360481  70.8209305
  67.1280975  26.4798584   9.0280371  67.4203720  26.4097309   8.1192503
  66.3694153  25.8986454   9.0811625  47.7434235  25.7429333   3.4316468
  47.6830673  24.9662857   3.9878891  48.3923988  26.2976761   3.8644586
  45.0777817  44.1254768  32.5039787  45.6229095  44.5578842  33.1613159
  44.6086388  43.4474907  32.9902611   3.3607628  37.9069519  36.7850761
   4.3102274  37.8578682  36.6739922   3.2296784  37.8963356  37.7332001
  72.3519745  22.7951679  49.0485725  71.8941803  22.0861340  48.5969925
  72.9653473  22.3500729  49.6332932  61.3777542  69.0013885  41.4234810
  61.2222366  69.3584671  40.5490990  61.6082268  69.7629013  41.9556656
  11.3367643  58.2108536  12.8013611  10.7913160  58.4716377  13.5434599
  10.9858236  58.7053375  12.0607147  12.4212751   6.2990203  43.6707191
  12.7428036   6.9977660  44.2404633  12.6152105   5.4923801  44.1481628
  60.8519707  62.6342697  66.1880951  61.6610413  62.9715385  66.5726547
  61.0156822  62.6371384  65.2450027  56.3652000   1.2137648  30.8173141
  56.7198372   0.8535249  31.6301441  55.6709137   1.8082054  31.1016293
  67.4816895  48.4065628  25.3669586  67.6319199  47.8113708  24.6325169
  68.3148956  48.8643074  25.4785976  30.6480217   8.6900406  34.5675812
  29.9190102   9.2991810  34.4504471  31.1984787   8.8240900  33.7960510
   7.2777438  14.8792105  67.0458832   8.0233974  14.3077984  67.2295151
   7.6697555  15.6802063  66.6980896  12.9994335  57.3076897  18.9263592
  13.7231846  56.8655357  18.4826088  12.7774076  58.0399437  18.3512592
   1.0178441  61.4001312  77.4802322   1.3027667  61.6710014  76.6074905
   1.0445651  62.2029457  78.0008163  21.0262051  31.1069565  80.6083145
  21.1102047  31.4780674  79.7299957  21.2903194  30.1923828  80.5081711
  66.4907455  31.2618961  11.1482916  66.1631012  31.9201908  10.5354853
  67.3795624  31.0748215  10.8462343   4.3327599  13.0865011  21.1889877
   3.9839606  13.3393288  22.0437679   3.8356905  13.6123743  20.5624008
  27.2763634  52.7264061  52.8120270  26.7434063  52.0163345  52.4542770
  27.6002331  52.3860245  53.6459808  44.6082573  47.6151390  39.7290916
  44.1680984  46.7765656  39.5902023  44.4380836  48.1105461  38.9279404
  63.5307961  17.9513245  32.3386078  64.3242188  17.8114166  31.8217564
  62.8984261  18.3080635  31.7148495  82.0508423  53.2595558  22.2897816
  81.3233032  52.9926567  22.8516312  82.1140747  52.5653267  21.6338253
  66.9755859  58.9899902  33.7812462  66.1247406  58.5619736  33.6858902
  67.5009766  58.6416817  33.0609169  28.1507454   9.9608307  19.5910263
  27.9768391  10.4138041  20.4161339  27.7472076   9.0998201  19.7008018
  83.0269012  27.7080040  40.3568115  82.7533340  28.5991344  40.5742455
  83.9212723  27.8050804  40.0298462  29.9690800  71.2484131  68.0122986
  29.3946323  70.8397903  67.3647842  30.1252480  72.1293106  67.6719131
  51.6857605   7.7514338  65.7856369  51.1279182   8.2102823  66.4137344
  52.1556587   8.4488697  65.3284607  63.0412674   2.6606944  88.3624420
  62.1553345   2.3157678  88.2511749  63.4084816   2.6673284  87.4785080
  17.4378986  58.1106071  13.0849600  17.4148407  57.4916153  12.3552017
  17.8227139  57.6146927  13.8076057  73.5276718   9.3059750  11.2677021
  73.2468109   9.1469593  10.3665552  74.2420425   8.6847582  11.4090862
  63.4245644   5.1598620  65.0669556  62.6158295   4.7622395  64.7443466
  63.3644753   6.0766220  64.7983017  15.3203192   3.3837152  75.4726410
  15.3858166   2.9453394  76.3210297  14.5294943   3.0192628  75.0751495
  18.4578857  60.7220039  34.6783524  17.7377834  60.4567108  34.1062508
  18.4847641  60.0482178  35.3577042  77.8110504   5.6264710   2.0315557
  77.8875275   5.1222992   2.8416128  78.0803833   5.0173874   1.3440194
  72.8523026   6.1363134  46.9196358  73.1220016   6.9540644  46.5015717
  72.9470978   6.3040342  47.8572464  83.0400009  52.7990761  49.0026665
  82.8479462  53.7007675  48.7451744  82.2733765  52.5253334  49.5062294
  76.9820938  54.2113953  79.9257736  76.5032883  55.0214653  79.7503891
  77.3107071  53.9372368  79.0695724  53.4609642  54.3300400   5.9563746
  52.8798447  53.5942192   6.1489906  52.8763390  55.0845680   5.8847203
  19.8477669   5.7609267   9.4523640  20.0577278   5.1623397  10.1691914
  20.3652325   6.5450397   9.6357431  33.8000221   2.1655896  57.7300110
  32.9934196   1.6786200  57.5612450  34.4226036   1.8283877  57.0858688
  12.6924896  66.2799301  33.4378014  13.2062016  65.5169678  33.7027893
  12.5194178  66.1405182  32.5067558  24.6367321  32.2859421  63.3141327
  23.9741688  32.8391113  63.7279510  24.7324181  32.6457710  62.4323158
  31.0904865  56.1226158  60.3305168  32.0035820  55.8692818  60.1952133
  31.1214371  56.7563591  61.0472069  53.9776077  16.7762623  30.6447830
  53.2560081  17.3890362  30.7863293  53.5760460  15.9109755  30.7239075
  46.1352921  42.9091797  21.6874695  46.2673073  42.3869896  20.8961906
  45.2052078  43.1349297  21.6730499  74.7875137  68.4321899  33.4329071
  73.9541626  67.9659805  33.4992981  75.1435318  68.4140778  34.3212509
  12.7978630  66.5562820  77.0849457  11.9987354  66.1156387  77.3738327
  12.8882179  67.3018112  77.6784592  72.7308197  47.1811981  18.5642090
  73.0335999  46.4073753  18.0890732  72.7323227  46.9137344  19.4832821
  60.0268898  35.3676796  77.8785934  60.3954468  35.7216492  77.0692139
  60.7663155  34.9417915  78.3123016  82.2882156  26.5036888  42.6812019
  82.2185669  26.5894890  41.7304039  81.4412613  26.8034554  43.0114174
  32.8304596   4.0768123  35.4093590  32.0845795   3.4985960  35.2494850
  32.6708794   4.8346877  34.8468742   9.1331520  58.9552650  71.9135361
   9.1243114  58.5729561  72.7910233  10.0215101  59.2962761  71.8097916
  80.8598022   8.2274666  49.6735001  80.9973831   8.6856127  50.5025978
  81.6976471   8.3021240  49.2166901  63.6929893  15.6853199  87.6852417
  63.8721046  15.2880468  88.5374908  63.5694504  14.9415646  87.0954971
   9.3445520  62.5512466   7.5597963   9.1162777  62.4794159   6.6329937
   8.7849369  61.9079857   7.9948549  26.6591721  65.4206848   7.2085094
  25.8777885  65.3988953   6.6560640  27.3688221  65.1397247   6.6308489
  72.4457703   1.2486901  66.8055878  72.8723145   2.1023581  66.7311096
  73.1680908   0.6270476  66.8953018  11.0475197  49.2212524  26.3531647
  10.1577168  49.0659599  26.0363560  11.1999474  50.1524391  26.1922607
  35.0656624  46.0399628  88.4796371  34.5410118  45.5147362  89.0838776
  34.4352913  46.6287460  88.0646667   9.7741146  13.0883255  56.1286736
   9.4879417  13.5291243  56.9286957   9.0146236  13.1298170  55.5475693
   1.7021914  58.1514397  36.5584602   2.2331352  58.2607384  35.7695465
   1.7163802  59.0117760  36.9778061  75.4606628  25.9655914   6.0479422
  74.5362091  25.9573860   6.2960467  75.9147873  25.5929031   6.8036580
   9.2175331  19.6355515   9.2710829   9.4440384  19.3936710  10.1690931
   9.5530005  20.5264530   9.1711349  24.8081951   4.1845775  26.1171188
  24.2833996   4.8920898  26.4916153  25.3329487   3.8619671  26.8497772
  61.6105766  33.0847168  58.1296272  61.7080345  33.3831749  57.2253838
  61.7004662  32.1331062  58.0787621  83.4330063  69.4069138  79.9130020
  83.4328537  68.4983215  79.6118469  82.6426773  69.4821243  80.4477539
  45.7715263   0.7799022  85.8709183  46.5695457   0.9082711  85.3581619
  45.3215408   1.6236928  85.8289490  24.4533730  64.4418716  12.0326986
  24.6011772  64.9838257  12.8077307  25.3175201  64.0909195  11.8175001
   0.4670931  36.2482986  24.4820404  -0.3376957  36.3768578  24.9840546
   0.9086196  37.0969086  24.5158596  76.7028046  14.8503723  20.3689022
  77.0706177  14.0091581  20.6396561  76.9540253  14.9367666  19.4493065
  37.7692032  11.8430901  80.1272507  37.3922043  11.4587355  79.3358154
  37.0306435  11.9203300  80.7312317  15.1381407   9.5429382  56.7932281
  15.2952366   9.3424692  55.8705368  14.5013571   8.8865519  57.0758896
  73.4301910  29.9595394  66.8310013  73.9511108  29.3917637  66.2631149
  73.1739197  29.3971310  67.5619278  20.7912922  49.6661148  54.9699669
  19.9500809  49.6158180  54.5160255  20.8963413  48.8055420  55.3756905
   8.2271175  70.2343063  50.5638657   9.0297985  70.6184158  50.2111702
   7.9118638  69.6574097  49.8681412  41.4978142  57.6140862  60.5379677
  40.5756226  57.3885269  60.6601219  41.5731049  58.5061531  60.8767624
  77.9243088   9.7416248  35.7064171  78.2890167   9.0525169  36.2617073
  78.0119705   9.4027958  34.8154945  45.3100128  52.6950302  39.4513588
  45.7099419  52.2565002  40.2023468  44.3682098  52.6290855  39.6091156
  57.3076286  18.0904522  82.6751328  57.4805946  18.4662704  83.5383072
  58.1638031  18.0680885  82.2477036  49.3031273  66.5423660  39.3145370
  48.9888840  67.4333267  39.1606750  48.9254761  66.2977448  40.1593857
  21.1956062   3.1036546  21.5669899  20.3377323   3.5017977  21.7145195
  21.0089607   2.3135786  21.0598660  60.3007355  40.2337761  53.0739670
  59.9680443  40.2692986  53.9707870  60.7470245  39.3888779  53.0173607
  50.3900490   6.0669188  57.3141975  49.8482590   6.8252430  57.5324631
  49.7621727   5.3832979  57.0803947  45.2256432  67.5613708  23.0538177
  45.9862480  67.1608047  23.4748363  45.5646629  68.3667221  22.6630421
  83.6513290  21.1433449  24.4378338  83.4307175  20.6396084  23.6543732
  83.8848572  20.4824142  25.0896549  22.4518604  54.8474197  21.3395348
  21.8874607  55.5145683  20.9489002  22.2293472  54.8605919  22.2704182
  26.6448460  22.5950623  74.3562317  26.9522839  21.7955608  74.7834473
  27.1583481  23.2948818  74.7597198  43.8646927   8.9900627  78.6807327
  44.5432892   9.0798750  78.0116501  43.1459999   9.5396719  78.3682480
  15.2365875  61.5578079  53.8167877  15.6530037  62.3684769  54.1094437
  14.6956615  61.2852859  54.5579796  78.8292618   2.9306786  17.1313419
  78.6810760   3.8574123  17.3195896  79.7405243   2.7781861  17.3815060
  -0.0196491  25.7518959  74.9126358  -0.0944045  25.8300800  75.8637009
   0.8795599  25.4581776  74.7664032   3.4097331  11.5542269   8.0850649
   4.1798244  11.8945408   7.6296782   3.7571826  11.1738186   8.8917875
  77.2934570   2.4042215  55.2681847  76.8400116   1.9585980  55.9837494
  77.2693405   1.7794312  54.5434151  17.7649193  33.0128212  63.6697388
  16.8548107  33.2701492  63.5223732  18.0077229  32.5286674  62.8805161
  12.2705460   6.5849762  22.4507160  11.4745464   6.9077845  22.8731022
  12.0013266   6.3835855  21.5545044  63.9269791  33.9843025  23.7953167
  64.2876663  33.2980881  24.3567848  64.5366669  34.0366096  23.0592594
  12.8650589  45.2798767  64.9973907  12.4867249  46.1470718  65.1425323
  12.1520882  44.7684975  64.6147690  51.2304268  54.9728546  10.6134148
  50.6899757  55.4905357  10.0166302  51.1071663  55.3863220  11.4678631
  84.7365646   7.2194915   2.3384104  84.2255173   8.0155220   2.1921227
  85.3798599   7.2142258   1.6296288  18.1726360  28.3993645  59.3157234
  17.7387981  27.9624538  60.0486107  17.7675056  29.2658501  59.2796402
  21.8619156  58.0105286   2.3566353  22.0217285  58.6356544   1.6495903
  21.1562004  57.4532051   2.0286264  50.2343559   9.3508615  74.2148972
  50.3534966   9.2117491  75.1544113  49.2992973   9.5300579  74.1159821
  31.9529133  59.2915001  77.4537430  32.1752625  58.5188026  76.9343872
  30.9969940  59.3321381  77.4254608  15.4074373  38.5065422  76.6041489
  16.3351345  38.7056274  76.4777527  15.0087433  38.6701851  75.7494583
   1.0369219  29.5709515  22.3692760   0.9463877  28.7762604  22.8951111
   0.1370035  29.8465633  22.1948738  54.8733101  60.4500313  20.3832302
  55.7084503  60.1978683  19.9892921  55.0190735  61.3397789  20.7046814
  29.0324059  68.3832474  56.2921677  28.2816715  68.5721817  56.8551369
  29.0471497  67.4285202  56.2250061  45.4220009  70.2478409  67.4457932
  45.8992538  70.4061279  66.6312943  45.8872681  70.7679443  68.1009674
  67.0518417  11.6550999   3.5505633  66.7783127  10.7820311   3.8319242
  67.3788910  11.5282183   2.6599598  58.1349640  49.5107651  40.7647095
  57.3930359  48.9731255  41.0416908  57.9161606  50.3932762  41.0639305
  37.4258080  49.6968575  42.0192642  36.5870171  49.2377090  42.0621338
  37.5426140  50.0645790  42.8952599  20.4361324  63.6157417  32.1980629
  20.5839577  64.5582047  32.2764664  20.3328457  63.4668732  31.2581711
  52.1887131  29.0739708  42.8770218  52.0109024  29.1838112  41.9429169
  51.5084877  28.4731827  43.1812897  19.6895847  52.9736443  26.9375076
  19.4983082  53.4889221  26.1538448  18.9459782  53.1356201  27.5180626
  40.2964096  49.2427940  17.9515724  39.5573425  48.7945251  17.5403957
  40.0912971  49.2348404  18.8865032  45.5547028   4.5579967  77.6493759
  46.3818092   4.1851101  77.9544754  44.8816185   4.0093517  78.0520935
  13.6037569   5.9302440  61.4813423  14.4052296   6.2387714  61.0586319
  12.8981657   6.2489352  60.9184837  51.4486122  43.1768074  13.9213400
  51.8691864  43.5344429  14.7032900  51.2005005  43.9466667  13.4094887
   7.5898237  48.7086411  56.4634895   8.5134640  48.6345024  56.2234344
   7.2399597  47.8255730  56.3451042  79.8236237  11.7541113   1.5865135
  79.3117294  11.8743410   2.3863537  79.2085190  11.3652821   0.9646674
  74.7167740  67.7833176  66.2273788  74.6135712  66.8326492  66.1848068
  75.3071289  67.9928055  65.5036240   2.0442803  13.9861021  53.6409988
   1.3639944  13.8360863  52.9845390   1.7942764  13.4274721  54.3769760
  47.6689529  20.3451691  80.3195496  48.0964432  20.2495136  81.1706314
  47.8242989  19.5100727  79.8782883  53.7534599  10.0361290  75.6560898
  52.8911591   9.7330647  75.9403839  53.8187294  10.9277430  75.9981384
  67.7829056  64.0932083  11.9967937  68.4850922  63.4793320  11.7815742
  67.2524033  64.1387329  11.2013493  52.6953468  22.8208027  67.9788208
  52.7694893  22.9509621  68.9242249  53.4443741  23.2911644  67.6128235
  57.9443970  28.6334991  50.4354668  58.3322182  29.5068893  50.3805351
  58.6467285  28.0421181  50.1648598  72.4290390   2.3291996  46.7804909
  72.7085953   2.0091152  47.6381798  73.2413483   2.5867391  46.3445396
  63.6533241  48.0800514   6.1564441  63.2893028  47.2968750   6.5691819
  64.5004654  47.7974510   5.8118954  77.6626587  43.3636894  79.1177521
  78.2167969  43.6742096  78.4017029  78.2146683  43.4358597  79.8964157
  71.2815933  49.2441025  17.7875443  71.0093765  48.8653641  16.9516678
  71.7834396  48.5490494  18.2133160  69.0346451  45.9515877  75.7678146
  69.1469269  45.2133141  75.1689987  68.0897369  46.1033516  75.7863846
  67.7382584  51.6381454  26.2830372  67.2237015  51.3080482  27.0195866
  67.4099960  52.5258980  26.1403122  80.2302475  60.0166397  46.6171417
  79.2868805  60.0756340  46.4661179  80.6171112  60.5607452  45.9312019
  80.0630188  58.9243088   4.4658957  79.2331696  58.5342903   4.7405910
  80.1452026  58.6867599   3.5422895  28.0582008  36.8514023  56.5600548
  28.7889767  37.2973633  56.9882126  27.6127453  36.3869667  57.2686462
  24.1555500  61.8590508  20.5832672  23.4194775  62.0326614  19.9965057
  24.7577286  61.3285103  20.0615959  45.4261818  18.0522270  57.5187111
  45.0923309  17.2314320  57.8807449  44.8265648  18.7211819  57.8491478
   9.2425337  51.4261475  31.7719440   9.6652460  50.6416931  32.1214867
   9.9680758  52.0038681  31.5351772  80.1377792  65.3947983  50.6788216
  81.0025024  65.7914810  50.5733147  79.5258179  66.1237183  50.5768051
  84.5584335  27.9958344  43.3604698  83.6900024  27.8196220  42.9985123
  84.4784927  28.8595943  43.7651405  23.9657516   1.5284356  53.1794395
  24.7069931   1.9932196  52.7911491  23.5986309   2.1476891  53.8102951
  38.0123711  13.4485540  73.1056900  37.4801407  14.2275705  73.2672272
  37.3835716  12.7269440  73.0946503  33.2558250  62.6260185  25.3828163
  34.1541061  62.9468498  25.4627686  33.0205231  62.3495331  26.2684917
  86.4177780   2.9723771  45.5132942  86.7460480   2.3938160  44.8250084
  86.7647705   3.8351884  45.2866135  18.9646587  27.6839867  80.4403763
  19.0185032  26.7974091  80.7971802  19.8704453  27.9932880  80.4296875
  59.6522789  27.9961567  75.3220062  60.5357971  27.9464664  74.9570923
  59.7122498  27.5344524  76.1583405  59.5947342   2.3041725  52.0119324
  58.7667274   2.5991457  51.6329498  60.1625977   2.1507759  51.2567940
  38.7555199  67.5122910  24.3760185  38.0554123  67.0207520  23.9465141
  38.4351997  68.4139862  24.4000111  56.3053780  10.5397234   3.3917699
  55.4267235  10.8741455   3.2118914  56.3315125  10.4343853   4.3427968
  56.4833832   0.7663440  77.1304169  56.3099899   1.6847415  77.3370819
  56.4038239   0.3128475  77.9696045   9.3858957  30.2214947  64.6550674
   9.6802273  29.5469036  65.2670517   8.8265181  30.7937546  65.1802750
  62.6981583  48.9919548  35.4571953  62.5264931  49.7238808  36.0496902
  62.1344490  48.2875786  35.7770653  83.5097504   4.6207457  16.0284443
  83.7145996   4.8800673  15.1301012  82.5534134   4.5921030  16.0573082
   9.0172834  27.4119415  79.5004730   8.6308250  27.2817249  80.3664551
   8.6084490  28.2134228  79.1738052  58.9044571   5.8527250  50.7141724
  59.6675529   5.5063119  50.2516632  58.1573906   5.4180946  50.3028069
  73.5785217  21.8543396  83.7279892  72.8648529  22.0477734  83.1201324
  73.2284164  22.0830879  84.5889969  62.7357101  41.9344292  71.7088394
  63.2308311  41.7064056  72.4956665  63.4004326  42.0291710  71.0266418
  54.0545616  63.3574753  87.1162262  53.9328308  63.4369888  88.0623245
  54.1706314  62.4190216  86.9677048  68.5533600  57.4126091  67.9609375
  67.9150085  58.0398941  67.6214600  68.0728455  56.9170036  68.6240463
  58.6191330  22.1674690  18.0427628  59.4221001  22.6701565  17.9057102
  58.6839066  21.8538647  18.9448090  21.4650612   1.2830715  42.6784973
  21.7014065   0.3797733  42.8892708  22.2584362   1.6544226  42.2926369
  54.7663994   4.7806973  52.0850334  55.2588615   5.5839911  52.2536430
  53.9775887   4.8665047  52.6204300  29.8891201  31.7908497  78.1769028
  29.8355103  32.7044716  78.4573593  30.1699486  31.8369389  77.2629852
  49.3926086  58.3725433   1.7317672  50.0700645  59.0354958   1.5984206
  49.4979362  57.7708626   0.9948009  15.9473104  45.0397720  12.9518633
  16.1873779  44.2942276  13.5020990  16.6137905  45.7006111  13.1398277
  24.8806171   3.0951359  19.1331806  24.8712215   2.6922381  20.0014076
  24.6575317   2.3814871  18.5355434  23.2148113  22.5728130  42.3301468
  23.9897995  22.3164463  41.8302460  22.5094032  22.5955257  41.6835289
  42.0187111  17.3027210   0.8698669  41.4401016  17.4023838   1.6258492
  41.4739799  16.8810501   0.2052689  78.9317169  38.2995110  18.7588730
  78.0328827  38.1560478  19.0550957  79.2669983  38.9864731  19.3349838
  42.3943062  62.2238007  12.0225945  42.5136223  61.7545738  11.1968699
  43.1312256  61.9440880  12.5656776  10.6766796  53.9886856  17.6439457
  11.2664604  53.4101028  17.1605930  10.8904972  54.8666534  17.3282108
  59.6473465  37.9566231   0.3250148  59.7897720  38.1264877   1.2561934
  60.4277000  37.4770927   0.0469307  18.6095428  39.6663971  73.4837494
  19.5622177  39.7519760  73.5200958  18.3041592  40.0349388  74.3126984
  42.2656326  40.3841286  60.6613464  42.2625961  40.7257423  61.5555077
  42.2463951  39.4331093  60.7682190  58.6018105  65.2980804   6.6841993
  58.0571480  66.0718079   6.8288255  59.5001297  65.6249084   6.7335963
  69.3670807  57.0493546  41.6606522  68.7494888  56.3369217  41.8257141
  68.9768066  57.5422440  40.9388580  79.6845245  53.9351845  23.5598984
  79.0419006  54.5516510  23.9109535  79.4134140  53.0843658  23.9046326
  11.1207666  50.7852631   6.3865886  10.7271433  50.6383286   5.5265288
  10.7416344  50.1048317   6.9429173  70.0028229  13.7236586   3.2106612
  69.6600876  13.1465855   2.5282018  69.8789902  13.2333546   4.0233727
  24.8788776  39.6181602  15.8174486  25.8111324  39.4160423  15.7381954
  24.4396935  38.9134369  15.3413000   7.0922041  52.6093102  48.2942848
   6.5139651  53.2319412  48.7349663   7.9232807  52.6805954  48.7638168
  68.5591812  30.9158974  35.8814507  69.1447906  31.3300819  36.5152817
  68.9792709  31.0647583  35.0343361  48.9972687   3.0909934  86.2514954
  49.4091606   2.8743668  85.4150467  49.1659698   2.3291872  86.8059540
  30.5851231  32.6351700  67.4058914  30.2168903  33.4134331  67.8241501
  30.0825939  31.9067497  67.7707214  34.3253632  62.3829384  44.7652931
  34.1623688  61.9766846  43.9140434  33.5570755  62.1569214  45.2895889
  84.1049042  22.7307816  62.7065392  84.9100266  23.2156429  62.5250740
  83.6733627  22.6559849  61.8554153  71.2546539  18.3283978   1.9607450
  71.8263092  17.5767746   1.8042058  70.4292068  17.9441166   2.2560461
  44.6007690  46.0827637   1.0737758  44.8736839  45.2096786   1.3556809
  44.1557465  46.4524612   1.8363446  38.3843575  63.6812782  62.0617828
  38.0165405  64.4345779  62.5238190  39.3161736  63.6980095  62.2801056
   9.1323881  60.3987541  36.8860741   8.7417297  60.2524300  36.0245590
   9.7351961  59.6645470  37.0035400  65.5535965  23.5399609  27.4583015
  64.6204605  23.4630795  27.6572323  65.9796982  22.9438725  28.0742130
  54.6845016  66.1576691  40.3717308  55.1680222  65.8173599  39.6189804
  53.7831421  66.2397537  40.0602074  50.0764771  24.1101341  68.3048019
  50.9583015  23.7402763  68.3475494  50.1729774  24.9994431  68.6454620
  51.5163727   6.0102859  63.5695992  52.3084564   6.5378580  63.4671135
  51.2223167   6.1906695  64.4624786  23.9806519  49.5949173  89.0251389
  23.6801243  49.4439888  88.1289597  23.3782749  50.2529182  89.3721466
  68.1922226   0.5590323  27.5785313  67.6064758   0.8937043  28.2575932
  67.8477478   0.9244868  26.7636623  67.9068985  11.6424503  20.5378208
  67.5475082  11.2148714  21.3151550  68.7579498  11.9771814  20.8204803
  58.3727493  32.9688263  31.8752956  57.8709602  32.3951073  32.4543381
  59.0683403  32.4101067  31.5285721  66.0909195  32.2955589  41.3172112
  65.9770355  33.2448463  41.2712708  65.6246262  31.9610329  40.5511208
  12.7581434  55.6894264  29.5626545  13.2550268  55.0686226  30.0955143
  13.0546150  55.5273094  28.6670799  86.0102997  58.3589630  70.2378769
  85.2474594  58.4178925  70.8130646  86.5477753  57.6668549  70.6230164
  45.1317215  62.7169266  10.9653950  44.4397202  63.1764793  10.4898176
  45.2788048  61.9170876  10.4605618  20.1930237  44.3535461  34.8412323
  20.0427475  45.1459846  35.3566818  19.9370956  44.5947762  33.9509811
  36.5931244   2.3015039  70.8366013  37.1539307   2.5900788  70.1165619
  36.7692375   1.3640399  70.9164505  48.3572044  19.0213070  17.2181492
  48.5474167  18.9176102  18.1505108  48.3464203  19.9683914  17.0797901
  66.9516525  18.5167942  47.4543953  66.5078964  18.6552715  46.6176529
  66.5838852  19.1840382  48.0338516  82.2649002  26.9861317  79.5319443
  83.1968536  26.7677269  79.5340576  81.8278046  26.1684017  79.2942581
  22.2908916  58.8281364  68.4678421  21.6498413  58.2191048  68.1012802
  23.1386662  58.4256325  68.2794266   9.6066246  55.4650116  67.6942596
  10.1820126  56.0544701  68.1818085   9.9074049  55.5320396  66.7880173
   5.1710787  61.1170578  48.1179581   4.2521181  60.9370766  48.3163261
   5.5461187  61.3964577  48.9531288   5.3841300  20.8840790  71.2175217
   5.2614217  20.9123020  72.1664047   4.8474154  20.1461029  70.9284515
  45.9649925  20.3594971  55.0510254  45.4842529  19.9354057  55.7618484
  45.3502388  20.3672676  54.3173714  21.3803368  27.1844940  88.6538620
  21.3422985  27.6627808  89.4821243  20.6917496  26.5236435  88.7270508
  34.0916710  44.3157959  62.1989098  33.3156166  43.7694168  62.3231583
  34.8030510  43.8160667  62.5994606  38.4736938  13.6869612  86.0598679
  38.0137024  14.3628454  86.5576859  37.7832375  13.2352448  85.5746307
  76.3139267  21.8523636  39.4013672  75.9909439  22.2525215  38.5940323
  75.6780624  22.1116180  40.0682220   6.5367732  59.0760994  31.4276867
   7.3254228  59.0437431  31.9691811   6.5220652  58.2326660  30.9753208
  24.4346104  13.9036350  75.9726715  23.7232418  14.0047655  75.3402481
  24.0255470  13.4807091  76.7276764  13.7641459  53.0353622  61.2355461
  14.3740406  52.7930260  60.5387421  13.2342253  53.7367668  60.8568039
  72.8247604  12.0142202  11.8825874  73.3168335  11.1951952  11.9400387
  72.5656433  12.0739594  10.9630661  69.5038757  41.3634720  76.2983246
  68.7162018  40.9879379  76.6917419  69.1748581  41.9553452  75.6218185
  79.2576599  12.4296503  52.7108917  79.7380524  12.9477587  52.0651245
  78.5285950  12.9912577  52.9741402  13.9756460   4.9023123  53.4341354
  13.5296984   4.9689622  52.5897903  14.4519796   4.0732965  53.3886414
  31.6472149   7.5272059   6.6278391  31.8030224   7.6099038   7.5686460
  30.7286072   7.7713757   6.5148220  48.1443443   3.5359402  11.0775900
  48.2865486   2.7381201  10.5681858  48.8905411   4.0948243  10.8606424
  59.9941864  55.5514450  15.9881868  59.5275154  56.3808327  16.0909939
  59.5061455  54.9330254  16.5318813  53.9387436  28.5208092  46.1905022
  54.0389214  29.4485474  45.9772034  54.2112770  28.0616169  45.3960838
  19.6515961  53.6006393  67.9247894  19.7979908  53.7884712  68.8518906
  18.8482380  54.0739784  67.7084579  58.7369232  58.6467934   0.5646967
  58.1458893  58.6803856  -0.1874890  59.3921165  59.3210220   0.3847771
  57.4139595  69.8689804  68.3248749  56.4806862  69.6563187  68.3274536
  57.5502701  70.3586655  69.1359634  13.0431757  58.4981575   6.5964980
  12.7795248  58.8984718   7.4250321  13.3704939  57.6328239   6.8420429
  84.6745758  58.5112267  86.1087036  85.2565460  58.2833748  85.3837051
  84.4865875  57.6758652  86.5365601  29.4583569  54.5478134  83.3595428
  29.7630711  54.3489685  82.4741898  29.7996120  55.4238892  83.5391846
  23.3993511  49.4137611  20.3865490  22.8326340  50.1851501  20.3913593
  23.4647408  49.1703529  19.4631271  30.0047092  44.3404541  74.1312714
  30.7859726  44.1146622  74.6361237  29.9248943  43.6376495  73.4863510
  66.5109100  55.0395737  67.9603729  65.5821228  54.9957466  68.1876831
  66.8916092  54.2555656  68.3561401  65.6496658  23.4588394  35.3600960
  65.5497894  24.4079742  35.4335747  65.0494003  23.1033878  36.0155067
  13.3552485  16.6890602   5.5431004  14.1743164  16.4505539   5.9772367
  13.0605068  15.8793659   5.1262622  43.0422707  49.9284782  17.4930420
  42.1701698  49.5502586  17.6053867  43.0383873  50.2790146  16.6023445
  38.4570122  19.4588795   3.6304734  38.9888039  19.3682270   4.4211779
  37.5533867  19.4204502   3.9438593  35.9218712  42.4173050  55.8888893
  36.6092300  42.6528015  56.5120392  36.3823929  41.9580879  55.1865540
   3.4849379  48.8235016  55.9913712   4.1460457  49.5124092  56.0589981
   3.0778291  48.7963905  56.8572578  32.4080353  51.4406204  20.1315403
  33.1489143  51.0867958  20.6236210  32.3645592  52.3605194  20.3925419
  29.6843472  22.0494499  78.0233917  28.9603443  22.6721935  77.9582596
  29.6115475  21.6891003  78.9071808  36.4290619  31.3219719  73.1334839
  36.3179512  30.7349167  72.3856506  37.3539352  31.2407608  73.3663864
  61.2338791  29.0013142  24.6102276  61.8299599  28.9680576  25.3584347
  60.6491852  29.7344627  24.8022137   1.8608191  49.3282089  58.1887398
   1.1708645  49.9873047  58.2648048   1.3948718  48.5150909  57.9938812
  77.9136124  65.6952820  61.1032181  78.5525665  64.9940109  61.2304382
  77.4341812  65.4422607  60.3143196  31.4302921  39.2480431   9.7434359
  31.7441044  38.5162201   9.2122240  32.2019157  39.5397758  10.2289457
  73.8077087  19.5517998  76.6981430  74.2738037  19.4037781  77.5209885
  73.6473618  20.4953003  76.6800766   1.2491066  21.1982746  39.2122536
   1.9435335  20.6384602  39.5595436   0.4561618  20.6664581  39.2803917
  60.0655479  10.5621510  74.5585480  60.4787560  10.3860197  73.7132874
  60.0080032   9.7048016  74.9803009  65.9317932  14.9325819  84.5417480
  65.0658646  15.2906981  84.7370758  65.8990402  14.7222071  83.6085281
  30.8631763  62.4253502  58.7258797  30.6031151  62.2568817  57.8202209
  31.5046673  63.1330185  58.6631737  53.9418907  10.6402235  86.1529846
  54.4569168  10.6199446  85.3464050  54.5896683  10.7572250  86.8479080
  75.7354050  34.9217834  29.1846504  75.3010101  35.1914062  28.3754292
  75.0715256  35.0405731  29.8639088  26.2607822  54.8925705   6.8958106
  26.0677509  54.6789436   7.8086815  25.4446487  55.2618866   6.5585184
  37.3220940  16.1123505  62.1372643  36.3752594  16.1385956  61.9992409
  37.5639725  17.0218639  62.3119392  42.5213127  55.2661285  25.0334091
  42.8755608  55.3965187  25.9130325  42.7805290  54.3746071  24.8005352
  82.9186020  61.4965019  53.6604004  82.0950012  61.9580307  53.8182144
  83.1429825  61.1106377  54.5071564   4.9669580  57.0625114  46.4460602
   4.8459864  57.2918777  45.5246544   5.8892941  57.2499237  46.6204338
  58.1553230  70.9543228  70.8041229  58.7967987  71.6312332  71.0198288
  58.5772781  70.1341858  71.0601730  23.8804817  55.6879082  74.6639175
  24.6834755  55.7934570  74.1537247  23.2399368  56.2437592  74.2201157
  72.0692749  41.7194023  37.4013214  71.7811432  42.4382744  36.8387985
  72.6410980  41.1927032  36.8428955  16.2831192  21.3232899  83.1876221
  15.3958702  21.5349770  82.8974304  16.6422367  20.7818508  82.4846878
  58.2100296  34.1395493  51.0375671  57.7994804  33.7711983  50.2552643
  57.7009735  34.9278107  51.2266159  14.6694031  38.9662018  79.0986481
  14.8330555  39.0245132  78.1573486  15.3220854  38.3426170  79.4170456
  36.6860542  49.2489471  70.5414124  36.4467239  49.9308853  69.9137955
  37.6393051  49.3068771  70.6061401  79.1731796  10.2501297  67.8743744
  78.6990204  10.1313276  68.6973495  79.1773300   9.3812647  67.4727631
  50.6936836  31.9405708   0.5042992  49.8632851  32.2791367   0.1695684
  51.1935883  31.7141514  -0.2799602  32.8829002  63.6955986  55.0011559
  32.8299179  64.5354919  54.5450821  33.7091064  63.7362785  55.4827728
  83.3815918  23.8476582  37.8880234  82.7974167  23.1839046  37.5214081
  84.0670776  23.3460350  38.3292847  85.7593689   8.9504251  75.7931976
  86.6828232   8.7390156  75.9302216  85.4837723   8.3707752  75.0830688
  46.6858101   8.1261749   8.1770802  47.4495659   7.9533854   7.6265807
  46.9174232   8.9150343   8.6672726  76.2390976   2.8138385  69.6344299
  77.1874619   2.7503743  69.7476044  75.8767548   2.4608510  70.4470367
  28.4850960  52.1884804   3.1462836  29.3017330  52.3294106   2.6672492
  28.1008205  53.0614738   3.2266078  72.8188553  34.2954559  43.6919899
  72.4733047  33.4877090  44.0719452  72.7319260  34.9447632  44.3899002
  42.4620094  22.1238480  83.2526627  43.1052322  22.4294796  82.6130676
  42.3467407  21.1951694  83.0514145  47.3910255   8.6609402  23.8514423
  48.0256577   8.8721333  23.1666985  46.5384903   8.7984571  23.4385242
  13.7516251  32.6009750  82.2247543  14.3679495  32.0069733  82.6531677
  13.3133135  32.0590019  81.5687180  81.3478622   2.1596208  60.7153244
  82.0956726   2.4884048  60.2164078  81.5199966   2.4364908  61.6152954
  44.2463074  31.9321899   0.3169073  43.2997208  31.8084545   0.3868976
  44.3932037  32.8298531   0.6149966  52.0295143   3.6313391  52.8263550
  52.1224403   3.6662161  51.8743134  51.2270584   3.1298141  52.9704666
  28.7880077  19.3435574  13.9515028  28.8449421  18.4867020  13.5286655
  28.5204639  19.9388657  13.2513170  84.9426346  16.1624126  78.9857941
  85.4227219  16.3586082  79.7903137  85.6235352  15.9651814  78.3425980
  43.3983803  40.5868340  15.4711304  42.6317940  40.6643486  16.0390797
  43.5201797  41.4656754  15.1119175  63.0590630  19.6162758  12.7632523
  63.6151619  20.2980175  12.3861408  63.5460396  18.8044586  12.6217022
   1.7910712  11.3889894  -0.0569074   2.0085781  11.9653149   0.6757399
   0.8475717  11.2478418   0.0213079  25.2973690  35.6659546  78.5373001
  25.4212151  34.8075447  78.9422989  25.4985046  35.5255241  77.6120682
  52.8945656  34.6220741  57.3279610  52.1978645  34.1242943  57.7558098
  53.6915245  34.1244659  57.5109253  14.0281906  27.6329231  62.1575775
  14.7642365  27.6651669  62.7686653  14.4364834  27.5837898  61.2932205
  74.6558151  42.8766747  84.6068268  75.5535278  42.9743042  84.2893219
  74.1181183  42.8982124  83.8152084  49.9645958  52.9801216   4.5050330
  50.8111038  52.5334549   4.4931636  49.3406410  52.3038788   4.7688656
  45.2262039  65.4418259  27.6435795  44.8383598  65.7044373  26.8088074
  46.1553879  65.6530914  27.5529747   4.7655602  66.0885468  42.8324547
   5.5337720  65.9196548  43.3779411   4.0428820  66.1692734  43.4549103
  31.2608871  42.7238312  13.9708624  31.1610622  42.4289627  13.0657005
  31.0791111  41.9456139  14.4977074   0.7603845   4.3630085  26.8583374
   1.0962572   3.4764261  26.7264557  -0.1853952   4.2815790  26.7354469
   4.9729767  66.5787277  58.6619873   5.4253621  65.8885193  58.1770134
   5.5886302  67.3116531  58.6659088  57.7914658  26.7546787  48.0137634
  57.5020905  25.9487667  47.5859795  57.2930984  27.4478607  47.5809097
  75.8461304  69.4161682  29.5159035  75.7930756  69.7839584  28.6337776
  75.5763016  68.5037308  29.4116001  57.0351830  61.4797058  38.7178688
  57.1331444  62.1482925  39.3958282  57.0727997  60.6495667  39.1929359
  32.4186630  52.0799866  10.1936655  31.9028854  51.4864082   9.6478930
  32.2132187  51.8192482  11.0914631   0.3192325  44.3686905  21.2662010
   1.0563468  43.9335632  21.6946392  -0.0838829  43.6853752  20.7306557
  32.9185219   9.0910482  76.8543854  32.4867096   9.2929916  76.0243301
  33.6152229   9.7434177  76.9268570  63.8798447  18.2326469  25.1595383
  63.9068298  18.2264786  24.2027378  63.3873520  17.4449825  25.3903370
  68.7409058  65.8531494  52.1395874  68.3943100  65.2138290  51.5171928
  68.0712204  65.9113922  52.8210335  85.5816498  18.4739342  66.2857590
  85.5536041  19.4159012  66.1179962  85.0778656  18.3590527  67.0915070
  81.9754257   1.1402274  33.4408417  81.4445419   0.3693568  33.2404671
  81.4306488   1.6589570  34.0327568  67.1229553  50.7571869  72.1744690
  66.5216751  50.4259720  72.8415451  67.5056763  49.9708519  71.7853241
  54.7113037   9.4097471  54.6620789  54.1234932   9.4467030  55.4166298
  55.5741158   9.6184464  55.0201683  27.9636345  56.9064178  62.8667984
  28.1927338  56.2302589  62.2291832  28.4695377  56.6807709  63.6474228
  20.8765564  15.5596762  16.4001846  21.0419445  16.0908031  15.6212234
  21.7191296  15.1484213  16.5929852  63.2436333  53.0303802  58.2939110
  64.0260010  53.5522041  58.4723206  63.5800667  52.1612053  58.0757751
  77.9674454  44.7764702  82.9805603  77.0343704  44.9808464  83.0424881
  78.2791214  45.3011131  82.2431030   6.7912512  51.3646507  55.9289665
   6.8770843  50.4134331  55.8653183   6.9588742  51.6802139  55.0409584
  68.1198273  38.5023575  33.7023430  68.0399017  38.8443680  34.5927773
  67.3764801  38.8807716  33.2328033   9.2679081  28.4645729  23.8750896
  10.0421915  28.2829685  23.3424206   8.5732574  28.6328201  23.2383919
  57.0430870   5.0869546  48.9267883  57.5711899   5.3550448  48.1748123
  56.1535835   5.3624930  48.7052116  61.0848045  25.3013573  29.6429024
  61.6272430  25.4105873  30.4239655  60.3739967  24.7250099  29.9236279
  19.6208801  71.0994415  53.2405281  19.8816757  70.7057724  54.0731392
  20.3948250  71.0163193  52.6834564  64.3657761  53.3430901  73.1067200
  64.9141693  52.5915451  73.3318329  63.5367966  53.1777687  73.5558243
  23.0732021  48.1762924  74.6079788  23.0193081  48.4358864  73.6882324
  23.8677616  47.6451416  74.6607666  58.0173225   5.1636233  22.2295494
  57.1041908   4.9066725  22.1015053  58.4597549   4.8827305  21.4285583
  38.3172112  71.0892563  15.5218840  38.9715080  71.6265717  15.9684429
  38.4864273  70.1993866  15.8312769  46.8862267   1.4964085  15.4210405
  46.7923546   2.3348818  15.8731279  47.6138763   1.6317285  14.8140411
  71.6139069  26.2446575  10.8951597  71.9145126  25.8134289  11.6951008
  70.6671219  26.1039867  10.8885269  43.3725128  52.2948761  25.2012901
  44.2028503  52.7213821  25.4130955  43.3465424  52.2830467  24.2445164
   7.7895117  68.6328888   1.1874802   7.2441945  67.9822159   1.6296157
   7.8232923  69.3706741   1.7963848  63.4632683   9.1502085  11.6830750
  64.0221024   9.4516888  10.9667997  63.7737160   9.6334963  12.4487696
  82.8813934  61.9045792  85.3309326  83.7402649  62.2725868  85.5386124
  83.0556412  61.2642212  84.6411362  62.9684830  22.8761387  37.3884239
  62.7554893  23.2390041  36.5286598  62.1394997  22.8910828  37.8667526
  59.3647156  67.5877304  52.2888832  58.6458626  66.9560318  52.3099976
  59.0787773  68.2551956  51.6652145  48.5955086  46.1927719  74.0147858
  49.0033302  46.8531265  74.5750046  47.9516830  46.6796494  73.5003281
  19.6249504  57.2783775  54.6238556  20.4780731  56.9926567  54.2970886
  19.4411888  58.0842247  54.1410828  57.5612831  33.4108887  18.6167507
  57.6312675  34.3640137  18.5630264  57.1966209  33.1494713  17.7712269
   9.9250250  16.4433212  13.5534954   9.1248379  15.9304905  13.6672411
  10.1066141  16.7998962  14.4230423  50.0535812  45.6703491  70.3569031
  49.6264305  45.2845802  69.5920715  49.6950951  46.5562935  70.4100113
  50.8286095   0.0730458  31.1779652  51.3595886   0.3011043  30.4148903
  50.1791306   0.7737971  31.2359047  21.9778271  64.6176987  15.7240658
  21.2587147  64.3028870  16.2717915  22.2745457  63.8415222  15.2489462
  44.0505219  17.8465710  85.5595474  43.1549873  17.7949409  85.2255096
  44.1988068  18.7811356  85.7038879  77.1715317   2.9998982  87.3816605
  76.7541580   2.8001637  86.5437241  78.1039658   3.0648682  87.1753311
  17.3561058  56.3383560  11.0084705  17.2131252  55.3919754  11.0208340
  18.2211094  56.4447479  10.6126394  74.3961563  12.9189196  25.2019482
  74.2685471  11.9750881  25.2974987  74.1511536  13.2811508  26.0534134
  56.9104843  39.1264305  61.3444023  57.7452049  38.6812973  61.4904442
  56.4485130  39.0490570  62.1791649  52.6219025  64.3903198  76.5486984
  53.1486855  64.9413147  77.1276016  52.9317513  64.6029434  75.6683426
  69.8423615  39.8784523  15.2678432  69.7497940  40.5158081  14.5597200
  68.9663086  39.8140030  15.6481190   8.9200182  50.6358566  69.5626526
   9.3509474  51.4888000  69.6176147   9.0925255  50.2253113  70.4099579
  47.3914261  35.7456474  22.3492393  46.4539490  35.5524635  22.3561516
  47.4399605  36.6920509  22.2143459  83.8952866  45.7645912  64.1432800
  83.7582092  45.0305252  63.5444565  84.3086243  45.3723259  64.9123764
  29.0778542   3.0786841  15.0375700  29.6687717   3.6433952  14.5394230
  29.6385384   2.6648817  15.6937981  78.3245697  46.2965317  10.8270044
  77.6051941  45.6770287  10.7047472  78.0767441  46.8015404  11.6014595
  46.6957817  49.9081917  60.6792374  47.2698669  50.6577415  60.5216637
  47.2187080  49.3152580  61.2188759  43.6831169  14.7298498   1.4706649
  43.9146652  15.6584435   1.4888403  43.0219307  14.6613092   0.7819206
  63.0765228  63.7096062  11.2489576  63.1712799  64.6112289  11.5560827
  62.2247200  63.4304733  11.5847330  64.9538040  48.9873123  88.5877151
  64.0339355  49.1225624  88.8152618  64.9556046  48.1864166  88.0635071
  19.2948418  19.4606113  68.3052597  18.6491470  20.1433544  68.1231155
  20.0537930  19.9336338  68.6465454  45.1241493  14.2938433  11.1744194
  44.8247223  14.6917801  11.9918661  45.3637466  15.0365601  10.6201649
  34.6357841  53.0662231   6.2328167  34.7235794  53.0676994   7.1859803
  34.4544945  52.1530457   6.0104022  75.2357330  24.9222527  66.1883392
  75.1878967  25.8782558  66.1898804  74.3299713  24.6369286  66.3084335
  49.7717361  37.2220154  49.4676056  49.2699776  38.0371590  49.4643822
  49.4549789  36.7427635  48.7019577  18.5294838  57.0558243  74.6930161
  18.0933857  57.0896988  75.5444260  19.3926792  56.6870995  74.8805466
   9.1980581   4.1763844  51.4926910   9.1821327   4.9808598  50.9742317
   9.0054836   4.4629478  52.3854561   5.3934374  42.9081535  21.0698261
   4.8010654  43.6537323  20.9726772   4.8159428  42.1640244  21.2401276
  60.9235344  12.9901810  14.7759037  61.8138847  13.3384094  14.7285147
  60.3623619  13.7394209  14.5760155  83.9240417  54.7452087  24.7110786
  84.1319809  53.9606209  24.2037163  84.5215988  54.7126923  25.4581375
  62.5325508  36.4106674  31.4678726  62.4971313  37.2661743  31.8957539
  63.3309212  36.0060425  31.8071594  78.2840195  16.5834732  26.9922295
  78.0540619  16.7281780  26.0743980  79.0984116  16.0815907  26.9588490
  82.3262177  14.3194027  41.8788071  81.6886063  13.6065111  41.8404312
  83.1767578  13.8827963  41.8319740  85.1361389  66.4965668  56.0682755
  85.7033691  66.9527206  56.6898880  84.3946838  67.0885468  55.9416466
  22.3528805  34.9390869  75.6566696  22.2819443  33.9917183  75.5396576
  21.4944534  35.2046127  75.9865646  67.3187790  20.6090584  85.5191498
  66.9175797  20.1836815  86.2769928  67.1148300  21.5376968  85.6299057
   1.5879209   2.1560826  31.5824165   1.3350157   2.2893810  32.4959297
   0.7908878   1.8399811  31.1569176  50.8714523  47.5832787  23.5385323
  50.6981850  46.8682747  22.9261780  51.3643608  47.1749420  24.2502441
  14.4438000  46.0375481  21.9877167  14.5310163  45.9829063  22.9393692
  15.3448410  46.0636292  21.6657295  68.8257446  41.6441269  53.9294930
  69.7684021  41.5435028  54.0618019  68.7463150  42.0331421  53.0585213
  20.0528030   3.4647336  88.2491226  20.6208954   3.5576720  89.0138931
  19.1678638   3.4238384  88.6116791  35.7467041   9.3930969  74.3373718
  34.9435310   9.0940742  73.9110794  36.1975365   8.5876293  74.5907593
  32.9030495  57.5285187   3.4148684  32.8073273  58.3927269   3.0146005
  32.1007881  57.4098740   3.9233298  83.4870377  67.6194687  39.9944572
  82.7116928  67.1138840  39.7506218  84.2061996  67.1961746  39.5255737
  18.6913376  65.4315186  18.0509834  18.7316532  66.3658295  17.8468189
  17.7895279  65.1811829  17.8502312  55.1525230  55.7694321  50.6047249
  55.1562576  56.7202034  50.7154045  55.4083519  55.6334953  49.6924171
  81.4394455   3.5948172  41.0602608  81.7794800   3.1108696  40.3076630
  80.8820496   4.2722845  40.6774063  61.2648163  68.1659470  79.0897751
  61.5817871  68.5822144  78.2882233  60.4118233  68.5702515  79.2484436
  57.4618530   0.4248936  48.7056999  57.6493797  -0.5028869  48.8481369
  58.1178017   0.7066917  48.0680809  38.3341942  16.6588421  75.5446701
  38.7115517  17.1659527  74.8258743  38.9267006  16.8097534  76.2811432
  24.1709137  54.8936958  39.8787804  24.5367355  54.5894966  39.0481949
  24.0783043  55.8398819  39.7674751  20.3546371  38.4526558  81.5936661
  20.2995625  38.9213638  80.7608871  20.0361080  37.5722542  81.3945160
  77.3089142  47.5928307  80.5327148  76.7898712  46.7886810  80.5198975
  77.4398651  47.7785835  81.4625473  58.3969040  23.6968937  22.0362186
  57.8156395  24.4561825  21.9932709  58.7662086  23.6278725  21.1558304
  14.2138844   6.7743988  27.9681282  13.8209314   6.9028635  27.1048107
  15.0273991   6.3013668  27.7930126  39.1253662  63.3082886  55.7097816
  39.6060219  64.0904922  55.4389305  38.3410110  63.3071899  55.1611328
  75.5685272  23.1353970  82.0770645  74.9090652  23.2078915  81.3870697
  75.1225357  22.6736603  82.7870789  64.2958603  37.2135010  40.0037308
  63.4157524  37.3345642  40.3600845  64.5870438  38.0972824  39.7792892
  33.0764008  59.4334488  82.3138275  32.7570801  60.2171440  82.7611389
  33.4091606  59.7548027  81.4758301  70.5973587  40.5323677  66.5515366
  70.6140137  39.8913231  65.8408890  71.0914307  41.2787781  66.2124176
  26.2844582  34.9730301   5.5697308  25.9912167  34.3603516   4.8952932
  26.7419987  34.4256935   6.2079406  32.7861900  63.8111496   7.5754428
  33.5000992  64.0876541   8.1499949  32.5387039  62.9455223   7.9005198
   0.2955511  31.6434383  16.5493851   0.8797894  31.9088173  17.2596455
   0.1195550  32.4524879  16.0690784  40.6227150  31.0546036   3.2863562
  41.1767006  31.5535641   3.8866649  41.1803551  30.3367100   2.9865332
  40.5536537  70.0712967  59.0783653  40.1989441  69.9854813  59.9632645
  41.4580078  70.3562469  59.2094231  75.2987976   0.1559180   4.8871312
  76.0744858   0.6222993   4.5756283  74.6524429   0.2745183   4.1911550
   4.5041194   0.3883174  25.8151302   3.8679974  -0.1300104  26.3079967
   5.1317568  -0.2542223  25.4843044  38.5203590  47.8428574  73.3742447
  38.9823456  47.3553200  74.0562286  38.4301300  48.7265282  73.7309113
  46.7033615  66.0676041  51.0410919  46.1517715  65.8665390  51.7971001
  47.5811272  65.7915955  51.3048592  65.9172821  43.6927071  18.2137833
  65.6197128  43.6845665  19.1235199  65.2614441  44.2150230  17.7519360
  11.5369453  21.7113781  76.4060364  11.3520899  22.3097782  75.6821747
  10.8175182  21.0803432  76.3848190  54.3577080  13.2445192  53.1338882
  54.5139618  12.3870993  52.7380981  53.4073029  13.2906752  53.2379417
   5.1057096  61.4006767  77.7289429   5.1884584  60.6805229  77.1038361
   4.8183637  60.9817886  78.5402374  79.6255951   0.3180272  51.8979149
  79.8480835   0.9842482  51.2476234  80.4697571  -0.0402666  52.1722221
  70.1723175  49.5859909  43.9089622  70.1763077  48.8076210  43.3518677
  69.8105240  50.2763557  43.3533249  69.6353378  62.4910240  22.6721001
  69.6416245  63.0204849  23.4695110  68.8546143  61.9433670  22.7543793
  22.6238766  12.9832335   4.6538038  23.1788464  12.8128471   5.4148622
  22.7171421  13.9225225   4.4948435  73.5723953  55.8010521  53.3476295
  73.3700333  56.2804565  54.1510277  74.3065491  55.2346420  53.5851746
   4.4546232  34.4520416  60.4666061   4.5763307  33.6127129  60.9103966
   3.5458136  34.6902542  60.6497765  65.3521957  66.2306595  16.4704437
  65.9501343  65.8539810  15.8248348  65.8936462  66.8411255  16.9708443
  30.1940765  56.1440506  32.8799133  31.0089512  55.6427078  32.9093781
  29.5049267  55.4800377  32.8600655  66.5790939  38.2274780  49.8894119
  66.7118225  37.8673553  50.7662964  66.8462067  39.1436386  49.9637833
  28.3595791  60.9485207  60.9459915  28.0477390  60.7251511  61.8229713
  28.7605667  61.8117905  61.0470314  64.3022690  33.1068535  51.9421730
  64.9958267  33.4513893  51.3795815  63.5922356  33.7440872  51.8646088
  49.9444275  10.7382956  23.8018761  50.1375694  10.0220337  23.1969814
  49.5811348  10.3071480  24.5754147  32.0726318   1.1683865  14.7972317
  31.9014568   1.6009285  13.9606676  32.9885025   1.3705387  14.9884014
  16.7579136  52.2036362   7.0362678  16.3695717  51.8149567   7.8200722
  16.6324921  51.5436974   6.3543720   3.3728788  54.8035202  56.7637329
   2.7156990  54.7310562  56.0715637   3.2541776  54.0131035  57.2904053
  61.2969589  62.5046349  33.5450478  61.2799225  63.3066521  34.0672607
  61.2925529  62.8094788  32.6376991  78.2070999  23.4177647  79.6968842
  78.4535980  23.1549702  80.5836792  77.4465256  22.8750668  79.4889450
  29.3248272   7.9385824  61.3487549  28.8416080   7.2556067  60.8837013
  28.6460686   8.5107813  61.7066727   0.4633942  47.7219086  50.3316078
   0.5867296  48.6440239  50.1063881   1.2447814  47.4915237  50.8341904
  45.8844147  30.0783863   2.3903682  46.1122818  31.0001202   2.5116858
  46.2292099  29.8583241   1.5249667  52.5129700   6.7046313   9.3426552
  52.7168312   7.6243396   9.5123863  52.1773262   6.3758497  10.1766081
  10.0264645   7.6715527  24.1505489   9.5694084   8.5120211  24.1198006
   9.4207792   7.0543809  23.7400894   1.4598321   2.2597935  20.8550510
   1.7779524   1.5083238  21.3553753   0.8731773   2.7174528  21.4572277
  53.1579552  31.6884880  35.2497940  53.0840225  30.7675858  35.5002022
  53.0590057  31.6865044  34.2977257  24.5141277   6.7148132   4.1159940
  23.7126255   6.7764511   3.5963526  24.3406754   6.0111055   4.7412472
  23.2573948  22.0961533  89.1125259  23.4678497  21.5377884  88.3640823
  22.7334671  21.5384464  89.6875916  41.9939728  64.8826523  24.0361061
  41.6997643  65.6732407  23.5837364  42.6321716  65.1966858  24.6766663
  19.9459476  20.6306934  84.5625916  19.4507236  20.7068386  83.7470016
  20.6565380  20.0237103  84.3555527  83.0692444  60.0267677  88.0096436
  83.6807938  59.9810791  87.2746964  82.6749954  59.1553612  88.0476990
  49.8348465  47.3412361  48.8035049  50.4140663  47.8577118  49.3638496
  48.9565392  47.6644669  49.0043297   9.0035410  13.6206779  52.1471939
   9.6217813  14.2427597  51.7637558   8.5487270  13.2408047  51.3954773
  11.7148132  20.5873871  87.9902344  12.6615067  20.6710224  87.8761826
  11.5952997  20.4868298  88.9346085  47.8299370  68.7043076  75.3230896
  47.0882301  68.6512833  74.7203522  48.3969994  69.3772278  74.9464493
  14.6863708  54.0257835  56.9566765  13.7394991  53.8858070  56.9650993
  14.7883434  54.9765015  57.0010376  33.7258644  68.9218292  13.0528316
  33.8438530  68.4253082  12.2430277  32.8461761  68.6895370  13.3501892
  42.6885910  38.5892563   4.7331152  41.9079208  38.1013908   4.9953551
  42.5540962  39.4667816   5.0910192  17.2346096   9.8508854  66.3802338
  16.3241920  10.1397600  66.4428787  17.2965946   9.1194038  66.9945068
  84.1780548  38.1097908  70.0775833  83.8320236  39.0019341  70.0536575
  84.8641586  38.1368179  70.7444839  59.6261406  64.5097046  74.3378067
  59.4627457  63.7739449  74.9278870  60.5461388  64.4181747  74.0898972
  23.5850639  70.0988464  67.1463318  22.9151478  70.2495422  67.8132172
  23.2172165  69.4140549  66.5877838  71.0844498   7.9791393  26.9153557
  71.2393799   8.4461384  27.7364159  70.7815552   7.1124711  27.1862278
  70.2567520   5.3444271   4.8301692  69.8396606   5.5747752   3.9999874
  69.7896347   5.8633170   5.4849877  54.5525589  40.4907608   8.9431858
  54.3851128  41.3028221   8.4649076  53.7130203  40.0310326   8.9358902
  42.6849174  52.7378922  73.2591858  42.7623138  51.9833794  73.8430939
  41.9262657  52.5391998  72.7103729   2.2894261  42.9704018  25.9614429
   3.0586646  43.4565315  26.2583961   1.6941658  42.9828911  26.7109375
  34.0154610   1.4713578  87.7565460  33.1434784   1.6036700  87.3845520
  33.8885574   1.5584227  88.7012939  59.3566017  37.1071663  84.5317230
  58.5587959  36.7806320  84.1156540  59.0798111  37.3652687  85.4109268
  46.9266586  38.3862038  58.4392929  47.0702324  38.0915031  57.5399742
  47.1793633  37.6377487  58.9798317  25.5798683  18.7899952   9.5035172
  24.8419418  18.3268833   9.1070004  26.3210793  18.5949383   8.9301138
  57.2666473  11.9076986  24.4006004  57.0219574  11.0307245  24.1051788
  57.8698807  12.2268982  23.7294445  51.1329079  24.1457386   1.1107284
  51.6284027  24.8878555   1.4571062  50.2160263  24.3976173   1.2208005
  48.3906059  22.3755150  61.3461609  48.2702179  21.6063137  60.7893219
  49.2688103  22.2710438  61.7123260  18.9531040  45.3696899  32.6154976
  18.4987888  44.5575409  32.3913498  18.3940086  46.0620384  32.2629395
  54.4354515  32.8455124  26.2281475  53.4875298  32.9748573  26.2588196
  54.5482903  31.8951988  26.2482319  37.2231865  53.7437515   1.9847313
  36.8415451  54.1291161   2.7734492  37.9826622  53.2542725   2.3007057
  45.8234596  15.8293152  69.4259338  46.1555710  15.5381441  70.2751389
  45.8259163  16.7848320  69.4826202  43.2952271   1.1028240  41.1951981
  44.0634575   1.6499918  41.3584709  43.6295471   0.3678196  40.6811676
  61.7395782  16.6775322  26.9801636  61.9020996  16.0183277  26.3054276
  61.5194702  16.1708965  27.7618980   6.2791901  31.3722172  -0.1979983
   6.0961885  31.1427975   0.7131050   6.8418245  30.6654949  -0.5145738
  66.9054413  14.3900414  71.4055710  66.3109512  13.6969223  71.1185226
  66.8276596  15.0662422  70.7325668  80.0964355  11.2087860  19.7551022
  81.0114517  11.4814787  19.8230858  80.1369858  10.2582693  19.6497135
  11.0096807  64.8882904   5.0357332  10.6733675  65.5292816   5.6620288
  11.2562819  64.1352844   5.5727730  68.3501205  29.3938599  81.7063446
  67.5926437  29.9486866  81.5202713  68.0918350  28.8859673  82.4754791
  38.4170036  47.4055061  46.8037758  37.9809952  47.3482323  47.6539764
  39.3466492  47.2954102  47.0034561  11.3146029  54.2718582  12.7598410
  10.8475513  54.7894287  13.4157486  12.2392998  54.4601974  12.9201412
  47.7668037  11.7989378  76.4941483  47.1032600  11.6533184  77.1684875
  48.4847641  12.2335176  76.9544754  64.0758514  25.6697598  12.3228827
  65.0151520  25.7556438  12.4858999  63.8048744  24.9305878  12.8673325
  59.1137466  63.1664276  52.3737373  58.1900597  63.2093010  52.1263618
  59.1808739  62.3786659  52.9133301  33.4613686  64.5026627  83.7960281
  33.1650047  65.3937073  83.6104736  34.4164848  64.5650330  83.8056030
  23.6191635   9.4165859  43.1556473  24.4163933   9.9424009  43.0910378
  23.0433941   9.9238539  43.7278404  63.1677933  66.2458878  76.0800095
  63.7180252  67.0264740  76.0155029  62.3111458  66.5296631  75.7608490
  36.5723877  47.2547226  49.4512634  36.7442741  48.0785103  49.9074059
  36.7288513  46.5786896  50.1105995  56.3837929  26.2583752  72.9724579
  56.5390739  25.4175415  72.5422058  57.2426491  26.5196953  73.3045807
  49.4111938  19.3665829  68.6081696  49.0246201  19.9225197  69.2847214
  48.9030838  19.5597019  67.8202820  44.8753052  68.9614716  44.9654007
  44.5572853  68.1643372  44.5415192  44.0953751  69.3490601  45.3625374
  48.2258606   9.2517433  50.2058525  48.8953857   9.8636789  49.9000740
  47.4689217   9.4257078  49.6463814  24.2289009  16.0453911  72.9039459
  24.6566238  16.2061863  73.7450333  24.0962868  15.0977240  72.8799744
  77.2123718   8.1200542  65.0332336  77.9547501   8.0795593  65.6361084
  77.2870941   8.9795885  64.6186829  67.2645340   9.1803455  18.9216175
  67.6167603   9.1375780  18.0326080  67.9196625   9.6735868  19.4153347
  24.9772263  57.3358879  50.4942169  24.5374985  56.8107300  51.1628571
  24.4921951  57.1537895  49.6893425   6.9458628  52.7970772  65.9390259
   7.8507457  52.5461006  66.1245880   6.6036730  52.0810738  65.4037933
  48.1962013   3.2651114  68.7347794  47.8053474   4.0696635  68.3939514
  49.0018234   3.1573629  68.2292175  46.6603127  55.1542892  83.1789932
  46.2034454  55.9422073  82.8845520  47.5658798  55.2829590  82.8968201
  70.3511505  11.8793516  55.3422775  70.3723755  12.4212599  54.5535316
  71.1150589  12.1598873  55.8462372  36.1636391  28.6842747  64.3024750
  35.6705017  29.3896065  63.8834839  36.0965576  28.8688526  65.2393112
  80.5560303  67.7070007  40.9556541  79.7032547  67.6208801  40.5295258
  80.7200317  68.6498489  40.9749298  61.6589279  53.7355461  81.7657928
  61.2258492  54.5313034  82.0747299  62.5827408  53.9766960  81.6975708
  12.6927910  43.2589226  66.9415665  12.6146927  42.4396858  66.4527130
  13.2221518  43.8240738  66.3788834  78.1757736  59.9118500  35.2543259
  77.7924652  60.6872406  35.6642990  78.1745224  59.2499580  35.9457932
  61.0875969  47.4249763  57.0892487  61.7642212  46.8453484  57.4391670
  60.5323792  46.8526802  56.5596809  14.4336834   9.2708244  71.2714386
  14.1652031   9.0336094  70.3838120  15.1935492   9.8396549  71.1478729
  74.2096252  56.2104454  19.5614777  73.6199112  56.2282066  20.3152370
  74.7055130  55.3982086  19.6644249  61.3831444  33.3490448  55.4992790
  62.0828934  33.0133934  54.9389954  61.3917465  34.2948952  55.3525696
  70.7709885   1.1963488  41.0387344  69.9896545   1.5224155  41.4853096
  71.2959824   0.7993881  41.7337379  81.2792969  40.4516487  67.0412521
  80.5688934  40.9682426  66.6608734  80.8968582  39.5855217  67.1819382
  14.6390810  38.8289108  24.1755352  14.2113533  38.2837906  23.5151386
  15.5601234  38.8420906  23.9152660  52.7691269   2.9637096  40.0916977
  52.3151779   2.7135010  40.8964081  52.4737816   3.8575022  39.9180984
  85.2303848  12.1623363  63.0104485  84.3662567  11.7768707  63.1551323
  85.7562714  11.4452381  62.6562653  54.2128143  12.1493797  40.1778755
  54.1738358  12.8203592  40.8594170  54.3873940  12.6360617  39.3723335
  31.5459270  55.1629601  79.0295334  30.6618671  54.9392014  78.7386703
  31.4143734  55.6494560  79.8433228   8.9633837  46.3389435  51.0471992
   8.0703793  46.0634346  50.8401489   9.4386091  45.5209808  51.1932449
  72.6877594  25.2417412   6.8332868  72.3991547  24.3347492   6.7317562
  73.2365646  25.2321014   7.6174750  35.5178070  68.3457489   0.4713977
  35.4860725  68.1189423  -0.4580012  36.4508553  68.4397888   0.6632662
  22.9457016  44.9850807  22.4601784  22.2922592  44.7762909  23.1277504
  22.6777344  45.8393784  22.1216488  82.1566010  44.6985321  13.2213364
  81.7975922  44.3356476  12.4116096  83.0309982  45.0040703  12.9798555
  33.1599350  40.8317490  69.6405716  33.8795013  40.2009811  69.6648178
  32.3941002  40.3121681  69.3961105   3.8166201   8.9921541  75.2125320
   4.1487551   9.8509226  74.9509354   3.5666304   9.1013670  76.1300354
  55.6921921  41.4464569  68.6767197  55.3750000  41.5318375  67.7776489
  56.2633629  42.2042542  68.8021698  83.2691879  29.8405933  77.4733353
  82.4353104  29.7409096  77.9326324  83.0535049  29.6981640  76.5516891
   6.1552877  57.0609550   3.2418289   6.2996459  57.5018501   4.0790882
   5.5846601  56.3226471   3.4551802  55.6572037  14.5718222  63.0689621
  55.0856209  13.9055948  63.4506187  55.2717247  14.7559519  62.2123795
  75.7609482  30.5773506  14.4058342  75.1704254  29.9567757  14.8329248
  76.5350266  30.5974464  14.9685287  32.4339371  36.8484154  86.9219437
  31.9941330  36.0208969  87.1169205  33.0266190  36.9846344  87.6611404
   0.2096544  46.3627968  32.3394356   0.9811914  46.9187241  32.4485474
  -0.3903444  46.8871880  31.8091087   5.0541339  52.9616508  22.0677853
   4.4306130  52.8584213  21.3488998   4.5080442  53.1232452  22.8371391
  45.6041412  58.8347778  73.6482086  45.4526062  58.8087807  74.5929794
  46.5365105  59.0328636  73.5605392  61.8507423  39.4098778   4.8488703
  62.2067757  40.2739105   4.6416984  61.5180359  39.4958458   5.7422614
  53.5936279  42.9060516  38.5822411  53.5519447  42.9978638  39.5341148
  52.8841057  42.3000488  38.3687706  49.2129402  58.6230087  28.2397308
  49.5409927  57.9194717  27.6796856  48.4767075  58.2314568  28.7097092
  40.9279480  68.8248138  32.9459419  41.3389130  69.6387405  32.6546249
  41.1164284  68.7835388  33.8834915  35.7337570   6.4144678  29.5834465
  34.8068161   6.5504465  29.3871727  35.7998543   5.4830723  29.7940788
  75.2504730  44.3423576  76.5116730  74.5683136  44.2924767  77.1813049
  74.7828217  44.5781631  75.7104721  21.1957855   3.8416932  63.9130936
  21.3129578   4.6927910  63.4910316  21.7988510   3.8578300  64.6562500
  45.8130760  40.7438507  33.7142487  45.0399170  41.2909126  33.8527374
  45.6291161  40.2701378  32.9030838  85.4695358  41.9056015  61.8194695
  86.1172028  42.4799271  62.2280159  85.9716721  41.1413269  61.5366745
  85.2162552  61.0931625  78.0526123  85.1727753  61.5649719  78.8843231
  86.1521835  60.9634209  77.8994980  45.8882980  24.6885910  66.9287796
  45.2011986  24.5447655  66.2780609  45.5441322  25.3825264  67.4911270
  80.7495880  14.2838974  10.9588614  81.6532822  14.4791670  10.7109938
  80.2404556  14.4624386  10.1682062  22.7817822   6.8213949  71.4863510
  23.0445061   6.2869225  72.2357178  23.5460186   7.3674388  71.3019333
  67.7152405  14.0580854  27.1172295  67.1319809  14.6645641  27.5735435
  68.4889526  14.0022163  27.6780205  73.5074692   0.6554479  48.7847252
  73.9207611   0.5899781  49.6456184  74.1859436   0.3733761  48.1712532
  20.3152294  50.5082359  77.7431946  19.8811188  50.0094414  77.0511093
  19.7655773  51.2830086  77.8608322  55.0636826   7.0832992   0.2620743
  55.5989990   7.8346934   0.5171744  54.2315254   7.4656053  -0.0164688
  67.5830841   2.7635174  81.5553818  68.3307266   2.3887050  82.0209732
  67.9729767   3.3655016  80.9214859  36.9579811  60.7272491  79.8348312
  36.1005745  60.8448715  79.4258652  37.5567284  60.5901718  79.1007004
  81.2203903  12.6760511  86.5670624  80.8646317  11.8293676  86.8368683
  81.4983597  13.0903444  87.3839645  56.4788208  13.8714285  80.6274261
  55.6095695  13.9246826  81.0246735  56.9170876  14.6771250  80.9013062
  43.7049599  11.1797676  87.1362152  43.7289810  10.6294184  86.3534164
  43.1273422  11.9058571  86.9008865   2.8549087  38.8532372  48.7497101
   3.6819746  38.5788155  48.3536224   2.9828062  39.7796555  48.9537354
  82.4002457  28.6899853  21.7885342  82.2838211  28.1286087  21.0220280
  82.2025528  28.1222916  22.5334320  84.7693787   8.5005083  54.7937241
  85.6606369   8.6493607  54.4779091  84.7944565   7.6238427  55.1772118
  63.9291992  13.9866409  27.9162636  63.4387589  13.4320030  28.5229568
  63.5383263  13.8096714  27.0606174  23.7487926  67.3649979  45.5827332
  23.9512691  66.5525360  46.0465736  24.1345367  68.0529480  46.1250916
   2.2292299  39.9850502   1.3325754   1.9041207  39.7839584   0.4550232
   3.1799636  39.9000435   1.2610843  52.0883217  13.4029808  70.2484207
  52.5501747  13.2312613  71.0690536  52.5831413  12.9168320  69.5888443
  55.5711327  66.5456543  68.2671509  55.3680038  66.0329132  69.0494995
  55.7720909  65.8916931  67.5976868  54.2774925  14.0539789  87.0156097
  53.8793716  14.0567951  86.1451340  53.7007980  13.4992990  87.5409470
  44.7715874  63.1567268  49.9570541  44.5426407  62.5937691  50.6965752
  44.2215500  62.8440857  49.2387619  71.4089508  71.6709061  88.1797562
  71.6793900  70.7746582  88.3793259  72.0158768  71.9579239  87.4974823
  85.8020554  69.8892136  10.6632309  85.2692261  70.3155136  11.3344975
  85.2359085  69.8581619   9.8920307  19.1991463   8.6900263  64.5296173
  19.9009571   9.1056433  65.0305710  18.4236717   8.7803478  65.0834351
  26.8799706  46.5887375  18.6865158  26.6866188  46.9222031  17.8103600
  26.7455063  47.3402634  19.2638874   7.9137039  35.6780014  82.0321503
   7.9632053  35.5490341  82.9793320   8.4330664  34.9624023  81.6655273
   2.6858613  21.5388126  69.5291443   2.7864676  22.4508514  69.8017197
   1.8134437  21.2919579  69.8360367  27.4930115  55.8720665  71.1566620
  28.0775280  55.1144714  71.1315994  26.9155560  55.7541008  70.4024277
  10.0870361  60.5433235  78.3326645   9.5814848  61.1581841  78.8642578
  10.4021578  59.8897667  78.9570007  74.2488251  42.0738907  47.4794579
  74.8369904  41.3397942  47.3022614  73.4228668  41.6628571  47.7345581
  55.5195656  35.5977936  19.9598446  55.9990234  34.8417282  19.6211472
  56.0714951  35.9349136  20.6655006  54.9989090  38.5947037  13.9264774
  54.5080681  38.1230240  13.2535553  54.7202950  39.5055656  13.8319359
   8.5237322  68.7907410   7.8563933   8.7920732  68.4412766   8.7061548
   9.1559658  69.4855576   7.6726990  73.7747345  54.2964363  85.7124710
  74.4956512  54.9004478  85.8904419  73.4534225  54.5548973  84.8486481
  24.7395229  23.8896561  51.3002777  24.5199299  24.6339474  51.8606720
  24.6260986  23.1240788  51.8635330  58.6202545  62.4868584  67.4649200
  59.4779739  62.4061241  67.0477524  57.9986992  62.2174416  66.7886658
  59.6197281  18.9064636  76.5562363  59.0231400  19.4884872  76.0855331
  60.4465294  19.3875771  76.5902634  57.6421776  16.2254066  69.4169235
  57.0773430  15.6677027  69.9518661  57.8108521  15.7094440  68.6285324
  66.2744064   9.0864801   3.7191205  66.2173462   8.4182816   4.4021177
  66.6729736   8.6350403   2.9750931  38.3393288  37.5938072  16.5670052
  37.9600792  36.7150269  16.5547714  37.6073532  38.1735191  16.3563480
  72.3716660  15.5345154  35.6023941  72.4748383  16.2070255  34.9291077
  72.6318130  14.7210197  35.1702156  86.5497818  71.7876434  13.3422375
  85.6316910  71.5197983  13.3823833  87.0231476  71.0886307  13.7933912
  14.0079021  54.4246941  10.1153021  13.2213898  54.8193550  10.4919615
  14.6958561  55.0735855  10.2632666  22.6491699  56.1490517  67.3474121
  22.0194092  55.9635162  66.6508484  22.1796227  55.9434891  68.1558075
  11.2666855  39.6038284  42.6857071  12.1778984  39.3267441  42.7813492
  10.8945770  38.9892159  42.0532379  49.6772690  44.4449997  11.7778654
  49.0771217  44.4461365  11.0321741  49.3844414  43.7123909  12.3198690
  43.6292839  14.2151594  87.0006104  44.3253899  14.8530502  87.1579590
  43.0214424  14.3392544  87.7295532  19.5778751  19.9978924  71.4761353
  19.0235481  19.2730179  71.1871490  19.1478367  20.3286324  72.2647476
  66.5650024  56.3379974  19.2349033  66.9649811  55.4930420  19.0292263
  66.0731888  56.5683746  18.4466953  42.4246483  66.8132858   7.7687826
  42.9116974  67.3159790   8.4217100  41.5452003  66.7304230   8.1374731
  32.0289116   2.8390610  18.2968445  31.5165749   2.8051291  19.1046734
  31.6699505   3.5852995  17.8167324  12.8649597  37.3780098  54.6225471
  13.3050795  37.2562408  55.4637985  12.0071611  37.7363052  54.8506660
  63.4283371  46.6364479  60.5967064  62.9097977  47.3915062  60.8746185
  64.3256073  46.8570099  60.8466873  51.9611092  54.3149300  16.9835300
  52.1954575  54.0667000  16.0892715  52.7979050  54.3632240  17.4457798
  71.4080734  26.1747322  46.8249474  71.8618011  25.8541279  46.0454712
  71.1525497  25.3818703  47.2964401  55.7312965  13.0342827  75.9879990
  55.8818703  12.2389870  76.4989471  56.1778984  12.8731289  75.1568527
  74.4442673  23.1366158  77.4323120  73.6416168  22.6353092  77.2884979
  74.1903534  23.8237343  78.0484467  53.9774933   0.6335546   2.3353941
  54.6581535   0.8977450   2.9543760  53.7163734  -0.2405414   2.6252279
  39.7193260  57.2100983  41.2849388  39.7923698  56.3604507  40.8502045
  39.8577919  57.8493958  40.5861168  38.9458694  48.8783951  22.3280563
  38.1127548  49.3474579  22.2818756  38.7224503  47.9719849  22.1165447
  83.0849762  61.7149506   1.1904895  83.0829773  61.3035469   0.3262126
  83.7093811  61.1985779   1.7001059  34.0092888  20.7146568  86.1645813
  33.6295166  21.4457016  85.6771622  33.5106163  20.6864281  86.9811325
  11.2781734  32.5817108  19.7872620  12.0197697  32.0284996  19.5418530
  11.0985174  32.3509750  20.6986980  22.3740082  49.9925232  31.7005215
  23.1340160  49.5344734  32.0594254  21.6234741  49.5903053  32.1377335
  16.2640476  28.9754105  63.9946213  16.7563477  29.5189648  64.6097794
  16.1402817  28.1451511  64.4546051  22.7606983  39.6280327  60.4538612
  22.4168282  39.5381622  61.3426285  23.2361336  38.8121262  60.2973557
  86.7894440  63.6989632  16.1376953  86.5972900  63.3657494  17.0142097
  86.5342484  62.9879150  15.5498829  60.3715363  64.5078506  50.2589493
  60.1931190  63.9068985  50.9823112  59.7749596  65.2420502  50.4048271
  43.0660896  13.6407967  58.6346779  43.0776901  12.6866493  58.5591736
  42.5868683  13.8110781  59.4455948  20.3405151  10.8140459  10.5629520
  19.5170498  10.6516695  10.1027679  20.1312695  11.5045910  11.1919165
  49.3470306   4.9219193  50.2925301  49.8947372   4.4492669  49.6657562
  49.3218079   4.3552771  51.0635757   3.7452548  65.4889221  48.8443947
   4.3499198  65.6278381  49.5733070   4.2494063  64.9814377  48.2083740
  62.6017113  13.5969486  85.9463043  62.8263283  12.7106533  85.6630020
  62.1189766  13.9691782  85.2083054  47.4206696  24.1511860  12.9257002
  47.7960091  23.3812160  12.4984989  46.4745293  24.0141068  12.8781462
  71.5592880  40.7939987  54.3163376  72.3098145  41.1786499  53.8635902
  71.8567963  40.6798592  55.2189407  86.0597458  11.3639240  49.9426804
  86.9592590  11.6912031  49.9429321  85.5578842  12.0424232  50.3943481
   7.1464901  54.9384232  21.2125378   6.7726188  54.5174217  20.4384499
   6.7385879  54.4867706  21.9513569  76.3086166  71.6641312  30.9684772
  76.2917099  70.9139404  30.3742104  75.4577255  71.6420593  31.4063396
   8.0728121  63.0424042  70.7842102   7.9740620  63.9150734  71.1649094
   9.0048151  62.8448029  70.8767090  44.9182777  11.2400770  75.8933411
  44.3190002  10.5655565  76.2128983  44.3998070  12.0446558  75.9019012
   3.0980511  59.4619904  13.4378128   3.5693684  60.1712189  13.0006790
   3.7671974  59.0118484  13.9534187  65.6629181  38.1048088  22.3927860
  66.5570374  37.7947464  22.2491131  65.4196548  37.7470741  23.2466488
  68.9018173   0.2515517  31.0852127  67.9650040   0.3089431  31.2731552
  69.2759018  -0.1701657  31.8588047  11.3149023  31.6859741   9.4267540
  10.9721489  32.3782196   8.8614664  11.2619343  30.8929596   8.8933172
  80.6763840  53.7372551  86.7005386  81.5998001  53.5252686  86.5641937
  80.6066666  54.6635704  86.4696350  83.6953506  43.0003395  59.9833183
  84.4006653  42.9583511  60.6290741  83.1580276  43.7413521  60.2633514
   9.5072803  46.3116951   2.0802476   8.8133698  46.0697250   2.6935759
  10.0780277  45.5438919   2.0492737   9.3883934  65.2427139  56.7125854
   9.7552786  64.7451324  57.4433708   8.7843418  64.6338501  56.2875633
  52.3851051  48.5992775  70.0895691  52.6835823  49.1912956  69.3991623
  51.4299126  48.6329498  70.0375595  56.4771881   0.3087843  33.4963150
  57.2450600   0.8560629  33.6609039  56.4250679  -0.2665339  34.2595482
  11.4637518  52.7792664  31.2650871  11.9683685  52.2273865  30.6675739
  11.8066454  52.5680504  32.1334457  81.2506866  30.9444447  64.9737473
  80.8952332  30.9997940  64.0867233  82.1630478  31.2196598  64.8837738
  73.7642288  29.4265938  73.5627594  73.6931305  29.9632683  72.7733612
  74.6769562  29.1384850  73.5751038  18.0160561  21.0673904  73.4521027
  17.4659023  21.8224144  73.6606674  17.4113770  20.3254147  73.4438629
  41.9508858  61.3496323  56.9969254  42.5006599  61.1227455  57.7469254
  41.0546951  61.2463646  57.3169403  10.3077745  18.1359119  65.9033051
  10.2725086  19.0444794  66.2024612   9.4000616  17.8348846  65.9441910
  45.8483238   4.8604794  72.2380524  46.5041809   4.1877489  72.0549622
  45.0532417   4.3696141  72.4457245   8.3122063  28.8718910  62.4860001
   8.8688459  29.3543510  63.0972404   8.7191191  28.0078278  62.4223785
  70.2194138  28.2462616  59.7625084  71.0840225  28.1526356  59.3626099
  70.0681381  27.4107246  60.2043495  26.9016705  70.7195129  71.0230560
  27.0768795  69.7791443  70.9876480  27.6619530  71.0880280  71.4729462
  37.3896141   4.3847246  74.8278046  37.2576675   5.0097566  74.1149521
  37.9315147   3.6950870  74.4444275  55.0050888  36.9624863  57.5775566
  54.3534470  36.2746277  57.4417610  55.8469734  36.5162773  57.4861298
  70.9422379   4.4473095  63.7917862  70.5714645   4.8346367  64.5847168
  71.2715073   5.1941814  63.2917938  30.7169857  48.0172920  51.2113571
  30.0748348  48.4278603  51.7904129  31.1509972  47.3639374  51.7599869
  44.3125496  55.5607109  76.8962021  44.7450027  54.7846718  76.5398636
  43.4635391  55.5856781  76.4548492  47.7096939  13.8446751  18.9268055
  48.5468712  13.3944006  18.8144703  47.4033661  13.5687704  19.7906761
  25.0650368  50.3712692  10.5496016  24.9080067  50.1704712   9.6269674
  24.7255802  49.6107254  11.0213814  82.4679871  41.3654785  82.2767944
  83.2050095  40.7549210  82.2610397  81.8087616  40.9312363  82.8181686
  71.6979675  13.3497000  76.7287216  72.3710709  14.0234241  76.6324997
  72.0802078  12.7139196  77.3336258  17.2354107  43.8037415  23.0288391
  16.7681026  44.4592896  22.5110416  16.5837402  43.1234627  23.1984749
  28.7808952  20.9286461  54.5156479  28.5020580  21.0853691  55.4178238
  29.0601635  21.7875652  54.1986313  67.8504639  53.3496094  85.2728653
  66.9638214  53.3328857  84.9125748  68.4006500  53.6316910  84.5421448
  13.2442274  19.8054924  72.5038223  13.5237389  20.6710014  72.2054977
  12.3276949  19.7438507  72.2347488   4.0173173  67.9826660   2.5120981
   4.8537240  67.8504333   2.9583845   3.4310367  68.3101501   3.1941972
  85.8064270   2.2237947  89.3100967  85.4761200   1.3339579  89.1863327
  85.7283783   2.6304462  88.4470978  55.4342575  68.3078842  41.6969795
  54.6282120  68.7486115  41.9658241  55.1387215  67.5840530  41.1447563
  75.3336411   8.6626558   0.7322768  76.2426453   8.6435013   0.4329914
  74.9550629   9.4279060   0.2994918   7.3851881  67.1538925  56.4270363
   7.7160082  68.0518875  56.4467926   8.1671324  66.6129456  56.3166847
  73.5316010   1.1298105  51.3940506  73.8455429   1.9573381  51.7585640
  74.1222763   0.4692538  51.7559853  52.4227371  12.0739183  72.6730881
  51.8516998  11.4340830  72.2479248  51.9203987  12.3783522  73.4288712
  73.5278854  51.6550140  20.8220158  73.1847153  52.2179375  20.1280537
  73.0363083  50.8385048  20.7331371  30.1436005  48.8390236  13.7648296
  30.8979759  48.6546745  13.2052183  30.2524433  49.7553139  14.0193853
  56.2307281  14.5195541  24.3213196  56.6121788  13.7285509  24.7021637
  56.1668587  15.1315947  25.0545044  77.3675690  55.6214027  37.2800407
  77.6194992  55.4960632  36.3651352  78.0494614  55.1725922  37.7798729
  50.5811653  20.2458839  79.6521149  49.9369583  20.1981411  80.3584824
  51.4277077  20.2319145  80.0986557   2.3574769  60.7193527  87.5283661
   2.2855492  61.2971687  86.7686386   3.2973962  60.6677933  87.7019348
  80.2330170   1.3270090  19.9321766  79.4202957   0.8670315  19.7220974
  80.0228729   1.8404781  20.7121887  52.2716942  11.5898428  47.2150536
  52.4316025  12.4483175  46.8230324  52.3645477  11.7354240  48.1565514
   6.5408311  30.4149513  21.2689323   6.4206948  29.6796417  21.8698635
   7.0492363  30.0512505  20.5440331  46.3187027   0.2109971   9.8471279
  45.8929672  -0.0248997   9.0229092  45.7477379   0.8773560  10.2294865
  44.2764091  40.9963150   3.4305625  44.9924812  40.6137657   3.9376421
  43.4917526  40.8105278   3.9463387  11.1353464  28.2146759  58.0014534
  10.6165924  27.5451603  57.5555000  11.2723303  27.8646126  58.8817520
  63.8120003   2.0394454  65.2631073  63.7243309   1.2237093  64.7700348
  64.0186005   2.6987305  64.6006165  33.0299072  30.5483131   5.9960098
  33.7989235  30.2346783   5.5201111  33.1397667  30.2038422   6.8822956
   5.9918389  54.7372169   9.9941320   6.4455056  55.5228577   9.6888657
   5.0935431  54.8423347   9.6806879   9.5750561  60.1017799  69.4875412
   9.3292503  59.8851662  70.3869171   8.7525606  60.3559532  69.0690536
  76.2772064  36.0782776  14.5501080  75.7780991  36.7802124  14.9677343
  76.0416946  35.2915878  15.0419245  69.3805618  13.1417131  10.8259964
  69.2518616  12.2641287  10.4661160  69.7173004  12.9913445  11.7093010
   6.9841905  64.0699768  31.2875881   7.5476899  63.8677635  30.5407219
   7.0838542  65.0135040  31.4142876  71.8301620  15.4491920   7.4009910
  71.9383926  14.5604105   7.0624843  71.0443878  15.4039841   7.9457331
   0.4821075  19.7672195   2.3234086   0.6361789  19.0631161   1.6935421
   0.5687378  19.3465443   3.1788383  18.1155834  51.4780807  34.1988411
  17.9222260  52.3816185  34.4487724  18.9208221  51.2660789  34.6709366
  72.7262115   1.9205086  82.3622360  72.8150787   2.2460501  83.2579803
  73.1377182   2.5940208  81.8206863  18.1367264  60.0512886  55.7443466
  18.4213543  59.9772568  54.8334465  17.5571747  59.3009300  55.8759232
  62.1426811  52.8491402  18.4957695  61.5869179  52.8864861  17.7173328
  61.7182884  52.2048645  19.0623665  47.9364166  46.4034843  15.5818739
  48.1130104  46.2849350  14.6486034  48.1701050  47.3152542  15.7559280
   1.5756003  35.1573524   8.1122046   2.3819759  35.0665321   7.6045218
   0.8930403  35.2940331   7.4551950  44.5089264  34.0962029   4.6359577
  45.1565094  33.4997940   5.0116735  44.4178810  34.7919159   5.2870545
  51.0986557  26.1588402  83.7327499  51.0662880  26.3165054  84.6763153
  52.0321960  26.0870934  83.5337906  30.7527733  50.5492744  30.3112469
  30.1623936  50.1315193  30.9382744  30.9789505  49.8529434  29.6946449
  62.2770615   8.6388445  37.4585571  62.3962708   8.9118547  38.3682175
  62.0884514   9.4505634  36.9876289   5.8753119  59.0649414  23.7085056
   6.2831168  59.5506439  24.4254570   6.6058278  58.6328201  23.2659550
  44.4841614  56.0685158   3.4198079  44.6797943  56.9557838   3.7209983
  45.3091164  55.5937767   3.5213046  66.5228806  47.1934624  75.3379898
  66.8514557  46.6108093  74.6533127  66.0267258  46.6203423  75.9224548
  34.9465027  64.3429642  36.4550209  34.7018814  63.4751511  36.7764168
  34.4411812  64.4511948  35.6493111  46.7135849   6.0403271  68.8862839
  45.9359589   5.5187545  69.0849991  46.3679886   6.8647885  68.5441437
  11.6044426  33.5711098  57.8976440  11.1852779  33.0124626  57.2430840
  12.4202776  33.1185379  58.1117096  53.5987206  52.5929108  79.6347427
  53.6344948  53.5061646  79.9192123  54.1160583  52.1188202  80.2857590
  64.5680237  32.6806412  33.9117851  65.3981323  32.2098122  33.8377914
  64.6301498  33.1460075  34.7459373  38.5212097  13.1142130  68.2542801
  39.1206665  13.1037178  67.5081100  38.9500656  13.6779146  68.8981400
  33.1767616  48.2332268  30.4866390  33.8308754  47.5395737  30.5715961
  32.3373451  47.7846603  30.5886078  41.8174324  70.5724030  86.7562332
  42.2577286  69.9415894  86.1866379  41.4186058  71.2008820  86.1544189
  30.8412151  65.9517365  80.9447174  30.8398647  66.8997574  81.0769577
  29.9168930  65.7046356  80.9730606  12.1740723   9.3860292  73.9493637
  12.8859119   8.7627573  73.8042831  12.0615730   9.8220005  73.1046753
   6.2481709  23.1513996  25.9067497   5.3354836  23.3342457  26.1299095
   6.4571261  23.7818336  25.2174587  17.0429783  39.3670654  23.3626690
  17.8561420  39.8702927  23.3207531  16.7771378  39.2649345  22.4488144
  42.2717552   6.4204388  78.1311340  42.7035942   7.2114754  78.4536362
  41.9898491   6.6459379  77.2446213  10.3128557  52.8519745  65.8185730
  10.1204195  53.2093010  64.9516754   9.7653818  52.0693588  65.8819733
  50.7487068  33.4689713  58.4878693  50.5385170  33.4597511  59.4216614
  50.2947731  32.7047882  58.1326294  41.2844887   3.9706137   3.4625888
  40.3978271   3.6291425   3.3465722  41.1598587   4.8994999   3.6571906
  19.1771278  10.2692118  71.5667038  19.4596176   9.4107361  71.8820572
  19.2356606  10.8376245  72.3346252  21.2957630  43.9104881  54.6158218
  20.7398739  43.6623878  53.8771324  21.0578976  43.2971802  55.3111687
  35.5718880  67.2453156   7.0059376  34.8240051  67.7641296   6.7097344
  36.2004585  67.2985001   6.2860060  60.6269379  54.6883049  67.0679855
  60.8854904  53.8644371  67.4810562  60.0616150  55.1127396  67.7133560
   9.9953098   9.4431810  75.8105927  10.6456146   9.4503841  75.1082458
  10.3386850   8.8175955  76.4485321  28.9184456  66.0316391  58.9283867
  29.0642185  65.7268677  58.0327873  29.7628708  65.9112778  59.3627739
  70.7192078   2.9421480  44.5743904  70.2983704   2.1629970  44.2110023
  71.1551208   2.6309457  45.3677139  62.8764229  45.4243507  47.5824928
  62.6699600  44.6837845  47.0122604  63.8290291  45.5050125  47.5348740
  18.7137375  27.7326622   6.7133756  19.1421127  26.8998070   6.9110508
  19.4190102  28.2944202   6.3920445  64.9115295   1.4022993  42.1991539
  64.2294083   2.0707049  42.1345100  65.0186615   1.2595860  43.1395721
  78.1805420  57.2252197  18.2959747  77.2933273  57.3298225  17.9522514
  78.1828308  56.3537254  18.6918526  19.0954628  16.2371635   5.3199916
  19.5310669  15.8309183   4.5706944  18.1688900  16.2503357   5.0801558
  13.0631447  47.7395248  56.1626167  12.3051033  47.5120506  55.6242294
  13.6645870  48.1741676  55.5579796  75.2220612   8.9293127  74.0669098
  74.5438538   9.6018524  74.0040131  74.7378159   8.1063557  74.1338272
  23.7728329   9.9791937  53.9684906  23.8816853  10.9161472  53.8057022
  24.3865833   9.5585766  53.3663101  28.3174229  24.8151588  75.3016891
  28.1518288  24.8906155  76.2414322  28.9913406  25.4712257  75.1238022
  23.4975433  14.9357595  88.0142212  22.5467033  14.8599434  87.9343109
  23.7605438  14.1522703  88.4971390  15.5043573  66.6929626  31.1136131
  16.1228027  67.3314972  30.7586060  15.4436893  66.9099121  32.0439301
  86.0039902  70.3543930  84.3598862  86.6014404  69.8741074  83.7866440
  85.4490738  69.6779938  84.7481918  49.6391602   0.4567278  69.4646072
  50.0671349   1.0657864  70.0663681  50.1837654  -0.3299488  69.4925156
  65.2088699  14.2733335  58.4360542  64.6063004  15.0170441  58.4419403
  65.1617737  13.9198771  59.3243599  51.7378197  31.9409447  21.2012157
  52.2623215  32.7414207  21.1820583  51.0295715  32.1036987  20.5782185
  56.9737778  13.7092714  34.9684410  56.3936882  14.1974516  34.3841400
  56.3947678  13.3664360  35.6492081  79.5187302   9.0209274  45.7900009
  80.0182266   8.2407837  46.0310593  80.1083832   9.7508087  45.9792633
  77.5322266  18.3852921  38.2132111  76.9746857  18.4099598  38.9908791
  77.3851700  17.5159645  37.8405495  11.8122196  38.2666054  18.0954247
  12.3363581  38.8228760  17.5191689  10.9132299  38.3831177  17.7880573
  15.9799280  71.3844986  60.1347809  16.0343857  71.1093216  61.0499535
  15.0534725  71.2934418  59.9120216  38.1727142  58.0579643  72.0731659
  38.9834938  57.5721245  71.9220810  37.5413780  57.3917656  72.3448792
  81.1711197  35.5369301   9.6192751  81.3849182  35.7019501  10.5375853
  81.9359894  35.8486938   9.1355267   2.4320014  63.5939598  54.2159882
   2.7387652  64.4248199  54.5790291   1.6102355  63.8133011  53.7768745
  18.5390186  42.6071358   0.0691876  18.5684586  41.6687088   0.2555147
  17.6703053  42.8823509   0.3621432  45.2535133   1.4399974  74.4238052
  45.2043648   0.5045514  74.2269363  46.1443253   1.5698068  74.7491302
  37.4388924  45.3923531  59.1294708  36.5082855  45.1873550  59.2199059
  37.6601944  45.8610954  59.9341660  84.2987823  12.4071236  39.3790855
  83.9573135  12.6190500  38.5103378  84.0156555  11.5060501  39.5344505
  66.7794495  15.7516499  32.8831367  67.3108826  15.3351040  33.5615883
  66.2404404  15.0427513  32.5321884  80.4562531  30.5158291  86.9975586
  79.6188889  30.5076962  86.5338974  80.8733902  31.3328838  86.7243423
  14.4041967   8.5008535  50.2300644  15.2964878   8.1556015  50.2592201
  14.5038261   9.4369936  50.4031143  67.6463776  54.7869530  77.0827026
  67.5069580  54.1661568  77.7978287  66.7814865  55.1636086  76.9204636
  69.6967850  63.1514969  62.5994682  69.6241302  63.9586487  62.0900917
  69.9748611  62.4916267  61.9642677   5.8509021  19.9660549  15.2095070
   5.6231294  20.6314907  15.8587723   6.5883055  19.4951477  15.5977278
   1.3157676   6.7564034  67.0399933   1.9489458   7.3668528  67.4177094
   1.8233707   5.9647350  66.8615799   9.0142069  40.5129814  40.4966736
   8.6758757  40.3073273  41.3681488   9.8461151  40.0423012  40.4454994
  47.4383659  47.3922310  88.5625763  47.4016418  46.4404182  88.4680176
  48.3453445  47.6185570  88.3566818  79.2879715  16.5476685  61.9415779
  79.6217194  15.7013149  61.6440353  80.0134735  16.9314976  62.4340782
  73.8139572  49.9213943  32.6998749  74.3718338  49.3271675  33.2017708
  73.0608597  50.0807228  33.2688179  20.1621246  32.8472519  22.6513748
  20.9569607  32.5866623  22.1860123  20.4349022  33.5850639  23.1967716
  56.6641884  47.0736961  85.8726120  55.7633324  47.2916565  86.1117554
  56.6088181  46.1888046  85.5118713   9.0551767  70.2045670  26.2854462
   8.8918076  71.1382828  26.1523228   8.4614344  69.7680511  25.6745815
  23.9305801  41.1526642   2.4686904  23.5203571  40.4621086   2.9893479
  23.2164078  41.7575493   2.2679327  69.6567993  11.6471167   4.9423251
  68.7214508  11.5383425   5.1141558  69.7768021  11.3165407   4.0520725
  40.2730751  53.9681396  36.8852043  40.2700272  54.8897285  36.6265602
  40.9134979  53.5583000  36.3037224  83.7511139  38.5191345  63.7469406
  84.6826324  38.7370949  63.7783737  83.5505447  38.1976929  64.6259613
  50.2612305  58.9790459  14.7917614  49.8441200  58.4908066  15.5016012
  49.8623581  59.8482399  14.8322515  14.4019403  24.7915573  73.1854324
  13.6532469  25.0712852  73.7121658  14.9682417  25.5622501  73.1458359
  39.8428612  56.1171150  25.5956097  40.6040878  55.7031555  25.1889076
  40.2108879  56.8141594  26.1386738  39.8851662  42.2114334   1.7504174
  40.7900352  42.4227028   1.5206228  39.3763275  42.4697723   0.9819281
  66.0566254  42.6163101  73.1051559  65.4783096  42.3454971  73.8182068
  65.6445770  43.4031334  72.7482834  34.3553123  71.5922623  40.9655151
  34.8986969  70.8540955  40.6896820  33.4716034  71.2295303  41.0264816
  12.4428406  52.7891159  40.6497993  12.4751549  51.8472443  40.4822655
  13.2986832  53.1120377  40.3678627  10.3906193  63.6008110  45.8602524
  10.8674994  62.7752075  45.9450951   9.7761202  63.5989799  46.5941582
  64.5237579  61.6754951  85.0236359  65.2671890  61.4273186  84.4741364
  64.5229416  61.0306168  85.7310028  23.7077789   4.2584887  29.4876385
  23.2868252   5.0347619  29.8570004  23.0588932   3.5623529  29.5904617
  68.6508179  23.2380314  88.5418549  68.7996368  23.5749035  89.4253693
  69.3733673  22.6280613  88.3932343  12.4128695  11.5765800  57.7044449
  13.1539946  10.9762583  57.7855492  12.7857218  12.3656654  57.3113060
  26.9020863  50.2798347  74.7621689  27.8159142  50.1011505  74.9840317
  26.4021702  49.9093246  75.4895172  41.2425461  19.0521793  67.0628738
  40.9786606  19.9702606  67.0018387  40.5127563  18.6223488  67.5088425
  14.4541321  64.5310593  15.5304403  14.2629423  64.6246262  14.5972080
  14.5688162  63.5893860  15.6581955  71.1520233  46.7993736  12.7120161
  71.4059372  45.9765816  13.1300735  71.4683990  47.4784050  13.3078804
  65.4869156  67.7826385  49.1584396  66.2773361  68.0415726  49.6321716
  65.4886093  68.3294373  48.3727951  41.7099228  26.8828392  70.9222107
  42.6592216  26.7831306  70.8506393  41.5835533  27.4153976  71.7074738
  34.3568268  67.2632294  33.8154716  33.8907776  67.8962326  34.3616714
  33.7373734  66.5422516  33.7027397  20.0124969  57.1618614  81.6349411
  20.9139824  57.3864594  81.4044800  19.4767761  57.6488609  81.0087891
   9.9626713   6.6872740  88.7320175  10.8384285   6.9639654  89.0016937
   9.8419142   7.0824289  87.8685913  29.4867496   4.8895745  65.9822617
  28.9482231   5.2647185  65.2854919  30.3355618   4.7302833  65.5694885
   9.0471125  43.0412178  73.9114914   8.2765675  43.5486221  74.1665115
   8.6927490  42.2916908  73.4330902  66.1825638  32.0486603  30.3100357
  66.6002197  31.9692879  31.1676445  66.6420746  31.4140358  29.7601910
  43.6522827  54.9242172  12.0506659  43.2256737  54.9220009  12.9075394
  44.5854759  55.0046272  12.2479277  79.4897842  29.6282291  38.7661171
  79.9197769  29.9047546  37.9568787  79.8698807  28.7710552  38.9584846
  83.6230545  52.6237450  32.2797127  82.7282410  52.7569046  31.9669609
  84.1352539  52.4765129  31.4846020  30.6417999  36.2482567   6.6429291
  31.1871471  36.7562828   7.2435431  31.1016483  36.2943573   5.8046894
  27.0377617  60.8547935  35.7460861  27.7170086  61.0559540  36.3898201
  26.3371506  60.4483986  36.2562027  42.6334915  42.2894135   1.4877421
  42.4411583  43.0522995   2.0329471  43.1485901  41.7143517   2.0536125
  15.6565132   7.8311934  -0.2071742  15.2977715   7.0731821   0.2542959
  15.3149576   8.5865889   0.2713118  10.0538616  43.0205727  27.9707794
   9.4421701  43.0253410  27.2345428  10.8121176  43.5123024  27.6553745
  63.5904083  32.8176651  29.6329327  64.3066025  32.2616348  29.9397335
  64.0019913  33.6641922  29.4590702  38.7381248  52.5923615  12.0612307
  39.0339203  51.8634186  11.5159101  37.9735985  52.2500954  12.5244656
  47.3151360   2.1938171  70.9974899  47.7567177   2.3335764  70.1598129
  48.0243225   2.0165954  71.6154480  14.9820938  53.1973114  34.3178406
  15.6785889  53.8275604  34.5019913  15.2276402  52.4169769  34.8148499
  47.9195786  45.5976334  65.3808899  47.8069382  45.1494789  64.5426178
  47.8907623  46.5286713  65.1605072  82.4667664  23.6206684  51.5508614
  83.1289215  24.1490250  51.1051865  81.6439590  23.8564663  51.1223488
  67.4587708   4.8462744  64.2769775  67.0371704   5.5313611  64.7957611
  67.4881821   5.2022309  63.3889084  61.7055511  41.9180565  15.9751968
  60.9379921  42.2753677  16.4217529  62.1637459  41.4172401  16.6500854
  47.9203033  46.9869728   9.7140064  47.2891922  46.2853279   9.8740702
  47.4011803  47.7901077   9.7554235  42.3624573  33.1000938  78.9363785
  41.8456192  32.3044472  78.8096771  43.1938019  32.7909012  79.2962418
  74.6997070  41.0400047  76.6730042  75.4666214  41.4964561  76.3269958
  73.9570312  41.5787201  76.4001465  68.5096741  42.4051094  40.6134949
  68.7826157  42.5842476  41.5132980  67.5541687  42.3672371  40.6560898
  73.4398956   5.9909625  64.8425217  73.0962982   6.6917467  65.3966599
  72.8501282   5.9706025  64.0888672  30.6776199  32.6267624  83.2894821
  30.0349941  32.3845863  82.6226959  31.5176716  32.3481598  82.9248962
  51.0175133  17.9062328  82.0617294  51.5508423  17.6076145  82.7983551
  51.3434067  17.4076614  81.3124313  36.4593430  20.3476582  10.1930399
  36.6214523  21.2416744   9.8918972  36.8865509  19.7936859   9.5397120
   0.4185546  20.1238728  13.6428766   0.9114640  20.1297703  12.8223658
   0.9753750  20.5983124  14.2602005  32.6090736  59.4581528  18.1566257
  32.1808624  60.0349426  18.7892227  32.1433640  59.6156883  17.3353291
  67.3958817   9.4323626  78.3377533  66.8483505   8.9414902  77.7249832
  66.8656540  10.1926489  78.5766220  20.1999111  23.8932629  71.7069855
  19.3352299  24.1788425  71.4120255  20.0296345  23.4099445  72.5154648
  81.8504944  53.8277283  63.8613777  81.1256866  53.9824028  63.2556038
  82.6337967  53.8668709  63.3126106  63.4711761  33.4721756  12.3344975
  63.5159302  32.6916389  12.8867569  62.6359558  33.3920593  11.8738203
  43.1312714  59.3051147  67.6841888  42.5143547  59.1548843  66.9678879
  42.5885773  59.3002892  68.4726639  23.9219627  52.9926910  88.4958038
  24.5660629  53.4637222  87.9671326  24.3653469  52.8352776  89.3293915
  83.9654922  58.0452156  32.1994934  83.2612457  58.6891365  32.2745209
  83.6116409  57.2546883  32.6070290  83.7021103  65.4276276  52.3439369
  83.3967438  65.3061981  51.4449196  82.9011993  65.4535446  52.8674927
  73.7489471  11.4171267  16.0989342  73.9453201  10.5951767  15.6494131
  74.0605850  12.0971336  15.5016851  54.9803581   7.5682964  75.4135132
  54.3838425   6.9714890  74.9616089  54.5355072   8.4154959  75.3891907
  77.5294037  20.5306835  46.9468040  78.4116364  20.1594276  46.9553413
  77.5665665  21.2213020  46.2850647  67.8345871  39.8373833  83.8911057
  68.7626114  39.9583893  84.0920258  67.8257370  39.4943008  82.9975433
   0.9906334  36.5591087  10.2830410   1.3161300  36.1674385   9.4725609
   1.2944773  35.9692764  10.9729767  58.9002991   3.5180004  88.0332794
  58.0566673   3.5678813  88.4827576  59.4035339   4.2517219  88.3863220
  79.2247009  15.4368286  35.0968056  79.0300980  16.0887909  34.4235268
  80.1024704  15.6640301  35.4036179  86.1661072  55.0620766  11.3789291
  85.4175873  54.5532341  11.6904106  86.8384323  54.9331474  12.0479479
  72.0582428  31.8327637  69.1975708  72.5328903  32.5978279  68.8725891
  72.7440643  31.2104836  69.4397507   2.4351742  59.2312889  82.3997116
   3.0028965  58.4952087  82.1714325   3.0106604  59.8450584  82.8561478
  13.3137941  48.3940125  76.5011826  13.3525496  47.5034714  76.8499908
  12.5886106  48.3752937  75.8766937  65.4538803  28.8522263  33.5059319
  65.0918274  28.7937050  32.6217804  66.0978012  28.1452656  33.5483437
  61.3012657  12.4562578  24.0834446  61.5770493  13.0677366  23.4006062
  60.8477974  11.7581778  23.6109180  46.7089996  47.7753944   7.1702724
  45.9063835  48.2960358   7.2014542  46.5205612  47.0118752   7.7159462
  80.1840210  22.7136650  31.2949276  79.2340088  22.7564869  31.1859474
  80.4210510  23.5634670  31.6662560  24.4693832   9.0444241  10.5738840
  25.3334980   8.7764664  10.2612600  24.0025845   8.2219763  10.7219057
  42.9326591  35.6627769  77.8632507  42.7194672  34.9091530  78.4135513
  43.0612411  36.3820953  78.4815445  67.0044250   2.8329256  73.9725113
  66.2420578   2.4034064  74.3605118  66.9062805   3.7550843  74.2096252
  58.1583939  30.9837780   7.9249601  58.4489555  30.1743431   8.3452253
  58.9197884  31.5623245   7.9673233  63.2318916  42.8184738  67.8303757
  62.5736656  42.4429359  67.2456131  62.9078445  43.6985321  68.0220032
  32.6294250  38.2825966  73.3438568  31.7711086  38.7029114  73.3973236
  32.6050301  37.7918243  72.5224075  10.2399826  29.3255196   4.0810165
   9.4840517  29.4194050   3.5013738  10.1153355  30.0002880   4.7483869
  22.7418385  70.0748291  33.2750168  22.8366146  69.4401169  33.9852180
  21.8944836  70.4898529  33.4361916  84.1706390  12.6959887  76.3750916
  83.4899139  13.2223272  75.9557953  84.1089020  12.9202414  77.3036041
  63.8513412  63.9066734  70.5321274  64.4223862  63.7890434  69.7729797
  63.1675682  64.5031586  70.2273483  20.4174614  47.3714676  47.2127304
  20.6990776  46.4897652  47.4567032  20.9468708  47.9519005  47.7595901
  36.3060532  21.9162483  63.9660645  36.5871429  21.0889530  64.3569641
  35.9352608  21.6673470  63.1194267  62.8899155  62.9429169   4.8489218
  62.8219414  62.6323128   3.9460719  62.2115593  62.4593124   5.3202953
  40.2288361  52.3840446  67.0064621  39.3384361  52.5625076  66.7038574
  40.7803535  52.5575142  66.2435913  41.6785889  69.9959641  23.0164013
  40.9766579  70.2045288  22.3999386  41.2566299  70.0154572  23.8753548
  14.2402945  16.1877136  19.6694565  14.5138102  15.6617794  20.4209976
  14.7592173  15.8502102  18.9393597   8.1550884   0.8336083  56.1039848
   7.9133110   1.3632976  55.3442421   8.3848600   1.4728960  56.7783356
  70.3185806  60.6115685  41.9639282  70.2229919  60.1138000  41.1519432
  71.1681442  61.0446587  41.8807678  72.7523804  18.0638943  40.1891708
  72.7042313  17.2703533  40.7222786  72.1140671  18.6573715  40.5848732
  62.0371933  16.4462242   3.9439821  62.6923943  16.4429932   3.2461789
  62.2351761  17.2311516   4.4547911  60.7008705  11.6295481  71.9528427
  61.2104607  11.5076170  71.1517944  60.2677307  12.4749441  71.8348160
   5.2243247  11.0176382  73.8628693   5.8737211  11.5296040  74.3449554
   4.5858579  11.6638155  73.5611267  64.8853378  56.2057419  44.0831718
  64.9715881  56.9078789  44.7279930  64.0752945  55.7567177  44.3249168
   1.2046219  35.6518898  69.3113251   2.1419747  35.7023277  69.1240845
   1.0279434  34.7152252  69.3989334   6.5254517  63.9015007  10.8693371
   6.2745876  64.3191681  10.0454130   6.4437642  64.5950089  11.5240202
  47.5415115  51.3843155  50.6985054  47.9627304  51.5437775  51.5431213
  48.2386322  51.5124702  50.0552101  54.7394257  37.2397995  60.0779152
  55.6548958  37.1513672  60.3431053  54.7682076  37.2618752  59.1214027
  54.4611855  56.7872200  72.6942368  53.9663010  57.5357666  73.0274048
  54.6366234  56.2523537  73.4684296  40.7151527  57.1064339  29.0508823
  40.9942856  57.5455055  28.2474308  39.9882736  57.6385574  29.3744926
  68.2222061  67.8781815  50.0342827  68.0208817  68.7038193  50.4747658
  68.3678894  67.2558746  50.7468414   2.1313322  18.2005749  83.8366928
   1.8794100  17.8901691  82.9669724   1.4720790  17.8300552  84.4234924
   1.3385930  28.7609043  11.5598192   1.9973702  29.3915119  11.8506460
   1.5706117  28.5745335  10.6500578  73.9331665  62.3855896  58.8925629
  73.3159256  63.0252953  58.5375748  73.9100342  62.5298347  59.8385506
  65.0881882  13.1161909  69.3579941  65.1709290  13.7302074  68.6283569
  65.5802155  12.3442173  69.0783539  44.9689140  61.9134445  52.8751373
  45.8350372  61.6985741  53.2213974  44.4029999  61.9424400  53.6465836
  72.8937225  27.7470837  58.1988029  72.5512390  27.8719330  57.3137321
  73.0115128  26.8005276  58.2787285  25.4644489  32.3322258  69.4109039
  25.7561817  31.7663918  70.1257172  25.7745247  31.8952522  68.6177216
  44.0548935  50.4042130  76.7216721  44.1571426  49.6764641  76.1083527
  43.3093071  50.8998604  76.3830566   6.8290906  60.2901535  51.8354149
   6.4945455  59.9570465  52.6680908   6.0583019  60.6447296  51.3922501
  56.4550362  46.4730492  59.2086754  56.8817406  47.2695847  58.8929520
  57.0793495  46.0966568  59.8289948  64.2314072  61.4164886  71.5134583
  63.6623802  60.8127098  71.0360794  64.1235733  62.2540855  71.0628586
  56.2019882  56.6885452  13.5890150  55.6754112  56.3167229  14.2966185
  55.6999512  57.4465866  13.2897434  59.9957848  33.1211662  46.1711922
  59.5643082  33.7355461  45.5773926  60.8325310  32.9273071  45.7486992
   9.8917942  67.2771912  32.3845406   8.9496727  67.1228180  32.4538727
  10.1935015  66.6332550  31.7438011  20.0948544   4.5136905  49.0683060
  19.7849636   3.6080778  49.0763893  20.8689785   4.4969273  48.5055618
  23.3045406   7.2251558  63.7937889  22.7032948   6.9020190  63.1227303
  22.8965054   8.0298290  64.1135406  25.4774704  54.2426949  86.2674789
  26.3705292  54.5135078  86.4804077  24.9998589  55.0638123  86.1496277
   6.0269141  69.3911819  38.3752708   5.8454418  68.8663559  37.5956192
   5.3131227  70.0281677  38.4066811  40.4430084  43.5888939  77.1962967
  40.1755714  44.4912491  77.3708267  40.4856186  43.5320740  76.2417374
  14.9629574  52.0390282  75.0064697  14.3790236  52.5120735  75.5993271
  14.9382858  52.5431938  74.1931839  46.5276337  10.6466627  69.4917755
  46.3987694  10.9394798  68.5896149  45.7213936  10.8976908  69.9425430
  27.4755993  19.4191055  80.1083069  28.1589031  20.0024738  80.4384766
  26.6689205  19.7451706  80.5072861  56.9040756   0.6674838  26.3160591
  57.1259842  -0.2322506  26.0763378  56.8202362   1.1245738  25.4792366
  60.6420746   6.8964787   5.0411186  61.5244484   7.0541725   4.7052860
  60.1209793   6.7003117   4.2625256   9.1245155  69.4240036  34.2244492
   9.8611927  69.6523590  34.7913628   9.4363890  68.6750641  33.7164612
  71.3753662  51.8595314   0.8703419  70.7897491  51.4793434   1.5251226
  71.5085068  52.7611809   1.1628109  31.5507069  46.5499916  58.8577538
  31.6646175  47.1491623  58.1200218  31.1919403  45.7535782  58.4662895
  35.1328773  31.1908779  63.4874535  34.5909538  30.9939613  64.2515030
  34.6745453  31.9063549  63.0467072  41.0774803  29.9066658  58.3913040
  40.2550316  29.8032532  57.9126434  40.8718910  29.6280994  59.2836990
  63.5756035  48.8598976  84.9785461  63.4706879  48.1370583  84.3599014
  63.9476509  48.4532661  85.7611465   6.0507097  15.2904377  19.5914555
   6.4888945  14.9069128  20.3511486   5.3564587  15.8337297  19.9643898
  66.8192978  39.7862053  53.7957878  67.6371078  40.2567520  53.6345482
  66.8563461  39.5524025  54.7232552  48.2677879  29.6014900  75.8919525
  47.5016518  30.1097260  75.6255722  48.8045120  29.5451221  75.1013947
  10.4583778   6.6788511  27.5498867  10.2772055   7.6166587  27.4872360
  11.4120693   6.6226029  27.6093960  26.0933189   2.3620992  75.8884201
  25.8230305   2.1479650  74.9954910  26.7085114   1.6681106  76.1253815
  84.4505234  20.1857662  62.9101448  83.5898895  19.8070869  63.0894241
  84.3000259  21.1310501  62.9055634  46.4278030  66.7751083   4.8560314
  45.8660965  67.2154846   4.2182374  47.2496872  67.2650604   4.8299541
  14.3500347  14.2436590  23.3029251  13.8251047  13.5132093  22.9756279
  14.8894854  13.8600416  23.9943466  15.4591827  49.3837662  32.3854294
  15.2126331  50.2403564  32.0365829  15.1214123  48.7579689  31.7447090
   8.5654268  45.7424355  62.4188652   9.2559910  45.1660728  62.0915108
   8.0651407  45.9835854  61.6392555  80.9855804  31.8208771  42.7745171
  80.1851196  32.1499176  42.3655930  80.7287979  30.9860077  43.1660347
  24.4982300  69.6735306  79.2983246  23.9944439  69.2063446  79.9647827
  24.9270916  70.3834457  79.7761536  55.2599449  20.4136066  67.7494125
  54.3335609  20.3154449  67.5293961  55.7001419  19.7314892  67.2422867
  16.9888992  20.9100628   6.3909364  16.4906769  20.7285423   5.5940309
  17.0157661  20.0720463   6.8527122  40.2928009  67.4774399  85.4068604
  40.9838142  67.8922653  84.8904724  39.5782127  67.3408051  84.7848206
  49.7851791  66.4843216  72.9073563  50.1796646  66.1163940  72.1166306
  48.8474884  66.3213501  72.8053207  54.3014259  58.8021507  53.3011513
  53.9989090  59.1584740  54.1364670  53.4978981  58.6042442  52.8201103
  46.9604797  47.9114113  58.6627235  46.3272018  47.2106476  58.8180428
  46.6282158  48.6514549  59.1708221   1.7429488   2.0618899  38.2159271
   1.5560017   1.9462060  37.2843170   1.2597458   1.3566883  38.6465530
  64.9125519  12.5649681  75.7928925  64.1746521  12.1188698  76.2084961
  64.6465149  12.6676712  74.8791580   7.1370988  42.1434250  51.2218475
   6.6562948  42.6650620  51.8644638   6.7641826  41.2652321  51.2989349
  12.6102285  22.3974190   8.4420538  11.6657867  22.2999992   8.3205233
  12.7758398  23.3286476   8.2950182  66.9693909   6.1146750  73.8797302
  66.8161011   5.6289697  74.6901779  66.0929871   6.3064084  73.5459976
   3.0930963  40.4294853  18.9318523   2.4732463  40.6455002  18.2351780
   2.7150960  40.8218040  19.7188931  39.4877777  37.8477516   3.6516623
  39.1755829  38.7245789   3.8751414  39.4313278  37.3571892   4.4716592
   1.0907099   7.6142592  34.7869835   0.8264055   7.7688746  35.6938858
   1.8882035   7.0894160  34.8560867  70.2398071   6.2116990   9.2144718
  70.8447723   5.4903393   9.0415831  69.7334366   5.9228888   9.9736862
  16.9355640  66.4029465  46.1994781  16.2455750  65.8573914  46.5769844
  17.4400692  66.7071457  46.9539108  57.0967751  49.3460388  21.3019199
  57.8006935  48.8137817  21.6726398  57.5108147  50.1858368  21.1030598
  70.4852066  66.8143158  87.8436279  70.5121384  66.1085510  88.4896927
  70.4949646  66.3656006  86.9981842  22.2610188  57.3269577  13.0428858
  23.0691204  56.9312363  12.7163744  21.9661026  56.7338867  13.7339153
  14.8440685  22.9951210  17.1990814  15.0020819  22.6930923  16.3046303
  14.8388624  23.9499569  17.1320572  85.1609726  39.6334610  48.2232094
  85.3619843  39.1023865  48.9937859  85.8824310  39.4606056  47.6183586
  45.0608559  22.5072136  20.6237392  44.8987122  21.8482876  19.9486389
  44.9938049  22.0264225  21.4487095  63.4128647  45.9783134   8.2721586
  63.5536728  45.6579857   9.1631117  63.7811432  45.2957115   7.7112174
  86.3625336  20.5747929  48.2169724  85.8270416  20.7668400  48.9867783
  87.2646408  20.6431770  48.5296211  61.9978104  21.8167782  14.2511816
  62.0228157  20.9894257  13.7704573  61.1491623  21.8110027  14.6938915
  21.4358387  65.9737244  66.6124115  21.1019840  65.0789185  66.5483475
  22.2373276  65.8938675  67.1295929  36.7840614  48.4542046  38.8784180
  37.0836220  49.0441513  39.5701256  36.6244507  49.0265427  38.1279602
  71.8009567  49.7873497  55.7686081  71.7651215  48.8539810  55.5594101
  70.8857117  50.0417404  55.8862877  69.5679092  69.8253021  42.0848198
  69.8455048  69.0336990  42.5458412  69.9272308  69.7273788  41.2030411
  31.9266739  67.5247955  56.4119720  32.5732613  67.5233688  57.1177750
  31.3668785  68.2777481  56.6015091  21.8760815  68.5509338  61.4601250
  21.4998989  67.9522781  62.1053619  22.5146084  69.0651550  61.9541855
  23.1158257  28.1737499  84.7875671  23.1012726  27.4119377  84.2082062
  22.2825069  28.1337280  85.2568359  85.0857697  48.0105553  71.3536148
  84.7745132  47.2586060  70.8497086  85.2863922  48.6744766  70.6939240
  36.5264244  56.4986877  77.2503891  36.7679634  56.8855247  78.0919647
  35.6176567  56.2213135  77.3662949  50.6146355  61.3216782   3.9804001
  50.9665985  62.1811714   3.7488351  51.3194313  60.7094116   3.7691531
  71.5104904  15.3133631  18.5968208  72.2330704  15.1114721  19.1912518
  70.9739075  15.9436703  19.0774727  53.0735931   8.3079557  12.7585087
  52.2406654   8.7774534  12.8036013  53.7076492   8.9065914  13.1532793
  24.6551342  15.3316717  10.1620770  23.7649937  15.6836405  10.1607676
  24.9130516  15.3291569   9.2402830  29.5426216   2.9820065  56.2736282
  28.6245956   2.7127638  56.2424850  29.8738842   2.6094928  57.0907745
  53.3167725  67.9816360  52.5451355  54.0793877  67.4201660  52.4058495
  53.5532188  68.8130951  52.1340294  39.1106033  30.9475842  73.6620026
  39.5413742  30.1449795  73.9561005  39.6039963  31.2137432  72.8861465
  80.2286530  14.2094679  50.8609505  80.1121445  14.8232212  50.1357193
  80.8946457  14.6168118  51.4148064  86.2938995  58.1774292  67.1934357
  85.9690857  58.3354721  68.0798569  85.8650894  58.8454590  66.6585617
  15.6371756  56.6615601  58.0045471  16.5627804  56.5412102  57.7924080
  15.6373653  56.9718018  58.9100761  69.1904831  48.0290070  50.0516930
  69.4928741  48.7324142  50.6261635  69.8099365  48.0327492  49.3219681
  64.8585052   9.3081245  20.3599911  65.5687256   9.8495960  20.7044201
  65.1471786   9.0657663  19.4801254  46.5958328  31.1297436  74.2426987
  46.6391907  32.0781212  74.3648987  45.7760353  30.8712234  74.6638107
  70.4952316  66.7988434  10.9965029  71.1403732  66.4008560  10.4120169
  71.0182800  67.2342224  11.6696253  41.2088013  49.4757652  63.9878693
  42.0165253  49.3353500  63.4938087  40.8689079  48.5951195  64.1465149
  61.6791496  54.9375954  53.4691429  60.7684860  55.0891418  53.2162552
  62.1893845  55.2316475  52.7145386   7.7314386  13.1108561  24.8639603
   7.5008287  13.3736773  25.7550144   7.0109081  12.5447741  24.5871601
  18.9332809  70.4803696  31.7542305  19.2578449  71.2354813  31.2636185
  18.0635586  70.7451706  32.0537224  44.4607010  47.1827049  16.1333542
  44.0364799  46.5532722  16.7165184  44.0981865  48.0302238  16.3912773
  53.4323044  19.4163170  61.0033493  53.8829575  19.6533165  61.8138885
  52.9123535  18.6466503  61.2346382  32.7793350  24.1500435  81.5886765
  33.3197136  23.6895370  82.2306747  32.5098991  23.4703979  80.9708481
  64.3827438   8.1636953  85.9741898  63.8824692   8.5988216  85.2838135
  65.2923431   8.4051151  85.7992935  55.9866943  34.8615837  54.3684921
  55.3120308  35.3856087  53.9366837  56.7030754  34.8241806  53.7347527
  84.9767227  11.5695772  70.5468369  84.3881683  12.3077545  70.3889618
  84.3931351  10.8271456  70.7032242  27.5429420  63.3612289  80.6817932
  27.9344959  63.7052460  81.4846420  26.7663651  63.9032784  80.5427094
  11.5343275  56.8257751  62.0320053  12.2714853  57.2654190  62.4557343
  10.7873125  57.4024315  62.1922112  35.6961670  60.6063080   1.5553724
  35.5858955  60.3796005   0.6319688  36.6426010  60.6929131   1.6693643
   6.0005546  19.3569584  19.1475925   6.0775127  18.4247036  19.3505898
   6.4825287  19.4641037  18.3275604  83.7900391  67.7864456  14.4919882
  83.8188324  68.1854553  15.3615808  84.3049469  66.9842834  14.5793715
  11.9593277  64.9673233  43.4259605  11.4714088  64.5695724  44.1470413
  12.8787193  64.8350983  43.6571884  62.2334824  33.0132141   0.1745695
  62.7926102  32.3624001  -0.2497506  61.4599915  32.5212822   0.4501564
  56.3205643  50.5617294  48.8717995  56.1954002  51.2535057  49.5214233
  57.2491684  50.3384399  48.9355774  68.8162994   4.6563406  80.0715408
  69.7372589   4.4766202  79.8824310  68.7055511   5.5839567  79.8629837
   1.0822862  37.3543205  42.4553261   0.8669333  38.2689476  42.2728004
   1.6069286  37.0772896  41.7041702  73.9057770   0.6032284  57.0345230
  73.4257050   0.3788288  57.8316498  74.1555099   1.5193601  57.1552200
  67.4026260  61.0076942  51.7136040  66.8027878  61.7527809  51.7492447
  67.2748413  60.5571938  52.5484428  19.8247108  33.5141029  28.3422184
  19.9339142  34.3271217  27.8489571  18.8922062  33.4874306  28.5565948
  14.9557495   4.2350378  45.1631012  15.7386980   4.2368498  45.7137566
  15.1152868   3.5421965  44.5222015  49.2935257  67.3099823  48.5408096
  49.8105354  67.7814713  47.8876419  48.4048080  67.3057404  48.1852837
  47.9730072  51.0950432  79.5448761  47.5166397  50.6072731  78.8592834
  48.1343040  51.9561577  79.1592636  86.1253204   5.6922126  48.6690979
  85.2664108   5.2936068  48.5289993  85.9362411   6.6150007  48.8392220
  83.0129700   3.0131412  31.5355930  83.0481186   2.3749554  32.2481346
  82.1936417   2.8189838  31.0803585  18.3409977  39.4997635  10.8580704
  18.4656944  39.1771240   9.9655533  17.4522839  39.8552933  10.8622513
  15.3926611  70.2722092  86.6141205  15.0594006  71.1660843  86.6925964
  15.3313942  69.9151077  87.5000992   2.2066674  54.8814278  20.8769073
   1.9454210  53.9881859  21.1007385   2.6114759  55.2198257  21.6755638
  59.5236626  63.0367813   1.1205244  60.4120522  63.3761902   1.2291362
  58.9716377  63.6515694   1.6037834  41.2432632  27.2569752  65.0408859
  40.5639458  27.7732944  64.6070938  40.8389778  26.9685230  65.8591614
  34.1834755  61.5602837  34.2367210  34.9433250  61.1322403  33.8422165
  34.1982422  61.2789650  35.1515312  18.3939552  50.3408165  20.8215313
  18.2024803  50.3582458  21.7592239  18.3283005  51.2553368  20.5466290
  74.0586243  25.6785984  15.3316088  73.3213348  25.6006489  14.7261677
  74.7012634  25.0467930  15.0090227  62.6799431  32.0836182  81.7381058
  63.2781334  31.9491425  81.0030365  62.0033760  32.6660995  81.3928452
  46.3202820  26.6443043   1.3917967  47.0217972  27.0071507   0.8510065
  46.7643661  26.3241386   2.1769812  68.3882675  55.5804138  33.1696091
  68.8011093  56.4084358  32.9243050  68.9946442  54.9087448  32.8575134
  85.3511734  49.2997475   9.7543316  85.4393387  50.2464256   9.8650351
  84.4064941  49.1454315   9.7553415  67.8672104   7.3477697  56.9164467
  68.5653610   7.6547852  56.3380318  68.0750885   6.4269590  57.0749588
   1.7747523  69.3188171  53.5027542   1.9278919  69.1954803  52.5659676
   1.2093180  70.0894928  53.5535812  45.7080956  62.9689751  63.0465546
  45.7927246  62.0298615  63.2112732  46.4443130  63.1786461  62.4718742
  31.5249290  26.0710449  -0.1232988  32.4642258  26.1449356   0.0455040
  31.1472244  25.8344803   0.7238188  62.6781654   2.9443772  39.1238708
  63.2613182   3.7013185  39.1804810  61.9467545   3.1617625  39.7018127
  84.6739120  29.8146591  68.2373199  84.5738831  30.0028172  67.3041382
  84.5509186  30.6611786  68.6668625  76.1391220  59.1796989  61.6378212
  75.5166626  59.2071609  60.9111671  76.5825195  60.0273933  61.6055374
  30.8764648  70.0906219  53.0127602  30.1458244  70.2664719  53.6056099
  31.0016575  69.1428909  53.0614586  20.6685448   6.2143760  22.2723045
  21.2787743   5.5715175  21.9109402  20.8034592   6.1670437  23.2187672
   3.4101472  24.9085102  78.0705261   4.1807675  25.3798122  77.7539062
   2.8777161  24.7667999  77.2877960   2.5817783  20.4106636   9.1601114
   2.7377779  20.6308994   8.2417479   2.1210976  19.5721397   9.1304083
  59.6936798  41.3015099  85.4225769  60.4995193  41.1834068  84.9196777
  59.9271927  41.9310188  86.1047974  53.6334457  13.3331947  77.8869324
  54.3675919  13.4394054  77.2819748  53.6233711  14.1437502  78.3959808
  10.1915140  47.1231346  88.4673233  10.3638229  46.3491936  87.9310760
   9.9967680  46.7735252  89.3368530  26.1229591  59.7083511   1.9849383
  26.9285259  59.5075874   2.4613702  26.3690014  59.6471405   1.0619274
   8.1567574  68.8449402  82.6215057   8.3779144  69.6926956  83.0070267
   8.5823860  68.8533401  81.7641830   4.3386340   2.2873192  88.3241653
   3.4594824   2.2333982  87.9494400   4.4934750   1.4196576  88.6975555
  22.9181309  68.0830078   8.0232277  23.2717133  67.2366791   7.7494855
  23.3544693  68.2671432   8.8550539  -0.2838393  23.8796101  62.1948166
   0.4425308  23.3896523  62.5802498  -0.1566415  24.7773762  62.5015221
   5.8203869  18.0003757  56.1410370   6.6950846  18.3163776  56.3674889
   5.9328709  17.0592422  56.0074539  69.1654816  62.2598381  29.3751202
  68.5069427  62.9244041  29.1728497  69.7148438  62.2209587  28.5922279
  21.1493111   3.9372320  27.0173950  21.7082462   4.7115326  26.9519577
  21.4359951   3.5020540  27.8203049  44.7891121  43.6678391  54.5853691
  44.1148605  43.5117798  55.2466316  45.6034584  43.7324791  55.0842667
  75.1669540  41.7582436  24.2119522  76.0314636  41.6271439  23.8225060
  74.6086426  42.0103035  23.4764328  14.1665430  14.1612463  10.9941578
  13.2289553  14.0121031  10.8720198  14.4773998  13.3757019  11.4441786
  76.4708862  19.0445652  70.6460571  75.8118744  19.6893864  70.3888779
  76.8528290  19.3995209  71.4487762  59.4118996  27.2743740  60.0908470
  60.1670761  27.1047192  60.6540146  59.7331696  27.1117363  59.2039604
   2.2482004  54.4451904  33.2496910   1.6383728  53.7160912  33.3626404
   3.0389214  54.0426369  32.8906059  63.5357018  18.7550869  20.0289421
  64.3298721  18.7937260  19.4960022  62.9770699  19.4480762  19.6769085
  74.7489090  62.5057449  83.9835968  75.0421143  61.7520943  83.4714661
  75.5105438  62.7484741  84.5101166  47.9552765  37.2732124   6.9322519
  47.7365990  37.8594742   7.6566191  48.7580910  37.6396637   6.5615258
  47.6841164  63.6403275  16.7682209  46.8065720  63.2916183  16.9249134
  48.1112175  63.6076050  17.6242256  79.8412323   1.1299454  57.8277931
  80.6379547   1.6565579  57.8921700  79.1283112   1.7615731  57.9227867
   8.0361099  15.8199072  55.7512321   7.3773165  15.2373209  56.1291428
   8.7113380  15.8877678  56.4262848  62.7417336  36.1256828  73.2924423
  63.1053772  36.5097427  74.0902481  63.5063515  35.8252487  72.8011932
  31.9159164  22.4259586   5.4387617  31.4791985  22.8577805   6.1729550
  31.4912109  22.7878590   4.6610184  58.1433563   4.4121404   3.8221760
  57.2767944   4.8166504   3.8630583  58.4528275   4.4168034   4.7279558
  17.8192959  54.7787933  69.4699249  16.9265728  54.6224594  69.1619720
  17.7304420  54.8874893  70.4167786  25.4114647   2.3816402   2.8663230
  25.8807468   2.2820671   3.6946297  25.8839245   3.0747240   2.4051840
  85.9884644  27.3063984   3.5958045  86.8079987  26.9579468   3.2448454
  85.5796738  26.5605698   4.0349650  48.7949371   0.7724183  59.5458336
  49.5493088   0.5872143  58.9864998  48.3062057  -0.0502835  59.5689735
  15.3647394   5.4264750  83.9235535  15.0923347   6.2813263  84.2571030
  14.9858627   5.3800602  83.0457535  40.6955032  68.6792755  88.0546417
  40.5507622  68.2341614  87.2196808  41.1741943  69.4748917  87.8220978
   0.8550233  25.0170078  25.7346859   0.1422450  24.7439384  26.3122787
   1.4947355  24.3072510  25.7916470  84.6026535  37.5944252  67.4753113
  84.6305466  37.6348457  68.4312515  85.4534454  37.9328918  67.1963501
  48.6865463  54.4343300  34.0582733  48.4742546  55.3647766  33.9845734
  48.9648170  54.3234367  34.9673958  84.3722839  41.5880585  69.0235214
  83.6449432  41.1721954  69.4864044  84.7469406  42.1948090  69.6620483
  59.5217781  30.7853756  25.9034290  59.5884247  31.0587177  26.8183479
  59.5290222  31.6041737  25.4076977  19.6735115  57.1549873  68.5281982
  19.2420845  56.3415489  68.7897644  19.2829742  57.3717270  67.6815948
  26.1427555   4.6939759   1.3451734  25.2161617   4.9330416   1.3675979
  26.3856602   4.7630682   0.4218882  58.1372528  40.2224960  35.1305313
  57.6807404  39.3865776  35.2257423  57.6530952  40.8254280  35.6947060
  43.5602379  41.4657860  73.0749512  42.8497581  40.8410454  73.2203751
  43.7411690  41.8288116  73.9419632  64.8812027   1.4885925  75.0442352
  64.5396500   0.6613771  74.7046967  64.1393967   2.0916438  74.9964523
   7.8991313  38.2917709  11.9988384   8.2274132  38.1935501  12.8926029
   8.3903294  37.6460152  11.4909449  77.8674240  55.4686012  24.7062054
  77.2871170  55.0161133  25.3183556  77.2781677  55.9765587  24.1485462
  25.5395832   9.2017870  14.9156084  25.8072395   8.6196299  14.2044926
  25.9557037   8.8343782  15.6954069  53.9119873  48.5312881   5.0554433
  54.6226463  48.9962769   4.6138754  54.2458076  48.3652534   5.9370494
  54.5600548  56.3783646  40.0189056  55.4464798  56.5556946  39.7042046
  54.5083199  56.8346214  40.8587799  73.3548889   9.3108368  25.7633209
  73.9794159   8.8475704  26.3215179  72.5140381   8.8911028  25.9450245
  52.1569099  39.9971886   3.9788339  53.0897942  39.8242416   3.8521557
  52.1116219  40.9322166   4.1785798  82.3983231  62.0500221  23.8479328
  81.5746231  61.6557846  23.5610123  82.3704300  62.9419212  23.5015640
  61.1589241  42.5571518  66.0214920  60.3190041  42.4916496  66.4758835
  60.9530182  43.0048256  65.2008667  77.0137253   2.4448605   6.6918707
  77.5530167   1.7481133   7.0659561  76.4607620   2.7353351   7.4171934
  76.7492981  37.0535507  23.5412102  77.5031662  37.4852066  23.9431896
  76.0049286  37.6107597  23.7685127  42.6700592  14.4872265  63.6747742
  43.4430771  14.0781002  63.2858047  42.9516830  14.7452545  64.5524673
  54.8058434  19.8941269  41.9210701  55.1650391  20.6290112  42.4182167
  53.9505692  20.2026443  41.6218109  15.6269970   2.3237140  25.4069138
  16.2326355   3.0595586  25.3176651  15.1970787   2.4682353  26.2498360
  11.5306606  10.9170361  67.9545441  10.6048813  10.6738434  67.9498901
  11.6273394  11.4769831  68.7248306  35.6639595  40.9440346  63.7790070
  34.7978058  41.1811600  64.1103287  35.6250191  39.9944649  63.6648483
  68.8531342  36.8244362  16.4319744  68.9207535  37.0134239  15.4960566
  69.7074966  36.4613533  16.6653423  72.5896225  31.9003143   3.6000917
  72.2730408  31.8374023   2.6989536  73.1651764  32.6651497   3.5989101
  43.0540047  40.2656174  50.4181786  42.6668777  41.0789566  50.0943832
  43.5400314  40.5265007  51.2004509  55.5771713  19.7754936   4.6981282
  55.4535065  20.1706696   5.5611310  55.7808723  20.5135727   4.1236911
  85.9224701  38.4615479   9.8319225  85.7014771  38.7454376  10.7189398
  86.4650116  37.6830597   9.9577856  77.1250687  59.6444016  79.0017548
  76.4557495  59.0355301  78.6894684  77.3013611  60.2119865  78.2514191
  32.7683640  54.2647438  48.0852852  32.0024948  54.1305504  47.5270157
  32.4556351  54.8344803  48.7880173  56.4286880  35.9278145  30.3538399
  57.3202667  35.7066002  30.0847931  55.8687248  35.4025307  29.7822227
   4.1384587  61.7919502  12.1830482   3.6075900  62.5756187  12.0406466
   4.6773067  61.7212448  11.3950920  40.9216728  50.9676170  50.7888222
  40.2043991  50.6250992  51.3221397  41.6606674  51.0314598  51.3938370
  37.6931381   8.5035172   9.8913660  38.5325623   8.6733780  10.3188581
  37.8139839   8.8145323   8.9942055   3.2183781  21.3738308  24.0208187
   2.8200493  22.1951160  23.7326260   3.0920916  20.7751312  23.2847176
  33.6802711  44.4596977  12.4707232  34.1257210  43.6434746  12.2436008
  32.8550568  44.1799660  12.8669548  60.6953773  14.5953846  78.3301163
  59.8429985  14.1622286  78.3754349  60.5052071  15.5171452  78.5045395
  36.3840599  49.0054092  75.5439224  35.8565979  48.8543015  74.7595825
  37.1964684  49.3907127  75.2156525  47.2293968  57.8822021  46.2850609
  47.6162148  58.6345558  45.8372154  47.8325005  57.1607971  46.1059761
  16.8804264  43.8620567  15.3435192  16.9008865  44.4082336  16.1293354
  17.3364067  43.0597038  15.5975685  47.6801949  10.0967093  82.6279221
  46.8544922  10.5465508  82.8070526  47.9596939  10.4383144  81.7785568
  47.8893242  30.8176918  16.3087254  48.7342949  30.9008522  15.8667507
  48.0605431  30.2293262  17.0440769  37.4202728  64.8155823  45.0670471
  37.1913757  65.1335602  45.9403915  37.3876038  63.8619728  45.1431770
  51.3154640  36.8231926  32.5547867  51.0645714  36.1161308  33.1492233
  52.0312805  36.4568710  32.0355110  74.3496475  38.8071747  37.5489922
  73.6122665  38.5169106  38.0858688  75.1189346  38.4266510  37.9728241
   9.5903425  69.4329987   3.9331467   9.4201241  70.3676682   3.8163040
   9.9514694  69.3639603   4.8169188  13.4692020  59.8356590  48.0925980
  12.8262463  59.1292381  48.0308876  13.9089422  59.6868439  48.9296837
  86.6726608  66.2697525  79.8211899  86.0396500  66.7236023  79.2648163
  86.2013626  66.1095428  80.6387787  69.0374451   2.3497202  10.2501926
  68.5666275   1.5250655  10.1297340  69.7805862   2.2911615   9.6497364
  19.7192593  15.6535482  59.5285378  19.0424080  15.4377975  60.1700630
  20.4566078  15.0883799  59.7590485  15.0675030  34.8523254  76.7930832
  14.8839054  34.7326813  77.7248611  14.3907328  34.3421516  76.3481750
  49.1080360  10.5757933  68.0317535  48.6845169   9.8972836  67.5059357
  48.7384872  11.3965969  67.7062607  37.1022377  17.2489777  66.3953705
  37.0890007  16.4876003  65.8154068  37.6382637  16.9741306  67.1392593
  57.8506699  44.2419472  88.6084290  57.6712914  44.0252571  87.6934967
  57.2287521  43.7115479  89.1065521  41.2739754  62.6028252  20.3204021
  41.3805656  63.4894943  20.6649113  40.3283691  62.4545479  20.3291302
  58.4746399  11.5108185   0.9791812  59.2612572  11.0162163   0.7493287
  58.7028160  12.4222488   0.7962547  56.6666946  43.6827469  32.5296974
  57.4143333  43.0984612  32.6557007  55.9011650  43.1159096  32.6239929
  83.7077408  43.1515007  63.2478333  84.3837051  42.6403656  62.8028107
  83.7359390  42.8474693  64.1550293  27.4518604  57.9911575  24.3962955
  27.9838047  58.2778358  25.1386452  27.2014561  57.0932236  24.6136589
  80.3697739  70.9740219  65.6279068  80.8217773  70.8036957  66.4542923
  79.7581711  71.6818085  65.8308868  46.5581398  49.4948463  83.7500153
  46.1130333  49.7689552  82.9481506  47.4515533  49.8243217  83.6526260
  48.2968102   3.8348818   5.5074267  47.8249702   3.0773177   5.1614561
  48.3266830   4.4525700   4.7768097  62.0495834  48.0275230  88.6573181
  61.3576202  47.5116653  89.0712128  62.1005554  48.8256187  89.1833267
  84.0447006   6.5666413  82.0496674  83.4683075   5.8445239  82.2997665
  84.5782471   6.2119431  81.3385086  74.3661194  15.3988838  86.1875305
  74.0098343  14.9545975  85.4181747  73.7216721  15.2381229  86.8767929
  39.0932961  32.1326485  87.7526398  38.3944054  31.8781681  87.1501236
  39.8733749  31.6934566  87.4137802   5.6691399  22.7961216  50.7981339
   6.1094284  23.6195107  51.0088692   4.9862041  22.7125549  51.4636040
  53.8714790  52.2786942  10.2878571  53.0972519  52.5106049   9.7749996
  54.3446579  51.6540985   9.7381182  33.6070061  62.6245995  17.3889465
  33.4661331  62.9541702  18.2765102  34.2323341  61.9078560  17.4960365
  84.6750565  24.0722961  83.2863770  84.1723785  24.7838955  82.8899384
  84.0136032  23.4426727  83.5732346  68.6775665  55.9159317  79.9486237
  69.0584488  56.3646469  80.7034836  69.2521133  56.1458092  79.2183609
  57.4727821   8.8742781  87.1678772  58.1547127   9.5078726  86.9448166
  57.1261253   8.5880260  86.3228226   0.2249523  46.1954994  48.2138672
   1.1597008  46.3900833  48.1459351  -0.0957206  46.7934647  48.8890266
   9.2780848  33.5087814   8.5858784   8.7110548  32.8028717   8.8963594
   9.1541300  33.5156746   7.6367631  51.5974388   8.4681301  15.4830999
  52.3792610   7.9332852  15.6206827  50.9146538   7.8388824  15.2505407
  28.5629425  31.1644135   5.5869880  28.7326031  32.0994911   5.7013483
  28.2049389  31.0924034   4.7021828  74.2018433  35.2049828  79.3997955
  74.9355621  35.8126450  79.3068924  74.1823044  34.7247353  78.5720215
  65.5526505   0.4827054  56.2594376  64.6436539   0.2357836  56.4296913
  65.6479263   1.3426925  56.6688004  25.0220528  57.3826790  61.6020660
  25.9695168  57.2504005  61.5696945  24.9061852  58.1481934  62.1649132
   0.1430715   7.0995822   0.3859760   0.8721139   7.2515574   0.9873350
   0.1818831   6.1625333   0.1944966  17.7172432  46.8114014  50.3038712
  18.0142612  47.4191284  49.6266136  18.5216331  46.4180183  50.6421623
  41.8198280  58.2070580  16.0855370  41.8118057  57.2498932  16.0861931
  41.6595306  58.4485512  16.9977970  47.9434547  51.3558083  87.6972961
  47.1475525  51.8651848  87.8499603  48.0755997  51.3960876  86.7501144
   5.2976007  36.2752113  66.1702576   5.8961177  36.7586861  65.6008148
   5.0676694  35.4936981  65.6676559  27.5211544  27.9714603  67.4526978
  27.1084576  27.5912151  66.6772461  27.8812847  27.2207012  67.9248199
  42.3859825   9.5019016  14.9973841  41.8440628   9.3883591  15.7781935
  43.2556572   9.2039127  15.2640305  80.9920044  11.1741152  46.2924881
  81.2789917  11.8849001  45.7192039  81.0570526  11.5375805  47.1756020
  84.5891495  62.1872978  57.2761459  85.3407288  62.5619316  57.7355003
  84.3520203  62.8484344  56.6258354  54.2381325  68.7966995  55.8114281
  54.2791328  69.2315140  56.6631813  54.2876396  67.8630371  56.0165138
  19.5435524  35.9521294  12.6233616  20.2658348  35.8490715  12.0037498
  18.7780704  35.6164894  12.1568708  77.1674194  22.7565079  66.5139160
  77.9879456  23.1958218  66.7374496  76.5181656  23.4594536  66.4900131
  49.8965340   6.5335689  32.9081841  48.9967842   6.8553996  32.9639435
  50.3152466   6.8533487  33.7073402  20.1285648  69.2345505  20.1103954
  19.1958904  69.3731537  19.9456615  20.5615406  69.5522842  19.3180542
  75.4173508  27.4409733   1.7079005  75.4299545  27.8041401   0.8223594
  76.3179092  27.1559258   1.8627181  27.2363186   9.5069332  37.7435608
  28.1507607   9.7289629  37.9188538  26.7342701  10.1842680  38.1967659
  26.1771374  36.4992561  18.6332932  26.8467598  36.6797180  17.9735432
  25.6738567  37.3113403  18.6921043   1.6931200  15.7139635  87.4962311
   2.5683739  15.5363302  87.1518402   1.5441760  16.6401081  87.3057022
   8.9840937  34.1542892   5.7372732   8.4506531  34.7485619   6.2650151
   9.1576471  34.6402397   4.9310699  25.0415115  21.6723785  53.0626068
  25.4067039  21.7975407  53.9385071  24.1836109  21.2761917  53.2151680
  57.2817574  21.7227077  48.3104935  58.0491066  21.9871635  48.8179092
  56.8781281  21.0281906  48.8310356  84.4352341  36.2664032  79.5236206
  84.9993744  36.3787880  80.2887039  83.8820267  35.5164146  79.7420425
  79.9165955  46.8547211  17.9767323  79.1730957  46.5786171  17.4408188
  79.9481277  46.2166328  18.6895294  21.9175262  60.1850204  38.7108994
  21.1208725  60.6483040  38.9696274  22.0970631  60.4946594  37.8231392
  64.4236679   9.5282631  26.2561989  64.8682632  10.2055788  25.7464848
  64.5043640   8.7365408  25.7243195  10.7966003  50.7465401  16.9070530
  11.3696356  50.0618973  16.5619030  10.5794201  51.2837257  16.1451492
   8.6997337  64.6795273  62.3553963   8.3745728  64.7409592  63.2535744
   8.7336483  63.7397614  62.1767044  50.7327271  12.9028673  74.8310165
  50.8906746  13.8437281  74.9089050  49.9400139  12.8363447  74.2986526
  27.7387238   0.4672669  76.9772110  27.2866936   0.5132467  77.8196945
  28.5118904   1.0202419  77.0897446  72.0865173   8.9037075  68.3930130
  71.9790192   9.6122570  69.0275497  73.0330658   8.7718086  68.3393555
  78.6737061  21.3621883  60.7375832  78.1549225  21.7510796  60.0334091
  79.3077393  22.0403786  60.9705925  51.1696434  51.8532829  55.1679039
  51.6924210  51.3448181  54.5479050  51.8079109  52.2007828  55.7908745
  58.6611214  70.6460190  82.8333130  57.7567253  70.9324341  82.7057571
  58.6438751  69.7075500  82.6456757  63.2346420  30.7798424  22.5235348
  63.2473221  31.7002583  22.2610321  63.3945389  30.2972507  21.7125053
  17.1527119  52.9422607  20.2496300  17.7048855  53.4872780  19.6890125
  16.3444443  53.4448891  20.3511219  56.6977577  68.0517654  29.1659451
  56.2929001  67.6187515  29.9174900  57.3725014  68.6131287  29.5478172
  32.7110062  54.1224098  21.5359364  32.6690369  54.1883812  22.4899387
  33.0433311  54.9737701  21.2513695  77.1928711  15.9781351  37.2064362
  77.8152390  15.8377848  36.4928589  76.4884262  15.3528013  37.0363083
   3.8466814  50.0032234  51.9444733   3.3557968  50.7986908  52.1506119
   4.6726346  50.3195572  51.5784645  53.2499886  16.1435223  55.7403946
  53.4410973  15.9243069  54.8284454  53.2056923  17.0996170  55.7526817
  80.3653717  15.3127050  26.3119907  80.9967575  15.8152723  25.7972031
  80.5798569  14.3982401  26.1276493  13.3150015  69.0684280  33.4892769
  14.1730404  68.6471558  33.5396194  12.6903143  68.3573151  33.6318283
  82.8954849  22.1650734   5.6599498  82.2278519  21.5290051   5.9167013
  82.5666962  22.5409813   4.8433547  19.3953190  40.2542686  83.3820648
  20.0779476  40.9173012  83.2789230  19.7848358  39.4530182  83.0320511
  16.7202454   2.4832773  40.3623505  16.6885319   3.2376294  39.7739830
  17.4621983   2.6613381  40.9403076  72.2854385  62.1977692  29.8207226
  72.5210800  61.5057869  29.2027702  71.4600449  61.9038200  30.2061481
  52.4204750  57.9564781  87.6107635  53.0048981  58.7081337  87.5122986
  51.5556870  58.3421936  87.7507629  38.9552765  41.6621971  79.8335037
  39.3025780  41.1306953  79.1171799  39.4755821  41.4068489  80.5952835
  43.9166183  65.2441864  34.4881287  44.8537254  65.0523605  34.5236435
  43.8708458  66.1906891  34.3529205  79.0727997  67.7949905  47.3019600
  80.0090256  67.9932938  47.2824097  78.9068909  67.5107727  48.2008095
   8.2008257  62.0351753  74.2326202   7.7644391  61.5283432  73.5478439
   9.0681210  61.6374550  74.3090897   3.7158587  69.8342209  48.6326675
   4.6672258  69.8071442  48.5306892   3.3804536  69.8871231  47.7377167
  64.9012375  62.9389420  15.2258615  65.6406479  63.5465240  15.2072830
  64.7718277  62.6911011  14.3104048  70.5474319  65.5512390  45.7533646
  69.9047852  65.9986572  46.3038635  70.0292892  64.9427414  45.2265892
  82.9582748  50.5614815  47.1393204  82.5414047  51.4037476  47.3210831
  82.2707291  49.9147263  47.2981300  71.6732178  65.8118515  59.4651299
  72.5148087  65.8205795  59.9210739  71.0288467  65.9976578  60.1481323
  24.4692917  18.1550083  31.8875313  24.5297184  19.0519485  32.2162857
  24.8157368  18.2026520  30.9965000  52.7603683  49.6141510  76.6477280
  53.6711349  49.8033028  76.8734741  52.3806801  49.2669716  77.4549026
  29.7871151  17.0943508   5.6580219  29.9476185  17.6909332   6.3891582
  29.7075691  17.6666851   4.8949113  65.3344421  23.1403980  45.5466461
  64.7343216  22.4321804  45.7801285  65.1821136  23.2853336  44.6128235
  49.0531197  47.2916412   5.2532716  49.5861053  47.4460831   6.0332122
  48.1816711  47.6073265   5.4923320  67.5501862  12.8805580  85.8973389
  68.3262253  12.6650715  85.3800812  67.1582870  13.6258221  85.4421234
  10.6935186  60.7492180  46.4929543   9.7425470  60.7612190  46.6013069
  11.0015230  60.1244659  47.1494942   0.8582442   3.1607661   6.1001143
   1.3868568   2.5482659   5.5886025   0.8367742   3.9582627   5.5711813
   0.8871054  36.3468971  86.8506775   0.2601520  35.7535400  86.4370499
   1.0825907  35.9387474  87.6941376  84.0920258  70.8187790  49.4005318
  84.7266998  70.3502426  48.8584137  84.2925034  70.5443115  50.2953529
  68.7277069  11.8142595  43.1008682  68.8683929  12.7309914  42.8641396
  69.5649033  11.5305090  43.4680367   5.9399281  57.7981071  13.2055464
   6.3297992  58.0658722  14.0377331   6.3582835  58.3600082  12.5532608
  81.7779541  57.6934509  14.0694981  81.3028946  58.4962654  14.2840633
  82.6655807  57.9877396  13.8651724  29.7585945  10.0458164  77.8390427
  29.0775490  10.7131672  77.9230118  30.1681252  10.2266665  76.9929886
  46.9878960   6.5652504  50.6541481  47.3812103   7.4314675  50.5483017
  47.6621971   5.9573450  50.3508339  44.0831299  13.8113918  68.4642563
  43.5746765  13.5631409  69.2363205  44.5737000  14.5858946  68.7394257
  71.0445175  30.7087612  65.5118256  71.0732574  29.9250107  66.0605927
  71.7671051  30.5954475  64.8943710  45.9161720   7.1973038  73.9674225
  46.1116867   6.3534899  73.5600128  46.0970535   7.8414283  73.2828674
  36.6605644  68.8274841  67.6870193  37.3660049  69.1288605  67.1145172
  36.6708221  67.8744507  67.5984192  63.4999466  62.7232742  22.6920700
  63.1443405  62.3924980  21.8672314  63.8535347  61.9481544  23.1284180
  41.4451103  18.4147778  84.7630539  41.5513535  18.9407444  83.9703979
  41.1569405  19.0397358  85.4283524  82.1218109  55.1769409  69.3979797
  81.3849640  54.6013260  69.6028214  82.8920288  54.6123047  69.4626923
  58.7716599  28.7051506  56.9495201  59.2095184  29.3801422  56.4309692
  59.0175285  27.8818817  56.5276108   9.6038008  27.6975517  51.6464539
   9.7660971  28.6110554  51.4110756   9.4806013  27.7130280  52.5955696
  60.0713158  56.7580338  50.4389191  59.2203751  57.1436729  50.2305565
  60.6999702  57.4601059  50.2712288  30.5285358   0.3966370  24.8713589
  30.4760151   0.7331627  25.7659111  31.3693237  -0.0594988  24.8360329
  50.6792564  30.7692795   3.1793206  51.2858391  30.1425018   2.7850626
  50.5861855  31.4586067   2.5217526  24.4246387  53.8142014  71.5228195
  24.7759323  53.0133553  71.1336288  24.7248726  53.7906265  72.4314041
  72.1932373  22.5502567  20.1090527  71.7764130  22.8656540  20.9109325
  73.1289520  22.5473232  20.3106976  63.3905640  67.5333328  63.2514572
  63.9447060  68.3084793  63.3425751  64.0073166  66.8094711  63.1424599
  68.0324631   8.9645653  43.4370537  67.2377014   9.0110931  43.9684830
  68.3759155   9.8580179  43.4410629  81.1885605  70.8636856  12.4301968
  81.1539612  70.9489899  13.3829594  80.7923660  70.0108414  12.2515440
  63.7701378  36.1179237  12.6997786  63.3214417  36.3954086  13.4984684
  63.5544891  35.1892662  12.6142225  29.6632500   6.5234632  36.5299568
  29.3901730   6.1491551  35.6923676  30.1741524   7.2969723  36.2914276
  62.7689934  10.1014309  47.3751564  62.8080521  10.2808666  46.4357376
  62.7164421  10.9661818  47.7821922   1.4689809  19.8334255  50.5694733
   2.3495371  19.5043793  50.3889694   1.4800696  20.0481777  51.5022049
  41.3324738  30.2090340   9.5079918  40.4316940  29.8929806   9.5782528
  41.3399467  31.0245228  10.0091438  17.3886719  40.8280296  81.6175537
  17.8140488  40.9113693  82.4709778  16.4574795  40.7413673  81.8215179
  45.6825180  58.2443581  12.3459625  46.5181732  58.6947021  12.4688501
  45.3052101  58.1957245  13.2243166  26.6559525  46.7958450  36.8161697
  26.3973770  46.4601097  37.6744537  26.1127472  47.5737686  36.6897049
  31.0416737  45.3156319  25.5221596  30.2090950  45.7842865  25.5805492
  30.9385376  44.5696144  26.1129665   6.9349856  66.4184265  85.8646545
   6.8340683  67.2674637  86.2949753   6.7122025  66.5860291  84.9489517
  24.9247131  51.1146965  70.8437347  25.1121502  50.9159470  69.9263535
  24.0210018  50.8262291  70.9714966  13.2895842  60.0279579  86.8178482
  12.5431757  60.6217346  86.8986969  13.9600611  60.4073181  87.3859787
  67.7178802  20.6870651  18.2541828  68.4678650  21.1085091  18.6738701
  67.5772171  21.1913757  17.4528618  63.4301682   0.3167024   2.4581964
  63.1855545   0.1047558   1.5573770  62.8720055  -0.2446292   2.9963353
  82.9901047  34.9186859  28.1040306  82.4910660  34.2000122  27.7158279
  83.8075027  34.9389229  27.6063652  71.0524597  47.4415932  45.4681168
  71.2577133  46.7339172  44.8571320  70.8364868  48.1868477  44.9075966
  43.0754547  29.1638374  72.3020096  42.9364471  30.0984764  72.1491699
  44.0267601  29.0582943  72.2913742  80.7400513  27.2301788  39.0130310
  81.4513474  27.4189739  39.6251106  81.1268921  27.3637562  38.1477280
  71.8634262  15.2982178   1.8044376  72.6931534  15.0456228   2.2093825
  71.2866821  14.5487795   1.9525499  74.9256287   5.0932493  38.0497513
  74.7092590   4.3096786  38.5551567  74.1072769   5.5884457  38.0135345
  66.3004913  60.6634216  82.8698578  67.0381012  60.6287766  82.2607880
  66.1412048  59.7494202  83.1053543  72.3048553  52.2172546  75.3249207
  71.7733994  52.8091316  75.8573380  72.5629959  51.5197105  75.9274368
  50.4920731  63.2039604  43.3098335  49.7903519  63.8032303  43.0554810
  50.6615105  63.4099770  44.2291183  49.8442497  49.6817169  38.5522270
  49.6741753  49.9019165  39.4680977  50.1838684  50.4910889  38.1703796
  57.4073296  32.1421242  88.9068451  57.4264069  32.4384880  89.8168106
  56.6383667  32.5709877  88.5313416  57.5463600  20.3454247  79.5043488
  57.3191643  19.4359493  79.3107834  56.7213058  20.8225231  79.4154892
  84.5496826  61.4594612  25.5213394  83.8534088  61.7371674  24.9260941
  85.3481903  61.8298111  25.1452389  77.6801376  43.8935394  50.5507774
  76.8933640  44.3058395  50.1940804  78.3955383  44.2429733  50.0194359
   0.8259492  54.2321205  36.2264366   0.2958016  54.1406479  37.0181503
   0.9626489  53.3340874  35.9246407  81.3536682  65.3565750  53.4138069
  80.5797806  65.7340240  52.9956436  81.1230545  65.3039017  54.3413162
  63.9070168  58.1323357  22.4125900  64.4459915  57.5124741  22.9040222
  63.6855927  57.6691628  21.6047077  70.8833160  15.2106457  79.5405197
  70.2760544  15.4713984  78.8480835  70.9405746  14.2583275  79.4627838
   1.3708501  44.2449799   4.2202187   0.8298761  43.9111061   4.9358349
   1.1639435  43.6766777   3.4782932  57.8307610  11.3309193  58.8940086
  57.4624100  11.2469444  59.7734947  57.4066696  10.6368132  58.3894348
  28.4366131  50.7765694  22.8313217  28.7128792  50.5191383  21.9517536
  27.5384521  51.0878067  22.7187729  54.2972679  17.8253536  80.9826889
  54.8267593  17.2273846  81.5102310  53.9272385  18.4400692  81.6162720
  80.6591263  63.2690620  71.9897079  79.7584763  63.2968063  71.6667786
  81.1454086  62.8111839  71.3040619  78.9971161  21.8374519  49.6234093
  79.1911621  21.1714134  48.9638863  78.5845718  22.5478992  49.1321831
  13.2676353  35.3629913  84.9702454  12.5247488  35.6884270  85.4786148
  13.6634579  34.6924400  85.5269470  54.6188354  45.3751144   4.0145063
  54.0420113  45.9027176   4.5668983  54.0544357  44.6819344   3.6721787
  14.5888691   0.4612719   9.7672291  15.5299206   0.5591146   9.9124212
  14.5184479  -0.2341576   9.1132793  29.9431839  65.6845474  49.5556984
  30.1079140  65.2964478  50.4150429  30.7307949  66.1953354  49.3686142
  71.5036926  70.9856415  61.8428917  71.4028702  71.7953262  62.3433723
  70.7711716  70.4374313  62.1241455  70.5174255  18.5734024  81.8648911
  70.1781693  19.1109982  82.5805206  69.7469101  18.3628025  81.3374557
  12.1565208  49.1187401  33.7654915  12.0272627  48.2278442  34.0907974
  11.4998608  49.2197380  33.0764122  44.8459091  34.7634811  23.0068989
  44.4122353  35.3330460  23.6423168  44.3826256  34.9251137  22.1850243
  44.6128464  11.1905222  29.4222851  44.2581863  11.9737425  29.8430195
  43.8460617  10.6454706  29.2456646  61.6474266  65.3605042  70.2359467
  61.6508713  65.8544693  69.4160538  60.7219963  65.2929840  70.4710007
  27.8362541  33.9698715  69.2445908  28.2084599  34.5638771  68.5927887
  27.0104752  33.6777802  68.8585815  16.3726139  50.1927338  42.7978859
  16.3193207  50.6734314  41.9718590  16.9833260  50.7009087  43.3317566
  71.4117126  59.7912331  70.3963470  71.6616592  58.9855614  69.9439621
  71.1951370  60.4034576  69.6931381  63.8328056  19.9039650   1.5549960
  63.9234695  19.2114983   0.9003959  64.5774689  19.7768517   2.1428316
  24.2636452   5.9173503  73.7223740  24.8697529   5.5522509  73.0777283
  24.7927933   6.5370793  74.2245407  32.1505318  58.7874985  33.4276619
  31.2137985  58.8133316  33.6228371  32.2215881  58.2054443  32.6710930
  27.4612751  59.4738007  84.1748199  28.3186150  59.3788643  84.5897751
  27.1802425  60.3592491  84.4055481  56.0911407  43.3805237   6.6070232
  56.6250725  43.9718742   7.1375432  55.3398247  43.1728172   7.1625528
  73.4720306  31.0982590  23.9483204  72.5542145  31.2368813  24.1820240
  73.7008896  31.8592567  23.4147110   8.9276657  36.0378418  74.9710999
   8.6304855  36.9161644  74.7334747   9.5556736  35.8043633  74.2874832
  84.9641647  58.0881615  41.1067657  84.5820694  57.2322693  41.3008995
  85.3916092  57.9727097  40.2581215  58.1828537  15.1807156  10.0716476
  57.6632729  15.9053450  10.4197550  58.6217384  14.8109941  10.8377533
  50.2493401  16.5406475  65.2829590  49.4674301  15.9889517  65.2611160
  50.7328720  16.3022156  64.4920273  65.8720093  37.7474747  59.0514145
  66.7564087  37.5895882  59.3817635  65.3054123  37.2381248  59.6308632
  40.2886696  39.7316780  42.9994164  39.7909393  39.9580574  43.7850647
  41.1552582  39.4899559  43.3262634  49.1865730  63.7212296   4.9551048
  48.3808479  63.9113426   5.4356241  49.0963707  62.8062744   4.6887326
  66.4413834  18.2608528  22.4192295  66.4928513  18.9956722  23.0304775
  66.3811493  18.6708298  21.5563736  24.3437901  54.5479774  45.8609810
  24.7907906  53.7089119  45.7496719  23.6265697  54.3588562  46.4660110
  67.7050629  68.8916626  59.5108871  68.0143509  67.9860229  59.4911728
  67.6422577  69.1434174  58.5895233  32.4247932  23.7590580  66.9197311
  32.9077110  23.8134804  66.0950775  33.1037025  23.7444992  67.5943451
  84.5150223  31.8853951  33.1644859  85.1919174  32.4420967  33.5493660
  84.1753922  32.3950882  32.4288979  52.0531120  39.1588478  66.9362335
  51.5683365  39.7843132  66.3976974  52.9482613  39.4976120  66.9496078
  53.7666473   9.0594368   6.8641076  53.2601318   8.8598213   7.6513991
  53.2351990   9.7018299   6.3938680  65.1516724  23.9204330  42.8996735
  64.3818970  23.6256523  42.4130707  65.8950806  23.6171722  42.3785057
  83.7274780  32.8678246  88.1228104  84.2460480  32.4653053  88.8194427
  83.7909317  32.2534943  87.3915100  61.5057487  48.3884468  19.3094597
  62.3762779  48.3180733  19.7011967  61.5331535  47.7973022  18.5571136
   8.6845388  29.9973145   2.0959854   7.9345322  29.4664040   1.8279269
   8.3220482  30.8727951   2.2315099  20.0823612  33.2657890  70.9497147
  20.1599846  34.1253662  70.5357971  20.5255299  33.3648109  71.7923508
  12.8142633  13.6795111   8.2056160  13.7331896  13.8171844   8.4355125
  12.3395777  13.8125143   9.0261135   0.1708824  39.7036057  61.5880737
   1.0439912  39.7145538  61.1959076   0.3319334  39.6395149  62.5294495
  46.2927666   1.4268636  34.4286346  47.1235466   1.8805851  34.5706825
  45.6742973   2.1232002  34.2076340  38.0353737   5.4975004   4.1749411
  37.3867340   6.1922832   4.2879791  37.8437462   5.1289263   3.3125820
  71.2156372  57.8125458  86.7137222  71.3276825  57.1444473  87.3899765
  71.9271088  58.4334679  86.8702621  44.3023186  21.8746300  89.2329865
  44.0369949  22.3633270  88.4538727  43.6609993  21.1674042  89.3020401
   8.9218559  34.8024025  18.7671165   9.6680365  35.3946114  18.6736698
   9.2954369  34.0031586  19.1384411  83.8131943   0.8976238  59.2620010
  84.0847092   1.2801739  60.0963669  83.4554977   1.6340116  58.7660027
  77.1363220  40.7665291  68.4760208  76.7843781  39.8837585  68.3616257
  76.3822021  41.3429184  68.3523026  16.5102844  52.6121826  48.0823059
  17.2978611  52.5846176  48.6256256  16.3833790  53.5415382  47.8914566
  79.8387070  47.3845520  75.5224686  79.0081787  46.9278336  75.3888092
  79.8280869  48.0939026  74.8798599  14.1351509  33.6992912  19.8515892
  13.6934795  33.8043213  20.6942787  13.9905119  32.7823677  19.6180038
  20.9139748  59.5676231  83.7650681  21.3545799  59.7946167  82.9461823
  21.2105198  60.2307472  84.3884125  85.4864349  36.5358429  47.4928665
  85.7571335  37.4407158  47.3374290  86.2233200  36.0089226  47.1837006
  33.4447327  40.0788612   5.1423965  32.7637253  39.4064178   5.1591883
  32.9968719  40.8801384   5.4137006  46.0706139  43.3196983  38.2094498
  46.5580406  43.9615746  38.7258263  46.6151657  42.5327530  38.2296486
  10.8873615  30.4988346  16.0821781  11.4796839  30.6947784  15.3562355
  10.4434710  31.3281116  16.2596397  43.4604073  42.0217781  30.3170223
  43.5282021  41.2816010  30.9201584  44.3627815  42.3189125  30.2001286
   2.6587532  21.2012806  56.4929848   2.5780482  20.8716831  57.3880196
   3.2482123  20.5823479  56.0620689  85.2985840   7.4599948  46.5118103
  86.1722870   7.2017617  46.8053932  85.3327637   7.3797312  45.5585938
  15.1997185  44.4493713  53.6932755  15.1939592  44.1450768  54.6008034
  15.8684454  45.1339722  53.6744461  55.7149048   3.7509203  68.2322540
  56.4172783   3.2887864  67.7747269  55.5868759   4.5533314  67.7263184
  54.3918648  33.8145905  14.4414053  54.0500793  33.3660736  13.6679392
  53.8499222  34.5994530  14.5221634  66.0963593  47.3971252   7.9129872
  65.1424484  47.3267937   7.8762627  66.2662659  47.9566231   8.6708298
  41.5499535  38.2007408  50.7733116  42.1312866  38.9177513  50.5199738
  42.1402817  37.4800148  50.9930687  58.6816864   9.3254509  35.2795448
  58.4126892   9.9427509  35.9598465  59.3561935   9.7919617  34.7859459
  76.5290222  70.7308960  71.1942749  75.6835556  70.5174713  70.7994614
  76.4325638  71.6352844  71.4926147  45.6361237  65.2001953  12.2720547
  45.3366852  64.3898315  11.8598928  46.3498116  65.5045166  11.7114573
   6.2242417  70.9092407  28.3606682   6.9327164  71.4445038  28.7181396
   6.0906677  71.2487259  27.4757175  61.4847412  18.3904419  51.7563553
  61.5605125  18.0741348  52.6565971  60.9303970  19.1680546  51.8215637
  31.9080868  57.0238876   8.1997948  32.1415253  56.4031906   7.5095248
  30.9605751  57.1305046   8.1156197  25.0600815  69.3706360  47.0765190
  25.1418152  70.0587997  46.4162331  24.9895554  69.8422241  47.9064980
  74.5977631  22.4431381  64.1801682  75.2725449  21.7735672  64.2923203
  74.0036774  22.3105659  64.9188995  62.0491180  36.4349709  17.3339310
  61.2459297  36.1354485  17.7598438  62.0356064  36.0142174  16.4742699
  76.0591888  20.1782055  63.1544914  76.4949951  19.3539486  63.3710670
  76.7742462  20.7803383  62.9486732  54.0360222  38.1529655  75.5641479
  53.8583031  38.9514160  75.0670319  53.3787270  38.1527672  76.2599869
   3.0616839  45.3598518  11.1428585   2.5906739  45.3558159  10.3095722
   2.4322486  45.0136261  11.7754488  53.6835022  -0.0019011  32.6245613
  53.6578484   0.5565490  31.8475761  54.5628510   0.1240202  32.9810982
  79.2114029  49.4511490   2.9367592  78.9980392  48.7479401   2.3234031
  79.9991150  49.8554230   2.5730233  40.3621521  71.1088715  44.2953682
  41.0606880  70.5697784  43.9243393  39.7781334  70.4828186  44.7233925
  86.3053818  67.4288559  62.8820992  86.6971664  67.3893814  63.7545509
  85.4180374  67.0906830  63.0024948  47.4220467  38.4089890  26.3737030
  47.3309212  38.4120865  27.3265514  46.5249710  38.4782867  26.0470791
   7.3182163  32.1560364  30.0832005   8.2009630  32.0830879  30.4460621
   6.8101158  32.5825920  30.7732143  23.6553631  61.1195221  52.7407799
  23.2757683  61.8361702  52.2322960  22.9359016  60.8082771  53.2900810
  82.0859756  26.3465996  28.1351643  82.1357269  25.7170639  27.4158306
  82.9572372  26.3272343  28.5310860  74.5655212  49.6830177  36.9366379
  74.2684631  48.7731819  36.9230118  73.8399429  50.1659737  37.3322678
  15.2583733  43.7087975  68.6152649  14.4238806  43.5792427  68.1646347
  15.0144854  44.0304604  69.4831848   6.5576620  36.4371490   4.6723399
   6.9779902  37.2777023   4.8540707   5.6227598  36.6069031   4.7879829
  53.3034210  44.1306076  61.5148010  52.6859474  43.5195084  61.9166908
  53.4735451  43.7634087  60.6473618  78.0906143  17.2329655  78.9554596
  77.5073624  16.5716743  78.5829849  78.6027679  16.7589226  79.6106033
   5.0760202  58.7455139  53.4580078   4.9871535  57.9213333  53.9366074
   4.3018832  59.2510338  53.7057877   4.9707379  49.4629860  33.2962379
   5.4343286  49.9579277  33.9717712   5.3858061  48.6004944  33.3039360
  58.2967758  35.5200462  26.0122070  58.3626289  35.7242126  25.0793571
  59.0538826  34.9617615  26.1892281  62.6061363  16.2659569  40.7377167
  63.1835823  15.5237265  40.5591583  63.0266838  16.7274780  41.4632301
  62.6588745  67.0219421  37.9543953  62.6238327  66.3055954  37.3204765
  63.2060623  66.6867065  38.6646271  46.6916656  70.6521912  80.9389954
  47.5773010  70.9834061  80.7900848  46.6067963  70.6152725  81.8917084
  37.1598244  58.9737282  50.8896790  37.0349655  58.1615906  50.3986855
  36.8966446  58.7559013  51.7838364  23.1056194  30.6408806  71.5618744
  22.3698769  30.3147697  72.0801086  23.1968384  30.0072346  70.8502579
  26.0474110  66.5687485  65.7051773  26.1953850  67.0656204  64.9005356
  25.8978920  65.6711121  65.4083176  66.2175751  10.8082418  22.6309528
  66.1119995  11.6231728  23.1218433  66.3650818  10.1417980  23.3020172
  24.8606873  59.5148163  63.1369934  24.8802547  59.4701157  64.0929489
  24.0076084  59.8978119  62.9325409  56.6048889  23.1494942  65.0996017
  56.3874817  22.3681145  64.5912628  56.5526543  23.8676987  64.4689789
  71.3694382  66.9513168  16.1577148  71.5038376  66.8685303  17.1018105
  72.2444534  67.1117401  15.8043823   1.3516232  20.6919136  26.4136047
   1.2534070  20.5333939  25.4747448   2.0272052  21.3674011  26.4730701
  52.5213356  41.0137291  59.3635292  53.3339386  41.4108543  59.6768875
  52.6660080  40.0715561  59.4507713  85.1079102  10.4497070   8.2783289
  84.6638641   9.8310413   7.6984115  85.5183868   9.8999786   8.9458160
  86.8604126  68.0283661  72.3320923  86.3813705  67.2955399  72.7190094
  86.5287323  68.8002319  72.7908325  74.7798538  32.9553032  41.9292755
  74.3574371  33.5835838  42.5149879  74.7577438  32.1276817  42.4096756
  66.9820786  36.1256638  33.9148445  67.7284927  35.6613503  33.5360069
  67.2838058  37.0293922  34.0068550  44.7494774  65.7004089  63.0349312
  45.0936852  64.8301926  63.2361221  44.6264725  65.6957397  62.0856781
  71.4906006  68.3732986   5.2104940  71.1020050  68.6743469   6.0318308
  72.4306030  68.3404922   5.3881297  33.8769112  60.7952766  58.1714668
  33.5694542  60.3092499  58.9366341  33.4084778  60.4031639  57.4345512
  27.0869408  58.1187401  14.7623425  27.0479355  57.4581947  14.0706854
  27.6875916  58.7833977  14.4251757  50.1307182  27.6872559  23.6313229
  50.5098267  27.5838318  24.5041409  49.4629784  28.3645840  23.7389469
   6.2772965  49.8799133  72.8113480   6.6716671  49.8878403  73.6834946
   5.7337370  50.6674347  72.7871094  67.0789108  55.4620819  42.5999451
  67.5762939  54.8365440  43.1267738  66.3414688  55.7113533  43.1569710
  64.1152039  48.2164192  13.6227722  64.6282349  47.8441238  12.9055347
  64.6047974  48.9948082  13.8885708  23.1649780  10.8099184  67.7305679
  23.6912098  11.5222254  67.3673477  23.6411839  10.0145950  67.4919815
  15.2189083  51.4485016  82.9695816  15.7931700  50.7043190  83.1502686
  15.5211258  51.7849503  82.1259613  15.6502399  70.3635635  74.4666290
  16.3957386  70.8335724  74.0930634  15.0543261  70.2345047  73.7287521
  72.7667236  30.1576958  75.8099136  73.1120911  29.7948380  74.9942627
  73.4040298  30.8252087  76.0638885  59.1635513  47.5070877  67.4061890
  60.0425949  47.8818550  67.4615250  58.6428642  48.0261536  68.0191269
  80.9987946  50.4631958  62.4088516  80.9966278  49.5116692  62.5128746
  81.4268417  50.7896881  63.2003098  60.9692268  25.4279652   1.6547570
  61.6960678  25.9415150   2.0071790  61.3479500  24.5668297   1.4779917
   2.2720807  30.1756821  45.4155922   2.9242029  29.7268467  44.8775253
   1.4838798  29.6386814  45.3343391  46.9270134  40.7196884  66.1469574
  46.1034737  41.0978050  66.4552460  47.0665131  39.9582062  66.7099075
   3.8249295  19.7735291  29.1990757   3.2530084  20.4368362  28.8128624
   4.4134326  20.2676373  29.7698231  56.3469582  37.0255318   6.5450435
  56.1375351  36.4972000   7.3152637  55.5022202  37.3674965   6.2522755
  54.6677666  33.3337975   6.0391245  55.4742813  33.7381554   6.3589053
  54.7607269  32.4070015   6.2596540  38.2107430  65.3149948  48.1329994
  37.8334656  64.9694595  48.9420090  37.5980415  65.9956818  47.8546143
   0.5270146  58.6718292  84.3169098   0.4630509  59.5000038  84.7925873
   1.1467854  58.8492661  83.6093597  18.9601688  50.0692711  70.2289276
  19.1962395  49.1691971  70.4533615  18.0363445  50.1415100  70.4688416
  70.0358200  21.6452446  43.1761818  70.8054199  21.8183384  43.7183914
  69.3297348  21.4928093  43.8042183  55.9027939  56.3758774  67.9425583
  56.5869217  56.9996262  68.1857529  55.1055603  56.7286224  68.3378143
  36.6669159   7.0498786  12.0525646  36.9883423   7.3997016  11.2215757
  36.7854500   7.7664933  12.6759777  42.5887794  35.1522598  16.0955067
  42.9926949  35.1133270  15.2285757  42.0901756  35.9693298  16.0909595
  30.4849701  29.2153435   6.2455034  31.3207378  29.6783218   6.3035865
  29.8537731  29.8907433   5.9971976  73.5866165  15.2903271  14.4613848
  74.0565643  15.9779720  13.9896603  72.6788940  15.5932064  14.4846010
  54.8812599  30.6603775  13.1359243  54.4182968  29.9304676  12.7246733
  54.2727585  31.3964901  13.0719242  63.1084900   9.9593554  72.2139130
  62.4040146  10.5174713  72.5432434  63.1831245   9.2597952  72.8629684
   0.8095496   1.3560230  18.1643543   0.9776905   1.5957209  19.0756741
  -0.1142972   1.5661184  18.0279770  25.4991474  68.3622894  38.9411697
  24.5939808  68.5409012  39.1961174  25.7087402  67.5315781  39.3680496
  71.1122818  59.3250160  58.5152473  71.8172684  59.9666443  58.4284019
  71.3296356  58.6428947  57.8798752  65.0453873  45.4534569  67.1619186
  65.4684753  44.8697166  67.7915878  64.1121368  45.2564049  67.2422104
  39.5647392  59.7118912  67.7357941  40.0630035  58.8946037  67.7382431
  40.1622620  60.3578148  68.1125946  77.7713470  53.3914528  50.1844215
  77.2098541  54.0597801  50.5772209  77.7443390  53.5773621  49.2458382
  31.4557457   2.4014971  29.6779785  31.4458027   3.3176670  29.9550457
  30.6304359   2.0434313  30.0049133  55.1306000  11.9573545  20.4817429
  54.9330101  12.8290348  20.8243275  55.2868843  11.4235935  21.2607841
  47.0656929  53.4761391  46.8274536  47.8120155  52.9194908  46.6052437
  46.7299461  53.1110420  47.6461143   2.3679314  32.5223694  77.0656586
   2.3322825  33.2491684  77.6875305   3.2929873  32.2782745  77.0353088
   9.0226822  32.2142487  77.4442596   9.7080088  32.7189331  77.0062485
   8.9984179  32.5654564  78.3343735  86.4146500  60.7062531  65.4827805
  87.2886200  61.0821991  65.3775024  85.9889908  61.2674828  66.1309052
  39.4675903  44.3789444  23.1744156  39.7880669  45.2778511  23.1003017
  39.0350342  44.3484726  24.0277615  29.8881912  65.1879044  73.5887375
  28.9831505  64.8856430  73.5127792  30.1736183  65.3189926  72.6845398
  37.9931946  53.5296440  65.1713562  38.4627647  53.2125626  64.3998642
  37.2473526  52.9360504  65.2585297   6.4397244  69.1456070   5.1873598
   5.8263278  69.8743286   5.2819486   7.2769952  69.4963608   5.4909744
  45.5969505  32.3700790  16.1548405  45.9428902  33.2453308  15.9802179
  46.3625793  31.7971287  16.1127281   1.9447588  57.3467865  67.7590408
   1.0575974  57.7053604  67.7344971   2.2625017  57.4320450  66.8601456
  42.9425735  47.6040421  83.3919678  42.2599030  46.9360161  83.4547272
  42.7797585  48.0347824  82.5528107   3.0712001  14.0439720  23.5074692
   3.6703582  13.9702721  24.2503090   2.5082281  14.7864552  23.7265892
  37.8004417  68.7433929  80.6073685  38.1458244  69.2520447  81.3410034
  38.1056862  69.2086868  79.8285522  46.4668961   4.0054641  16.4583721
  45.5294418   4.1594734  16.5753860  46.8179207   4.8554144  16.1926708
  64.4984589  37.6818199  28.8352413  64.0795975  37.9407806  28.0144348
  64.2187195  38.3447876  29.4664707  41.6106567  39.3195000  67.7940140
  42.0734825  39.4923286  66.9741592  40.6865959  39.2909164  67.5459747
  21.4417038  62.9532051  74.8823090  22.3701286  63.0797577  74.6867523
  21.3545761  63.2025681  75.8023453  12.3856230  35.9506721  12.5428658
  12.9049006  35.4368591  13.1613951  12.5206089  35.5182304  11.6996546
  12.5608482  54.6191788  46.1820717  12.9582586  53.7697830  46.3739738
  12.5841570  54.6842995  45.2273750  13.0387192   7.5278563  87.3028793
  13.4248476   8.3756495  87.0829163  12.8603468   7.5822659  88.2417374
  81.3174515  25.4268970  76.3939743  82.1414032  25.7885838  76.7203369
  81.2587891  24.5614624  76.7987137  24.3723755  36.2358551  14.4001455
  24.0708790  35.7170486  13.6543779  23.9334545  35.8460274  15.1561975
  81.8873215  27.5988483  33.3079414  82.6210632  27.9724770  32.8198280
  81.9149780  28.0400715  34.1569328  26.4716091  45.0318604   4.2736425
  26.3468838  45.2887764   5.1872449  25.6850491  44.5316849   4.0559759
  73.8855591  43.0337257  22.2502155  72.9531631  42.9494629  22.4496326
  74.0228500  43.9746017  22.1400623  78.3269196  21.0034618  40.6577492
  77.4785004  21.0546761  40.2175217  78.9570999  20.8740883  39.9489708
  18.9339390  26.4074650  11.7126331  18.0692768  26.7947369  11.5762129
  19.4755383  27.1336231  12.0218229  36.0432739   3.5054593  77.2839966
  35.5889053   2.7432745  76.9250259  36.5426216   3.8559554  76.5464020
  76.9108429  52.8254013  70.8483276  77.2214432  53.7304497  70.8737946
  77.5602646  52.3641548  70.3175354  26.0330029  63.7672615  64.4204941
  25.1113281  63.7697563  64.6788330  26.4207382  63.0509529  64.9232788
  22.6945171  67.6278915  37.5727119  23.4130707  68.2097168  37.3249359
  22.6930428  67.6432495  38.5297852  70.8834076  23.7261410  58.2280617
  70.1671829  24.2845516  58.5304375  70.4479904  22.9658737  57.8425293
  31.3714066  28.9772968  10.9146843  31.3214512  28.1117992  10.5089140
  30.5485878  29.0640144  11.3960161   2.5180228  22.7642059  32.4747200
   2.9973280  21.9587326  32.6689148   1.5960470  22.5189228  32.5523682
  81.4147568  31.4109192  79.4772568  80.7203293  30.7966881  79.2390823
  81.7875671  31.0506725  80.2819061  75.6349792  15.7826405  32.8845100
  75.8483353  15.0756950  33.4935570  75.3484497  16.5035477  33.4452477
  74.0528946  44.1263962  71.9920959  74.6206131  43.8596153  71.2690811
  73.3995972  44.6960678  71.5860062   2.5850923  31.6067524  41.1416435
   2.6487339  31.8513565  40.2184181   3.4261696  31.8673820  41.5170021
  28.3107243  37.1584244   6.2343912  29.1752682  36.7570267   6.3220091
  28.0636387  36.9985809   5.3235502  10.6201124  43.1293068  88.4433212
   9.7897043  43.0118599  87.9819565  11.1619215  43.6338539  87.8366089
  20.5720482  32.9045563  17.7284565  21.1510944  32.1691399  17.9286957
  21.1573448  33.5886040  17.4032726  35.0445175  68.1469193  85.4109726
  35.3667183  68.6125336  84.6392136  35.0012779  68.8162918  86.0938339
  69.0364761  42.6799049  28.1781349  68.7438202  41.9949570  27.5769444
  68.4246979  43.4019661  28.0346279  21.5326614  35.9532318  10.9085035
  21.3809013  35.6245308  10.0224142  22.2670517  35.4329796  11.2344494
  63.5669899   3.1454780   3.2699041  63.7817497   2.2774012   2.9285045
  62.6136513   3.1400292   3.3555918  58.1645622   8.8770809  17.9363213
  58.1634521   8.5112638  17.0517826  57.7724228   9.7446251  17.8372116
  33.9889145  29.6486969  78.2011566  33.3383179  29.0003643  77.9316711
  34.4673004  29.8559322  77.3983917  15.3842297  12.4419193  82.8816071
  16.1137943  12.8961821  83.3030548  15.0178442  13.0869131  82.2766495
  33.0840149  64.0580215  58.1720886  33.0656319  64.5743637  57.3663063
  33.8903809  63.5460052  58.1101112  82.8909607  48.5989494   6.8498721
  82.4803162  47.8493118   6.4190035  83.5593719  48.2131729   7.4161143
  25.1966248  13.1204987  59.5483246  24.6662464  12.7007656  60.2256393
  25.6728878  13.8104029  60.0103149  50.2376366   7.1935272  21.5055809
  50.9529953   7.6382275  21.0508976  49.5266609   7.8343015  21.5179195
  71.9627151  15.1101580  61.1893272  72.7811966  15.3601332  60.7605743
  72.1429672  15.2067175  62.1244316  68.3534546  17.4139709   1.5450467
  67.7330780  16.7622757   1.8716278  67.9026413  18.2509327   1.6568413
  26.5136757  18.9864502   5.9838891  26.2879543  18.1153183   6.3100977
  25.7133846  19.4992905   6.0968499  25.6772671  15.8874846  16.5734138
  26.4726791  15.9333286  16.0428963  25.9636383  16.1247330  17.4554195
  -0.1088093  13.9941692  35.9303398   0.0200578  14.0048838  36.8787651
   0.6687992  14.4271336  35.5780640  23.8114643  71.2284622  49.6551743
  23.2125568  70.7401733  49.0902710  23.2401009  71.7771301  50.1925201
  71.5352402  50.9190521  78.0205536  70.7825089  50.8044853  78.6006393
  71.8095856  50.0276375  77.8052673   2.5804420  22.5956402  48.1992188
   2.8538909  23.5097065  48.1221581   2.8493938  22.1946888  47.3726959
  46.5401421  39.4297791  60.7922859  46.3512344  38.7288055  60.1684456
  45.9658318  40.1480026  60.5266724  20.0666618  47.2529526  80.6845703
  19.2122002  46.8531418  80.5224609  20.2803173  47.0050316  81.5840836
  53.5111313  21.9895172  24.1507740  53.4842606  21.0735931  24.4275284
  53.8120995  22.4649658  24.9251118  81.6336517  60.7126617  39.1270790
  82.4179001  60.8454170  39.6595802  81.0422974  60.2148018  39.6915894
  79.1979141  71.6488571  85.4996796  78.8658981  71.4860840  86.3825760
  78.4913712  71.3615417  84.9213409  68.9902878  36.4455223  70.7330551
  69.6390686  35.9158745  70.2695999  68.1679840  35.9683418  70.6219406
  75.6718063  34.5229645  76.2092209  76.1869125  34.2757874  75.4412308
  75.6914673  35.4799576  76.2129135  39.0828781  71.0733719  27.2343731
  39.8609962  70.9715652  27.7824593  39.4175797  71.4111176  26.4036331
  71.9313965   7.9705858  65.7763367  71.8011246   8.6276522  65.0925751
  71.8873444   8.4647694  66.5949173  76.8661652  43.7814407  13.4634781
  76.8282547  42.8308525  13.5691700  76.3001022  44.1222000  14.1560726
  26.7145729  33.2142258  66.4198608  26.0727043  32.5902023  66.0809937
  26.4519501  34.0550919  66.0454178  18.4769020   6.3068500  76.8412933
  17.9129715   6.0438151  76.1139526  18.4322720   5.5744443  77.4559631
  12.7423487   4.1178389  71.5455093  12.4775982   3.2818050  71.9291611
  13.2157269   3.8767605  70.7492523   4.3394985   8.8684597  65.2607498
   4.7168941   9.6345406  64.8284073   4.5009046   8.1467266  64.6530685
   2.2109828  45.5906181  43.6902122   1.2878454  45.6824837  43.4543953
   2.2212212  44.9005775  44.3535156  36.6249008   4.3651352  11.4637136
  36.3710632   5.2880640  11.4648743  36.8778076   4.1851497  12.3691835
  32.3539314  58.8429031  85.4451447  32.8554649  58.3393097  86.0863037
  33.0148697  59.2051010  84.8550568  36.8114281  44.9864693  36.1673317
  37.3494377  44.2143173  35.9925270  36.2377052  45.0563622  35.4043198
   7.1633039  22.8802280  29.8683796   7.6510243  22.8656120  29.0448818
   6.3330436  22.4505920  29.6626759   8.5509758   6.0668931  49.7257423
   7.6433430   5.7634544  49.7067871   8.4898491   6.9899035  49.9718056
  57.1904716  43.4465332  39.0652962  56.6161613  44.1863594  39.2629204
  57.7226562  43.7466087  38.3284340  58.0711098  45.1922302  37.0413246
  57.7645683  45.5748367  36.2192039  57.9531059  45.8880119  37.6879997
  67.2336044  17.2027149  37.6603661  66.8313217  17.6423092  36.9112663
  68.1651382  17.4107475  37.5882378  73.5633469   3.7242723  80.5270920
  74.2768784   4.3174562  80.2920685  72.7752762   4.1540699  80.1947632
  17.5843010  64.4237900  28.1095257  17.0456390  63.9810600  27.4537315
  17.9684620  65.1658401  27.6426105  69.0555115  57.8666306  59.9061012
  68.5197983  58.3360939  59.2666893  69.8586578  58.3833084  59.9711037
  22.4670658  51.9323692  34.0206757  22.6082458  51.5745850  33.1441536
  22.2847881  52.8605347  33.8740120  40.0533485  27.5027084  83.5776367
  40.7432861  26.8965626  83.3078079  39.2409363  27.0126877  83.4507751
  76.1769257  43.9781799  70.1691513  76.7420273  43.6559944  70.8713531
  76.7809677  44.2164307  69.4658661  49.9743309  70.0343246  64.6100616
  50.6556129  69.9389877  65.2756424  49.3716621  69.3100510  64.7787476
   1.3330598  45.0096512  17.9270439   0.5009463  44.6010132  18.1654434
   1.2735817  45.1396370  16.9805775  52.6466713  45.7070732  66.8514557
  52.5238991  44.7585945  66.8120499  51.7640686  46.0581169  66.9698257
   4.3580718   3.3654242  14.8068399   3.4381645   3.1112702  14.8803816
   4.6391392   3.5115266  15.7101040  65.3244781  62.2548218  36.4293480
  64.6374817  61.8319054  35.9141655  65.6894379  61.5508881  36.9655495
  37.9510498  65.0349808  73.2540283  38.0788879  65.9824142  73.3014603
  37.8453903  64.8540115  72.3200531  63.9472237  37.2541008  60.7739906
  63.1809959  37.3492737  61.3397369  63.9276505  36.3382721  60.4963074
  78.6730042  61.3383141  22.6607094  77.7380524  61.3717537  22.8631229
  78.9281769  62.2548370  22.5553226  10.6405249  35.9315567   8.8604650
  10.3486452  35.0203171   8.8343801  10.9274216  36.1168480   7.9662685
   2.4822321   2.2257266  25.9376030   2.8232167   2.6455839  25.1478672
   3.2511442   1.8336203  26.3514366  80.3541031   8.2868490  73.3938828
  79.5005417   8.6759853  73.2035370  80.2582016   7.3668613  73.1475983
  17.7722912  49.7057648  60.0325089  17.9908562  50.5810738  59.7126732
  16.8941250  49.7981339  60.4020004  42.8832207  38.9444695  76.1736984
  42.9066467  39.6527214  76.8171768  42.2653923  38.3104439  76.5377579
   5.1673441  25.9776268   3.5063000   5.1032653  25.3639545   4.2381010
   5.5790896  25.4723167   2.8053296  82.1648941  59.6391220  63.3128395
  82.8546066  59.0142326  63.5365334  82.5747986  60.4972763  63.4213371
  29.8009605  53.8050766  65.5195923  29.9677315  52.9483948  65.1265106
  29.7417774  53.6302147  66.4588242  48.6181183  30.0098019  86.9267502
  49.4015236  29.4638062  86.8604202  48.9153748  30.8860016  86.6815109
  30.7169514  65.7234879  -0.0839425  31.6594143  65.6014938  -0.1984563
  30.6388206  66.5468674   0.3979047  14.4920797  42.2869873   8.6145058
  13.6953306  42.4593315   9.1162224  15.0350323  43.0629997   8.7532196
  74.0628815   1.0653938  18.1686039  74.6279755   1.3224230  17.4400158
  74.5464020   1.3293465  18.9514008  80.4792175  38.8279991   1.0768653
  80.0805054  38.0698929   0.6496171  80.2809372  39.5622444   0.4956587
  21.0726852  69.8070068  17.3645744  21.0222931  70.5822601  16.8054104
  21.4754562  69.1381073  16.8108788  18.9957619   4.8984022   3.7018731
  18.8290787   4.0861373   4.1800728  19.8199463   4.7404499   3.2414343
  33.5254059  22.3788357   1.3766371  33.8672485  22.5212574   2.2592978
  34.2299156  22.6689873   0.7972328  50.9130478  44.0451431  64.7430573
  50.2935143  44.4506226  65.3496857  50.6598091  44.3798523  63.8827820
  67.9390030   3.6688507  15.3458481  68.3423538   2.8212161  15.5330811
  67.2866974   3.7816355  16.0372257  16.8727932  52.9183235  44.6613350
  16.0179329  52.5063858  44.7868385  16.6740608  53.8436546  44.5181580
  37.4637413   4.5773468  82.9353561  37.4356842   5.4544926  82.5531769
  38.0387802   4.6655588  83.6954727  74.6070328   9.2428169  38.7561798
  74.4087372   9.6586399  39.5952263  75.4354324   8.7868309  38.9046974
  71.5150986  50.2391968  34.4847946  70.7833481  50.3165970  35.0969810
  72.1933136  50.8080330  34.8490562  22.1266727   9.1358089  59.6348076
  22.1038017   9.2764130  60.5813484  21.3911705   9.6479921  59.2987442
  16.5791817  53.2217674  58.9469185  17.4044361  52.8366661  58.6521568
  16.0101681  53.1862488  58.1780281  45.6638718  11.8059435  67.1087341
  44.9371796  12.3533792  67.4061661  45.3757820  11.4647121  66.2621002
  30.3765564  56.6802139  47.5562820  31.0011139  57.3902245  47.4078026
  30.1366882  56.7613602  48.4793816  48.5699043  11.0547237  80.2533112
  47.8372383  11.1691084  79.6480484  49.1750870  11.7629719  80.0333710
  47.4883347  40.6444130   1.8501029  47.7145004  39.7630348   1.5530287
  46.7144928  40.8786583   1.3377265  23.8858051  46.1647148  66.3985672
  23.7599468  45.5401230  65.6842346  23.0081596  46.5007858  66.5802917
  51.8018379   3.7870550  22.7064648  50.8451843   3.8063078  22.6805344
  52.0434380   3.0793428  22.1089668   7.3865266  33.3176842  59.2837677
   6.6633620  33.1405220  59.8853302   8.1742334  33.1319275  59.7948875
   8.1523676  66.9470901  59.4453926   7.9641128  67.0088425  58.5089226
   7.4982662  66.3342667  59.7812881  20.1845551   7.9298916  18.3219833
  20.0063477   8.6901436  17.7683678  20.0608330   7.1777368  17.7430286
  84.7266693  29.1906548  32.1521721  84.9145355  29.8309059  32.8384819
  84.2076797  29.6739769  31.5093060  76.3575745  50.2327919  19.2159405
  76.2050247  49.8306389  20.0710621  77.2481384  50.5795364  19.2697849
  48.9054070   6.9765282  70.2350082  48.6497574   7.7677612  70.7091675
  48.1013374   6.6842151  69.8057632   5.6546874  11.5308809  24.3591175
   5.1455159  10.9426765  23.8014507   5.7045684  11.0789013  25.2014103
  85.1715775  26.7197704  11.1756592  85.3287964  26.3405933  12.0403786
  84.9127426  27.6238804  11.3540411  50.2279472  39.8243217  79.5166397
  50.8309326  40.3267899  80.0645142  49.6039200  40.4726753  79.1903610
  23.8104610  52.9596405  67.6740265  23.3285561  53.7758026  67.8077240
  24.7295437  53.2033958  67.7840271  63.8931427   3.8378077  67.4274979
  64.0931931   3.0241885  66.9646454  63.7242279   4.4736085  66.7321930
  56.3307343  10.6464548  50.1029205  55.9246178  10.1820898  50.8348160
  56.5676537   9.9563904  49.4833145  28.8705177  54.4426651  77.8628387
  28.4090118  54.3783340  78.6989670  28.3106556  53.9743500  77.2435913
  81.2172089  53.3238564   1.9154494  81.5187531  53.6276093   2.7716248
  81.4517059  52.3960686   1.8942440  61.2890778  27.0212269  57.8861580
  61.3888931  27.4218521  57.0225830  61.8996391  27.5018139  58.4451599
   2.2572329  16.9240761  37.2650299   3.1036396  16.4854221  37.3511162
   1.8245423  16.4699268  36.5420074  81.4950180  66.2725677  13.5587006
  82.2954254  66.7337112  13.8095274  81.7706909  65.6750031  12.8636065
  36.3597755  65.5766754  85.3075867  36.8836250  65.7366943  84.5225983
  35.9139366  66.4076920  85.4715195  73.4933624  44.4697456   5.6971035
  72.8475189  43.9634285   5.2043953  73.2162552  45.3797379   5.5905204
  74.4260254  62.9067879  20.5618820  74.9806824  62.6449127  21.2967358
  73.6085587  62.4272118  20.6960011  74.6446533  57.6751213  12.1675911
  73.8081131  57.7305908  12.6294870  75.2866516  57.4983025  12.8552027
   9.8811512  22.2960815  72.9441757  10.4200068  22.1597233  72.1649017
   9.5856237  21.4187717  73.1875381  30.4086704  39.5008736  13.7488232
  29.9806881  38.6484222  13.8287411  30.3565331  39.8783150  14.6269188
  80.4635162  22.6499748  73.7849426  79.9422684  21.8478031  73.7525253
  80.2544785  23.0372581  74.6349716  84.0676880   8.7301149  33.5331268
  84.3532867   8.7696095  34.4458733  83.2840652   9.2789993  33.5033913
   7.6656389  36.0794525  59.7488556   8.4711809  36.0362167  59.2336235
   7.0261798  35.5857124  59.2354889  64.6449051  25.6790924  61.5005035
  64.5903091  24.7426548  61.6911278  64.6794128  25.7274284  60.5451508
  75.8872681  56.5234489  23.0724030  75.9533768  56.0846977  22.2242546
  75.1608429  56.0833054  23.5137749  61.5393524  69.5705490   8.5349464
  60.8219337  70.1830750   8.3726139  61.9154396  69.8572998   9.3671513
  52.1461868  58.1359787  28.2931919  52.1139145  57.2378616  28.6226959
  51.3198242  58.5256767  28.5786648  76.7835999  18.8919678   8.1225014
  77.1317825  19.7379532   8.4041290  76.0092697  18.7577438   8.6689625
  11.0215540  52.6505775  83.8822403  11.9420652  52.7747231  84.1134949
  10.7595320  51.8619308  84.3572311  71.4864197  41.2863235  79.4933853
  71.8276672  40.7934914  80.2396393  71.6555862  42.2023239  79.7137527
  64.1230545  63.0444107  67.7209396  64.8896332  62.7924805  67.2060471
  63.6132202  63.6027603  67.1339569  74.8275299  38.0966187  60.8530159
  75.6990509  37.9358597  60.4912872  74.3691330  37.2622719  60.7531815
  83.5085831  34.4816399   4.0016055  82.8294067  34.2484283   4.6345015
  83.7892914  35.3584251   4.2636819  39.6154938  21.5696659  80.1039124
  40.0454140  20.7190781  80.0150223  40.3333817  22.1876659  80.2415314
  57.6462708  34.1062698  74.8058777  58.6006737  34.1721611  74.8375473
  57.4331970  34.1609230  73.8742905   4.5418038  65.6912918  34.6040916
   5.0955911  65.9421234  33.8647461   4.8836179  66.1966629  35.3416557
  66.1092834  59.4780159  85.9906921  67.0264816  59.3043671  86.2024384
  65.6695938  59.5117950  86.8402634  60.2053566  50.9098854  19.1511078
  60.4772034  49.9953041  19.2277298  59.5480042  50.9068756  18.4553242
  73.8894119  44.7835999  58.8310661  73.9835663  43.8385010  58.9500351
  74.2813797  44.9575043  57.9752922   7.1397724  18.7501450  79.4964600
   7.5243778  19.4859829  79.0201721   6.5970030  19.1587353  80.1707687
  64.9371643  59.3552132  88.6414185  65.4233170  59.6751404  89.4013824
  64.6512604  58.4768639  88.8924103  72.3703537  70.5057297  59.0921478
  71.9625397  70.6819839  59.9400024  73.2586670  70.2219315  59.3080177
  21.8916016  23.7127056   6.3609176  21.4441032  22.9786587   5.9400220
  22.6977711  23.8226738   5.8567080  58.2223892  18.8550110  68.3123474
  57.8562775  18.9025192  67.4292068  58.0542793  17.9555321  68.5932465
  85.7401123  43.1305275  34.6284218  85.9800720  44.0571480  34.6338654
  85.4288254  42.9585037  35.5170975  31.3140259  67.5877380  23.6704006
  31.8776093  67.4670792  22.9061699  30.6264019  68.1817703  23.3695164
  22.0072021  60.1149216  42.7275505  22.1187267  61.0510216  42.8934097
  22.7641068  59.8745117  42.1932030   9.9664879  28.5822754  54.7963409
   9.0426970  28.8074512  54.9065132  10.3422918  29.3318081  54.3345985
  77.3688049  13.5837402  58.6683121  76.7495728  13.1700964  59.2697182
  78.1066513  12.9752932  58.6283340  70.3266525  45.4776459  54.1389694
  70.6937408  45.3553886  53.2634544  70.7158356  46.2950211  54.4498711
  14.6522942  10.3587227   0.4366395  14.8675222  11.2689972   0.2333916
  14.1529341  10.4069529   1.2518358  42.9301910  47.0470734  28.1473675
  42.5923042  46.3269043  27.6149902  43.8788261  47.0109138  28.0248394
  63.2585793  22.9606476  41.0922279  62.5991440  23.0179424  40.4007874
  63.3389206  22.0234451  41.2695160  85.2179413   2.6396887  54.5660019
  85.3011551   2.9953055  53.6812172  84.3049469   2.3585346  54.6262474
  17.0806198   7.9867992  86.2881241  16.4478436   8.2682981  86.9488678
  17.9124527   7.9368176  86.7590714  70.4282684  46.0869560  78.8504562
  69.5841751  45.6418495  78.7755127  70.2171631  47.0166931  78.7652893
  71.0516739  44.6880150   9.4953337  70.2752075  44.7782440   8.9428864
  70.7607498  44.9644241  10.3643541  20.7176609  63.4689331  66.4967041
  20.3359814  62.6764641  66.1191635  21.3605080  63.1474457  67.1288681
  83.7696609   7.8837905  16.1950855  84.3991013   7.1831508  16.0243950
  83.5903778   8.2598886  15.3333197  63.8146896  32.9511452  68.4730530
  63.9016685  32.0504951  68.1608124  64.1969452  33.4842720  67.7760010
  57.6552048  41.2214088   7.1200495  57.1026764  41.9388962   6.8099561
  57.6256943  41.2915344   8.0742207  38.4796677  63.8629227  28.6663570
  38.2279701  64.1297684  27.7822361  39.4314575  63.7694740  28.6265011
  33.3502007  14.8621550  78.9679947  34.0150833  14.7242384  79.6426315
  33.5813828  15.7024279  78.5721054  72.1908112  56.0695534  42.1067581
  71.3306046  56.3746414  41.8183022  72.6497040  56.8655968  42.3750153
  29.0382557  44.8387375  17.5899200  28.2278137  45.3105888  17.7816849
  28.9798317  44.6315613  16.6572380  20.3717861  61.6583214  23.3549252
  21.2772102  61.9289436  23.5072517  20.1909981  61.9236031  22.4531631
   2.5184498  31.9415817  38.3912621   3.3325012  31.9569912  37.8879585
   1.8912718  32.4175987  37.8469391  29.8243313  50.4701805  46.4093285
  28.9531689  50.0775414  46.4653816  30.1170330  50.5344276  47.3184128
   6.6142545  44.7449913  81.6605148   5.7289433  44.6688347  82.0164032
   6.7931495  43.8861656  81.2775650  19.0620651   8.3928690  88.2987595
  19.6671448   8.6533632  88.9932098  19.4140072   7.5645995  87.9726715
  55.3542671   2.8237593  36.6066093  54.5340958   2.3978360  36.8558884
  55.1075821   3.7305474  36.4246368  12.6873655  17.3410263  81.7267914
  11.7466516  17.4642620  81.5998993  13.0938501  17.9149990  81.0775223
  40.8855553  67.8021545  28.9281006  40.3665619  67.1857758  28.4114285
  41.7134628  67.3473282  29.0828056  62.9815178  38.4014091  44.7167587
  62.7190552  38.7955742  45.5486145  63.8164558  37.9738121  44.9072037
  79.1236115  25.9444504  60.3139038  79.7176971  26.2840824  60.9831886
  79.4000320  26.3774834  59.5062485  30.5800629   0.3819533  88.1837845
  30.9935627   1.0050043  87.5862427  30.3266716   0.9089532  88.9416122
  67.7161942  42.0717888  80.0848694  67.2016220  41.8468285  80.8600082
  68.5792618  42.3020363  80.4288635  38.3492546  37.3666725  72.3463974
  37.4762993  37.2419090  71.9740829  38.1963921  37.4713211  73.2854996
   7.2494545   1.4665235  26.3884983   6.5769086   2.0994539  26.6401196
   8.0765886   1.9272454  26.5292683  53.4765511  31.0211658  66.4779892
  53.5107346  30.9803810  65.5222702  52.7140617  31.5679855  66.6672592
  50.3289795  15.8728142  20.6631565  50.9307899  15.1547928  20.8593807
  50.6388016  16.2235966  19.8281746  74.9670563  60.5120773  15.3260117
  75.6756058  60.9784203  15.7695303  74.2071915  61.0867271  15.4188175
  50.7702370  69.7198257  70.7858353  51.5437393  69.1560898  70.7974548
  50.5441589  69.8353271  71.7087555  29.2464409  68.3115158  11.2719469
  29.3951015  67.9427414  10.4012346  29.9963932  68.0162964  11.7883272
  12.6995420  28.1524620  71.6360779  13.6209469  28.4116840  71.6290817
  12.2614012  28.8389874  72.1390152  13.8564663  27.8159828  75.5324249
  13.3418655  27.4843407  74.7966080  13.9563608  27.0622082  76.1138687
  79.8106384  26.8286209  74.9475174  80.3957214  26.2830925  75.4731750
  79.8411484  27.6875668  75.3688431  70.1176987  45.1545258  17.5888233
  71.0423203  45.3815117  17.4898911  69.6469193  45.9360809  17.2993927
  82.6821594  65.1599350  83.2214813  83.2589035  64.4043274  83.1089935
  83.0351105  65.6193161  83.9834671  47.0860023  43.6673088  63.3305168
  47.0332642  42.7922554  63.7148819  47.8966370  43.6569061  62.8216019
  20.9859047  12.6111774  82.2211304  21.4000397  11.7637987  82.0578156
  21.7028522  13.2429085  82.1651611  29.8391571   2.1848066  77.9479218
  30.4724731   1.9968864  78.6406174  29.5179176   3.0637619  78.1491013
  69.8329620  39.9219475  31.9788933  69.1585541  40.2121201  31.3647232
  69.3503571  39.6888428  32.7719803   4.3509030  11.1301956  84.6183624
   3.5380819  11.2551823  85.1081848   4.5876236  10.2162809  84.7763290
  11.6186714  25.8816433  53.4035606  10.8685856  26.0292015  53.9796066
  11.3507576  25.1532536  52.8432922  28.1556358  38.4622116  70.0718765
  27.5457077  39.0364075  69.6087112  28.7335262  38.1247444  69.3874817
  23.3534184  55.5856438  81.1081314  22.6636391  55.3048401  81.7094498
  22.8901787  55.8145485  80.3023758  66.1034393   2.4261029  13.0241518
  66.7231674   1.7062516  12.9058876  65.8671875   2.3889234  13.9509926
  76.7784348  17.1364155  68.7985535  76.6440964  16.2816410  69.2078857
  76.7476578  17.7578087  69.5259857  32.8573265  61.2255249  28.2421761
  33.0431061  60.3117065  28.4581738  33.4969444  61.7261505  28.7486286
   2.7925408   0.5608271   8.2807102   3.6152198   0.2250216   8.6366119
   2.9559667   1.4931885   8.1384926  20.8069687  30.5549698  61.2394867
  21.4544411  30.8138676  60.5837555  21.3275223  30.2616291  61.9872894
  49.7170982  56.3630219   8.4623804  49.7916527  56.4194984   7.5097613
  49.3976097  57.2249947   8.7291431  42.6093216  41.8422356  69.0750427
  42.0246620  41.2354507  68.6209335  42.7280998  42.5659523  68.4599380
  85.8754959   2.3555152   3.0085924  85.8730774   2.1994343   2.0642066
  86.3825912   3.1600769   3.1170840  75.1043167  71.5097961  40.5343590
  74.6802139  70.6563110  40.6234055  74.6007233  71.9577408  39.8546791
  41.4693680  32.2154083   0.7769933  41.4173698  33.1676521   0.6947642
  41.1876678  32.0367470   1.6741877  74.9698257  44.9761467  41.4896317
  74.4747772  45.1637268  42.2871132  74.5159225  44.2311935  41.0956116
  54.5693970  27.4281559   9.6085587  54.0678902  27.5817509  10.4092665
  55.0804214  26.6401844   9.7934580  27.8343773  70.8605423  61.4969940
  26.8875141  70.7903290  61.3755264  28.0474949  71.7484589  61.2099190
  54.9525795  15.9107256  83.0015259  54.4028053  16.5852242  83.4003220
  55.3934021  15.4927673  83.7412720  37.8094749   2.2187107  14.5915356
  38.0532417   1.4974527  15.1717043  36.8563194   2.2711680  14.6620722
  83.5394669  58.1917915  74.0829315  82.8634186  57.8591270  73.4925766
  84.3342209  57.7253571  73.8239975  55.0172882  24.9981747  17.9398041
  55.4794807  24.2044811  17.6702499  55.4472466  25.2610188  18.7536125
  70.1822891  16.6826744  72.9003067  69.6794281  17.1813259  73.5442810
  70.1242294  17.2009411  72.0976486  46.9179497  52.1925278   2.7268808
  46.0409698  51.8196411   2.6369069  47.1917419  51.9500008   3.6114430
  21.5662842  52.3834343  81.2999191  21.3503895  53.2758484  81.5705032
  20.9220390  51.8349571  81.7475281  84.4502869  16.4929199  64.6811447
  84.9834595  17.0886192  65.2075500  84.5736084  16.7933636  63.7807236
  40.8104973  18.2911415   3.2419362  39.9211617  18.6356468   3.1605206
  40.7108498  17.4899445   3.7561200  21.5572281   6.6119213  80.1373901
  21.2328148   5.7114210  80.1280670  21.3188457   6.9612808  79.2786942
  79.3508453  20.0128822  79.0773697  78.6254959  20.4535713  79.5199661
  79.1437302  19.0810165  79.1478043  75.0406418  14.3405771  73.1751709
  74.7292328  13.5648384  72.7088165  74.2755051  14.9136019  73.2245255
  68.7323914  37.2104187   9.3299122  69.5200043  37.0192299   8.8206511
  68.1889725  36.4283791   9.2332497   6.2768688  65.0161438   8.2926912
   6.2602029  65.6883926   7.6114907   5.9314890  64.2327576   7.8646059
  78.9710922  49.3016090  88.6010284  79.5555573  48.5436821  88.6146545
  79.5415039  50.0473022  88.7876053  66.3906403  52.9093628  55.0063057
  67.2923889  52.6472740  55.1917801  65.8662415  52.4379349  55.6536026
  85.6956635   3.7652273  83.5059204  85.8772202   4.6998601  83.6045685
  84.8711777   3.6307690  83.9732285   9.6217842   9.8490505  52.6903076
   9.9865627  10.6828918  52.9867477   9.8286352   9.2335815  53.3936157
  47.4452858  50.2696571  43.8525772  47.4123840  51.2232018  43.7757568
  46.5570335  50.0190239  44.1063957  51.9071388   4.1368184  61.3445206
  51.1649780   3.5584695  61.5204163  51.8131828   4.8469090  61.9794807
  39.1232185   2.1217434   3.2105913  38.9204330   1.9327700   4.1267781
  39.6200943   1.3595974   2.9131343  17.8944340  50.4395447  65.1239243
  17.4186153  51.1357727  64.6710510  17.6606636  50.5499725  66.0455475
  48.8895454   9.5661125  21.4639454  47.9352798   9.5338659  21.3963280
  49.1607552  10.1445332  20.7511292  71.4669418   1.2470086  29.8060856
  71.8876648   1.9684005  30.2738667  70.7992554   0.9256812  30.4120369
  21.7691307  47.8774605  52.2596817  22.2459812  47.2325439  51.7372589
  20.9971066  47.4071770  52.5743980  51.3271408   7.6895995   5.2469177
  51.4929886   7.3671856   4.3610420  51.4102173   6.9150529   5.8031616
  53.6741295  55.7797432  65.1963043  52.9702301  55.4728355  65.7677689
  53.2276306  56.2830238  64.5154419  51.1503029  49.7856369  83.6326675
  50.6751556  49.4805984  82.8597412  51.9906235  50.0920486  83.2917786
  77.7853851  67.1540146  40.2445450  77.4792633  66.5475922  39.5701752
  77.6292648  66.6938095  41.0692101  71.9305267  45.4583931  82.8012009
  71.5779114  45.8001251  83.6228485  71.8081970  46.1705894  82.1734695
  47.0551910  60.1901588  88.6409988  46.6432495  60.0759430  89.4974442
  46.3764229  59.9413147  88.0136414   8.2482138  21.4584846  13.1315937
   8.5610933  21.1827278  13.9931602   8.5611134  20.7790165  12.5343924
  58.8341675  11.2402945  15.7252464  58.1283798  11.8803234  15.6332922
  59.6145020  11.6975784  15.4118757  71.6382370  19.7834263   9.4994087
  71.1501541  19.3240528   8.8160467  71.0207977  20.4301090   9.8411779
  62.9539299  10.3490744  40.1177406  63.2531929  11.0720749  39.5664291
  63.6357384  10.2572556  40.7832718  80.8399658  22.9675388  88.4168396
  80.0703278  22.3984947  88.4079971  80.7037659  23.5429440  89.1695633
  51.8085709  28.2454472  20.1172409  50.8740196  28.1684952  20.3093815
  52.1813965  27.4115963  20.4034710   6.4097872  47.4703674  60.6675644
   5.7738924  47.0200386  60.1116180   6.8764648  48.0562401  60.0715828
  23.1450119  51.4489288  16.1290035  23.2740421  51.8988152  15.2940264
  22.5349026  50.7395477  15.9270773   2.4981112  24.9945679  18.1838646
   1.7081351  24.5316238  18.4628868   2.2114999  25.8979206  18.0495529
  47.5819969  38.8615685  68.8954926  48.3987961  39.3598251  68.9239044
  47.6623497  38.3142700  68.1143112  47.8300056  66.8586197  27.9213066
  47.4509468  67.5381699  28.4787598  47.6476479  67.1518631  27.0285664
  72.7963562  58.0851212  48.0320129  73.0243073  58.1228142  48.9609070
  71.9177551  57.7055855  48.0162125  20.3763199   0.6568739  39.3127823
  20.3912373   1.6070323  39.4277115  20.4606762   0.5285420  38.3679848
  19.5965195   2.2107103  53.8243523  19.5786819   1.2781023  53.6095161
  20.2760181   2.2892928  54.4939346  19.7267418  59.6508598  61.5522537
  19.6389561  58.8558426  61.0264549  19.5553932  60.3645287  60.9378052
  24.1507912  49.4575577  47.3215370  24.7003841  49.9643517  46.7237587
  24.5888004  48.6090851  47.3884315  83.8373566  15.0705404  85.6751099
  84.5844574  15.1318636  86.2703552  83.2359390  14.4641190  86.1072845
  58.8430443  52.8930969   2.9839613  59.3440590  53.6930313   2.8248327
  59.1767845  52.5634499   3.8183370  33.9719276  58.7811317  38.5470276
  34.5278893  59.5084534  38.8265648  33.8090553  58.9472771  37.6185341
  29.7523136  50.9535942   8.7852077  30.1888943  50.1476669   8.5093250
  28.9550343  50.6561317   9.2234926  69.0772629  47.0741196  23.2696533
  69.3526611  47.2195625  22.3645363  69.0596237  46.1217995  23.3645515
  78.0621719  49.7226524  62.0253029  78.9742355  49.4973717  62.2086601
  77.6047363  48.8818665  62.0173264  10.6574535  52.4344215  52.3350182
  10.0022163  51.7377663  52.3746262  10.4662228  52.8969803  51.5191116
  21.4619713  36.2345963  64.7859955  21.2175255  37.1596298  64.7578888
  20.6287022  35.7686653  64.8553085   8.1471157  30.3913326  75.6731720
   8.6183939  31.0142651  76.2264252   7.2303195  30.4881363  75.9307480
  25.0135231  16.9850960  79.9593506  25.2836952  16.5601978  80.7734146
  25.1207848  17.9207439  80.1304855  62.1213837  53.6011887  13.0220442
  61.6173172  53.8702698  12.2540979  62.2925758  54.4162712  13.4938107
  75.8158646  35.8906250  86.7322922  76.4087067  35.1622505  86.9173431
  75.0304489  35.6960297  87.2436523   8.9021349  52.4408684  23.2372627
   9.4029274  51.7997208  23.7416134   8.8264208  52.0533752  22.3652821
  14.7315769   6.1983867   9.5185585  14.3568411   5.3396511   9.3226557
  14.1270924   6.5845590  10.1523581  17.0973186  66.6056061  62.4945717
  17.2341766  65.8115997  61.9777946  17.7135830  66.5266418  63.2227287
  20.1466560   2.1142919  70.4608917  20.0488167   2.0869291  71.4126892
  20.9698105   2.5814631  70.3180695  83.4901657  55.4033127  56.1682205
  83.9623413  54.8355865  55.5591469  84.1600342  55.9930420  56.5142403
  26.2384262  41.3022346   7.8666191  25.7062740  41.3489227   8.6608906
  27.1405315  41.3761253   8.1780319  44.3639641  44.7412186  44.6140594
  45.2886772  44.4940948  44.6221390  43.9054413  43.9636078  44.9323463
  22.8368130  56.3710556  26.0375042  22.2030716  56.8698158  26.5531044
  23.6861057  56.6007462  26.4145660  30.4416637  29.7012997  79.9544601
  31.0544872  29.0968857  79.5356979  30.4318924  30.4678383  79.3812637
  64.7359543  65.7360687   5.0181885  64.1458969  66.2795410   5.5403976
  64.2887650  65.6362305   4.1777806  65.0147171  28.8525486  14.6454573
  65.2803879  28.8334732  13.7260637  65.0773697  27.9413414  14.9318285
   6.8443804  18.1869640  76.1803741   6.0690951  18.3585625  76.7148972
   6.5074272  18.1087284  75.2878647  71.3717041  68.5809402  29.4066563
  70.7092667  67.9203796  29.6092911  71.2147522  69.2800903  30.0413132
  83.7722244  59.7042542  44.3473396  84.7183914  59.5936584  44.2537384
  83.6620331  60.1045876  45.2097931  71.9237137  61.0276985  67.4763870
  71.1930084  61.4639626  67.9145355  71.9202652  61.3873100  66.5893097
  85.3963776  56.3641586  77.5388336  85.3852921  55.4325180  77.3193893
  84.5091705  56.6665154  77.3447342  21.6263294  51.8485985   4.9818010
  22.4436970  52.3382149   4.8900537  21.1435719  52.3142357   5.6647062
   0.5847400  64.7414246   4.7500772  -0.3674511  64.8353348   4.7773876
   0.7545314  64.2565842   3.9424064  28.6994209  64.1969147  83.0658493
  28.8885555  64.4870377  83.9581985  28.5377464  65.0057755  82.5802231
  66.6875458   6.0551972  23.3377209  67.2706909   6.2835283  22.6138172
  66.1131439   5.3790259  22.9784355   9.3065062  26.8922024  70.5245514
   8.9542646  26.3061619  69.8546829   9.3631010  26.3500328  71.3113632
  14.6643219  30.1839714  17.8344193  14.2425165  30.6027565  18.5847073
  14.1312418  29.4077835  17.6624050  75.9224701  62.7136383  71.0684662
  74.9740143  62.8340721  71.0219193  76.0639267  61.8122444  70.7791290
  86.1004791  53.4560738  85.2821808  86.6251755  53.5508804  84.4872360
  86.5954056  52.8414612  85.8239594  72.4748001   8.7795515  60.6952896
  71.7987747   8.5115032  60.0729027  72.1903076   9.6405497  61.0018463
  12.3837423   1.8688205  85.7627106  12.4250650   1.5978178  84.8456039
  11.5565872   2.3451264  85.8346786  66.2301102  34.2474899  49.9654121
  65.3685913  34.6145134  49.7671394  66.7910690  34.5549164  49.2533417
  41.8437195  67.0644455  13.5645704  42.6555252  67.0757599  14.0715990
  41.5549126  66.1523666  13.5951777  55.4483719  63.6788826  70.6766281
  55.6274605  62.8650665  70.2056046  56.0486526  63.6612816  71.4220047
  85.7003098  22.6820087   4.0220261  84.9432220  22.1508083   3.7753031
  86.2406769  22.0968685   4.5529189  62.5363617  30.5158100  84.1054001
  63.4678955  30.6434994  84.2847748  62.3912392  30.9557438  83.2677689
  51.4053993  24.4763870  76.4824982  51.9910202  25.1695824  76.1779404
  50.9100494  24.8778133  77.1964417  57.9367104  31.6365929  80.7370911
  58.4824219  32.1315155  81.3482208  57.0390472  31.8643551  80.9790649
  58.6524658  61.2363663   3.5123258  58.0828400  61.9968414   3.6282442
  59.0925026  61.3918877   2.6766152   7.2494874  63.1475449  36.0902557
   6.7410259  63.1871300  35.2802353   6.7605190  62.5450859  36.6507797
  16.9382324  28.3890533  13.5584240  16.1519318  28.1148872  13.0864096
  16.6918259  29.2149220  13.9749050  53.8835983  42.2442360  32.2473297
  52.9740639  42.2207909  31.9499588  53.8224754  42.3432121  33.1974335
  86.5238724  12.1380720  80.0100555  87.1094513  12.0904675  79.2543640
  85.7816467  12.6601000  79.7054062  30.9280891   6.7557297  85.9578781
  30.2817116   6.8041072  86.6622086  31.6290531   6.2092586  86.3131943
  59.2249336  61.3334198  57.0969810  58.6396255  61.1188278  57.8233414
  60.0906906  61.4024696  57.4993858  13.4879074  59.5735283  78.7973862
  12.9753265  59.9479561  79.5138321  13.9175224  60.3263664  78.3913116
  75.0806732  60.0586891  19.0032997  75.6607361  59.9816208  19.7608051
  75.3106384  60.9006042  18.6102028  76.9828644  31.7327690  78.0935364
  77.3242264  31.1815262  77.3893814  77.3465271  32.6002769  77.9162979
  70.3763123  34.1687126  26.2197666  69.7384262  34.7315025  26.6586304
  69.9993744  33.2906227  26.2755432  52.4398918  44.8004456  58.6672974
  52.8544731  45.6575623  58.5687866  51.7521439  44.7891159  58.0016365
  60.1141510  41.9920387  72.4945297  61.0242538  42.0791969  72.2110748
  59.7291069  41.3711090  71.8761292  62.8651314  46.3432846  76.9739990
  62.5904312  45.8514442  77.7478638  63.7326698  45.9967155  76.7654343
  33.6693764  32.0546112  71.3574600  33.4672394  31.2508278  70.8786011
  34.4550934  31.8421440  71.8611832  24.1533985  55.5019417  31.5355644
  23.9357891  55.9471245  32.3545227  24.0939426  56.1855659  30.8682117
  46.8885803  49.3072128  12.2879391  46.6560822  49.3317909  13.2161493
  46.0508881  49.3723984  11.8293991  82.1535263  21.6641846  41.8998337
  81.6852570  21.6255913  42.7337799  81.8129349  22.4486923  41.4699783
  36.7097244  60.6657562  33.3334732  37.6071777  60.8046722  33.6359787
  36.7447281  60.8381500  32.3925781  54.6413574  52.6299896  84.6597061
  53.7051697  52.5502090  84.8425140  55.0498047  51.9562683  85.2033081
  69.9799805  69.3981247  14.6795330  70.5561905  68.6381760  14.5977240
  70.1361923  69.7227859  15.5663366   9.5697432  70.1411209  46.9379234
   8.9158325  70.8229523  46.7838516  10.0267878  70.4223099  47.7305565
  10.1614180  55.7830353  71.0433960  11.0568857  56.1155014  70.9814758
   9.9114962  55.9362946  71.9545898  60.1940536  11.6173878  84.6850739
  60.2832031  10.9267511  84.0283356  60.1554832  12.4276199  84.1768723
  53.3342171  13.9299364  16.0840950  53.0902901  13.0369453  15.8405809
  54.2314339  13.8530865  16.4086361  23.5412140  48.5195122  12.0348625
  22.7488976  48.9179535  12.3950157  23.2940845  47.6116371  11.8590193
   8.2682829  70.9070282  87.3113022   7.7818141  70.1108627  87.5250854
   9.0430079  70.8722763  87.8723907  77.9520950  11.5134611   7.4035549
  77.4095154  11.9055595   8.0877323  78.4815674  12.2389574   7.0725846
   5.8728113  13.7299147  84.9768677   6.7584052  13.3888607  84.8518143
   5.3494153  12.9606485  85.2016296  28.5566635  19.1104584   3.8994181
  28.1571007  19.9057407   3.5471282  28.0083828  18.8787880   4.6490507
   9.2026825   1.6707792  36.3294868   8.2857208   1.6108510  36.5974808
   9.4343653   2.5885248  36.4719582  43.5840378  48.7383270  69.7463150
  43.5134277  48.2593269  68.9206009  43.2202682  49.6025162  69.5537567
  39.7567368  34.8219452  87.7057800  38.9856911  35.3181877  87.4310684
  39.5329742  33.9098434  87.5207443   5.3066630  15.7893887  40.0404739
   5.0032086  16.6941280  40.1152611   4.9400043  15.4815254  39.2116127
  35.0965996  64.0597992  56.2428246  35.6233406  64.4591217  55.5504951
  35.6319237  64.1469650  57.0315323  74.1767807  71.3671188  32.6447868
  73.6991959  71.6852875  33.4108849  74.3820190  70.4554520  32.8520966
  14.8975077  70.4665375  37.5577278  13.9917755  70.2874908  37.8103600
  15.0614939  71.3567123  37.8690720  49.8877144  27.8292484  44.0329132
  49.2077179  27.1557026  44.0198784  50.3828506  27.6542625  44.8331947
  27.1054096  43.0646210  85.5410614  27.6209202  43.8693466  85.5948944
  27.6106110  42.4948959  84.9610519  75.0587006  14.1202536  16.8762169
  74.4649582  14.3518200  16.1620197  75.8744736  13.8751526  16.4395599
  12.8789577   3.8107557  79.4659119  12.4551115   4.4963007  79.9822617
  12.5008135   3.9013321  78.5912552  10.2819223   0.6251172  51.6623077
  10.3643560   1.0698136  52.5059204   9.7870998   1.2363977  51.1166725
  29.6452827  54.6750908  54.8698196  29.1604748  54.8932953  55.6657982
  30.4642906  54.2931175  55.1853447  78.8871155  21.3351269  88.0119629
  78.0573044  21.3323174  87.5348511  78.9311905  20.4708118  88.4209213
  50.1681252  56.1044884  74.8157501  49.5938454  55.9970436  75.5739670
  51.0486908  55.9522247  75.1587524  50.1487579  34.9898224   9.8102589
  49.2372551  35.1173477  10.0731926  50.5660324  34.5954552  10.5761471
  56.0710754  61.2150841  16.2923756  56.5458183  60.5183029  15.8392258
  55.7344933  61.7715530  15.5900326  81.8616714  13.2361498  36.3353653
  81.9642029  13.9267387  36.9901962  81.0899887  12.7474165  36.6215096
  11.3877697  59.0184174  25.4929829  10.7327013  58.3558464  25.2736301
  10.9022913  59.8433609  25.4961681  76.6973114   7.3144436  85.8636627
  77.3374023   6.6788912  85.5433655  75.8800507   7.0712838  85.4287033
  25.8439579  19.7731075  56.3173752  25.1047821  20.3311062  56.0755310
  26.0097427  19.2437611  55.5372849  73.4105911  29.1612778  69.6538773
  72.5045090  29.0492954  69.9414673  73.8597870  28.3757839  69.9660568
  26.4674091  44.1115494  72.9929886  26.6602783  44.1445198  73.9299774
  26.6562786  43.2075691  72.7412415  40.5691757  50.3339157  29.4923439
  40.3183517  49.4979591  29.0992775  41.5205727  50.2801476  29.5828495
   4.3734226   8.2287626  84.2714462   5.2085643   8.2479954  83.8041153
   3.8590331   7.5627046  83.8153763  54.9612808  50.2469330   2.8921239
  55.0519943  51.1644936   3.1491961  55.1719322  50.2378387   1.9584351
  44.4202042  17.8094921  29.2985439  44.0799789  18.3224182  30.0316086
  45.2931786  18.1685543  29.1397247   3.7188768  35.3367119  45.9573097
   3.3680527  35.7889938  45.1901131   4.5251632  34.9259071  45.6452637
  52.6381035  59.0216866  84.3027191  51.9368858  59.6458206  84.1156769
  52.6172295  58.4102821  83.5665283  76.9397125  58.0470772  33.6147728
  77.1039886  58.6846962  34.3095284  77.1304474  58.5206299  32.8050804
  59.0387115   3.7623465  70.2218094  58.5110474   4.1052070  69.5005264
  59.6754150   3.1855743  69.7997055  11.3466864  50.1309242  67.3188782
  11.8063116  50.9479370  67.1253128  11.3879528  50.0529175  68.2720032
  78.1917191  26.8497715  31.4283524  79.0186005  26.6571026  30.9863415
  77.5334244  26.8054409  30.7348671  65.1202621  21.7174397  83.2197800
  64.7897186  22.5944595  83.0253372  65.3765259  21.7568989  84.1411972
  57.5788841  62.8465118  34.1497917  56.6258926  62.9197655  34.0980568
  57.8700714  63.7106323  34.4408875  81.3631058  36.2329865  55.7217293
  81.0158768  35.3506622  55.5907135  80.5869751  36.7911758  55.7694550
  74.6197968  30.4170551  54.2406311  74.0721054  31.1329842  54.5626717
  75.1274490  30.8056412  53.5282211  86.3004303  43.7938042   6.5127606
  85.7246323  43.0751305   6.7739120  85.8061829  44.5857239   6.7244697
  25.0992527  35.2947617  75.8936005  25.0927372  36.0059128  75.2529373
  24.2062511  34.9504509  75.8783417  50.3296242  68.2427521  17.0202351
  50.2502174  67.6839066  16.2471809  49.9878082  67.7091675  17.7376461
  71.7355347  39.3452377  29.3466110  71.1525574  39.7958260  29.9576283
  72.0025253  38.5520134  29.8110905  55.9650574  62.1410866   1.6531385
  55.3720055  61.4785156   1.2988516  56.3985291  62.5104866   0.8838031
  48.9197464   1.0275792  43.8919640  48.1815338   1.1765586  44.4827919
  49.1771927   0.1200766  44.0544243  35.1184425  64.6546860  51.9626503
  34.5170860  63.9263458  52.1179581  35.5204506  64.4571609  51.1167183
  70.8207855  36.7091446  42.1469345  70.5916290  37.1799278  41.3456345
  71.7237625  36.4239273  42.0072403  55.7244987  42.1833153  87.1904526
  55.0496864  42.7490501  87.5656967  55.2454376  41.5911980  86.6106873
  18.3070278  52.3737602  30.6621056  19.0863914  52.5944176  31.1721382
  18.0960140  53.1776428  30.1872578   6.2966795  29.4342918  44.7936630
   5.5276308  29.4580002  44.2242470   6.4314327  30.3459969  45.0522461
  49.4709015  44.0971069  33.0513268  49.5079994  44.3761711  32.1364594
  48.5431786  44.1511230  33.2807770   1.2990279  10.6537218  38.9189949
   0.6373094  10.7427244  39.6048813   2.1240721  10.5531092  39.3937721
  39.6273232  34.7013206   5.2721124  39.7945862  34.3732605   4.3885794
  38.7154312  34.4677544   5.4456873   8.0696297  52.9511642  17.3736172
   7.7719660  53.8186302  17.0995159   8.9921474  53.0741348  17.5973816
  82.4730377  11.7205257  63.0356636  82.6819534  12.6037855  63.3396988
  81.8209076  11.8521090  62.3474464  81.3269501  42.0621185  40.7270813
  80.7463989  42.5594673  41.3031349  81.7559204  42.7264977  40.1878128
  60.7971001  68.0370407  88.4021149  61.5105820  67.6465836  87.8974152
  60.3492317  68.6101379  87.7798615  74.8113480  62.0180283  74.7053223
  73.8749466  61.8196526  74.7104797  74.8660583  62.9063148  74.3529282
   4.8735147  36.6784897  18.8677788   4.2974415  37.3119545  18.4398804
   5.5201654  37.2146416  19.3267078  75.4476700  56.0823975   3.0073807
  76.2164307  56.0977135   2.4372842  75.2861176  55.1524773   3.1666970
  32.9070587  59.6578636   1.7750082  33.7673378  60.0303078   1.9684873
  32.5999756  60.1478615   1.0122288  30.6664982  58.1603355  13.8632126
  30.3228645  58.6664619  13.1270161  31.2579288  58.7635612  14.3132753
  81.7070541  66.9919434  20.2302685  80.9549255  66.4315872  20.0391121
  81.6095963  67.2161942  21.1557140  49.1841812  43.9046898  80.2400208
  48.7176666  44.7382622  80.1787262  49.0401230  43.4866104  79.3910828
   4.4903183  25.7029724  38.8386536   3.8933604  26.3747807  38.5091896
   4.3828192  24.9693241  38.2333145   7.7229567  59.5613823  27.6705093
   8.2405653  58.8975029  28.1261158   7.5448327  60.2251129  28.3368168
  59.1783333  26.4942780  11.4446344  58.5355835  27.2023354  11.4865913
  59.9570198  26.8999405  11.0634260  39.3459358  24.6535645  82.7812881
  38.6044655  24.0769272  82.5970612  39.8760681  24.6239243  81.9848480
  72.5280685   4.0537004  69.0046387  71.7882385   3.9958804  68.4000397
  73.2939682   3.8563550  68.4654922  50.8321419  11.5086536  26.9905281
  50.1877785  10.8038406  26.9252071  50.4582901  12.2234745  26.4752636
  29.7085896  68.3743210   4.0259089  29.0303783  67.9388275   3.5095649
  29.3352089  68.4401550   4.9048200  63.3586769  37.9608345  64.2884903
  63.0672379  37.6333504  65.1393967  63.1891785  38.9022636  64.3233261
  71.3444824  10.1774883  40.9025536  71.2172623  10.4192820  39.9851761
  71.3070602  11.0082140  41.3766098  80.3738480  47.7853279  62.6706696
  80.1960373  47.6982231  63.6071701  80.7940292  46.9599724  62.4288750
  53.2621460  63.7910881  11.3843031  53.6560249  64.0539474  10.5524397
  53.9310951  63.9898834  12.0394564  54.8402405  64.4502640   9.0925379
  55.5248337  63.9702225   8.6265717  54.1241722  64.5195541   8.4611292
  11.6296406  12.3021784   2.7656379  12.3912859  11.7484350   2.9373825
  10.9699383  12.0028572   3.3912840  24.6991520   8.2241220  66.5703735
  25.3037720   8.7293024  66.0268173  24.3347263   7.5676575  65.9766769
  72.1158676  49.5110855  20.8107605  71.5364456  49.0655479  20.1927032
  71.5465469  49.7525368  21.5413799  13.5771513  32.7758217  75.3481293
  14.1900072  32.0441475  75.4208755  13.7985744  33.1917915  74.5149612
  56.8048096  27.2119484  26.2783756  57.7162704  27.3637772  26.5282211
  56.6888695  27.7196178  25.4752178  66.6671371  28.3489132  39.3628082
  67.3459549  28.9565811  39.6563721  67.0551910  27.4817276  39.4795914
  52.9759941  26.7538834  62.8938522  52.8320580  26.8627644  63.8338814
  52.3867035  26.0428371  62.6420937   3.4708376  18.4934559  57.5340958
   4.2806997  18.3121014  57.0571632   2.7878516  18.4702778  56.8638535
  54.2388000  56.6142807  58.5592613  53.3414040  56.3401604  58.3701401
  54.5166016  56.0457039  59.2774391  64.9102859  24.8425922  54.9489479
  64.5443039  25.7229004  55.0346336  64.5375061  24.5065155  54.1338882
  60.0647469  32.6377182  78.9700546  59.8108482  33.0916138  78.1664734
  59.3210983  32.0688171  79.1689758  71.6474609  70.1010666  51.9860687
  71.5027008  70.0966492  51.0398903  71.0692978  70.7900391  52.3136063
  35.4495811  68.7328262  82.3668518  36.3692398  68.8865204  82.1504288
  34.9731560  69.4041367  81.8783951   9.7001228  26.9086323  84.1474991
   9.3511982  26.0417156  84.3547134   9.4341993  27.4566174  84.8858948
  45.6318321  51.7150421  13.9477930  45.5355148  50.8444939  14.3339252
  45.8676643  52.2790108  14.6843748  19.3653870  61.0434265  44.1305580
  19.6487198  61.8261681  44.6030731  20.1700802  60.6857376  43.7553825
  13.0320110   0.1421586  13.4738722  13.3064356   0.3291494  14.3716230
  12.6774483   0.9717689  13.1540842  48.8149071  50.0805092  29.4348621
  49.0989761  50.6133308  30.1775856  49.3329773  50.4023743  28.6971397
  54.3432045   8.6338129  79.7900314  55.2906303   8.6593018  79.6559830
  54.0516434   9.5274811  79.6095276  12.4285374  48.7601814  16.0798531
  11.7693138  48.0762329  15.9620867  13.0420551  48.6285095  15.3570194
  74.2411957  47.9952202  57.2814178  74.8813324  48.4058113  57.8626862
  74.0662689  48.6569138  56.6122437   9.9836521  71.2928772  60.7027206
   9.7237024  72.0769196  60.2190628   9.1645031  70.8204346  60.8511353
  34.5686264  67.9930573  28.1659927  35.4403801  68.3379364  27.9727745
  34.5868988  67.0957260  27.8332939  82.5792923  50.4783134   4.9168701
  83.1433792  49.8901215   5.4189286  82.4798355  51.2493553   5.4752917
  25.8932190  23.3173027   7.3401084  25.9000359  22.6250381   6.6790833
  26.6298428  23.1075230   7.9142246  65.7715683   3.0296588  57.5414886
  65.6942749   3.0650101  58.4949074  65.1867294   3.7195466  57.2280388
  17.8819370  51.2798500  67.8531113  18.3878384  52.0786858  67.7042542
  18.1347847  50.9964561  68.7317429   4.1245933  18.6355247  80.7738571
   4.5256710  17.7887421  80.9696350   4.4890189  19.2304077  81.4292526
  32.8881836  53.3507652  55.2458992  33.5354843  53.8021431  55.7876434
  32.9559784  52.4323425  55.5069275  52.4145203  12.3626099  88.1427231
  51.6142197  12.7787867  88.4629593  52.4607391  11.5338287  88.6193924
  55.9313393  66.0756683  74.1234055  55.1373253  66.2640228  73.6231079
  55.7653923  65.2221756  74.5237045  36.1471138  36.2713661  83.1307068
  35.2371597  36.3913498  83.4024124  36.4277649  37.1401596  82.8431854
  85.9755707  15.0500956  11.7630377  85.4775314  15.4667864  11.0597897
  85.6703110  15.4817438  12.5609894  72.6516418  38.2445869  69.4050827
  73.0133743  37.3708000  69.2571487  73.2362671  38.8304024  68.9241791
  31.4327183  57.7743378  51.8309631  31.3617649  58.6894836  52.1024513
  30.6668663  57.6292572  51.2753983  40.7746964  23.7560768  72.3049850
  41.0361252  22.9660683  71.8319397  41.4950714  24.3700447  72.1623917
  31.4982357  42.4573822  47.4895630  31.2683182  41.8834839  48.2203217
  30.6637554  42.6427155  47.0588303  65.3845520  14.1076946  47.0648918
  65.6005249  14.9731407  47.4121513  64.7036362  13.7775202  47.6510429
  73.8039474  54.5450897  63.2206879  73.3500900  53.7310562  63.0025177
  74.2249756  54.8110695  62.4032402  72.3065567  65.2910233   9.3232422
  72.1230698  64.6058655   9.9659948  72.9849243  64.9166718   8.7611761
  36.0649834   3.7123711  20.1220264  36.8818169   3.9605470  20.5549507
  35.4312668   3.6310251  20.8347797  28.2864132  54.9115944   0.8801887
  29.1792545  55.1365395   0.6185260  28.0804691  54.1240501   0.3766051
  39.7195282  42.3254166  11.0427599  38.9782715  42.2906647  11.6473780
  39.6623688  43.1934433  10.6433935  85.9974060  29.8434563  51.4144211
  86.8559952  30.0256729  51.7963257  85.5904312  30.7044773  51.3182449
  11.1803665   3.6422777  23.9564190  10.6987162   4.4561677  23.8086777
  11.6292706   3.4757900  23.1275654  60.4369926  37.0031662  11.6008301
  59.5383606  36.6982269  11.4754972  60.6093597  36.8642883  12.5320835
  53.0928383  66.5489349  48.9009628  52.6139679  65.7500076  48.6804276
  53.7897682  66.2560806  49.4881248  48.5181198  17.6439457  21.7792587
  47.6052399  17.3627090  21.8407936  48.9469299  16.9558945  21.2703991
  16.2607441  25.2786312  22.3099823  16.7428951  26.0167503  22.6827316
  16.8900394  24.8498440  21.7300167  12.9907341   5.2727256  46.7451630
  13.5443583   4.7145734  46.1990852  12.9939852   4.8476324  47.6027870
  53.9681473   7.4971395  39.7299728  54.3405228   8.3132200  40.0640106
  54.7277336   6.9427953  39.5511856  36.6510201  15.9508324   1.9317067
  35.9432945  15.4968967   1.4742153  36.2543411  16.7667618   2.2368929
  62.6382141  42.3506584  84.2534409  62.7347641  41.8918877  83.4189072
  62.2192764  43.1800880  84.0237198   6.5377049  29.0372772  49.2316895
   7.3627858  29.4430256  49.4978523   6.0271764  29.7555542  48.8579597
  49.7470665  52.9988594  64.4537506  49.2060051  52.4959564  63.8450050
  50.6420288  52.8740845  64.1379929  84.9746094  19.3710175  84.2303238
  85.7399673  19.9085827  84.0266571  84.3577957  19.5542374  83.5216599
   4.7616568  27.1297169  41.1787910   5.0821633  28.0027332  40.9521866
   4.7103834  26.6686115  40.3415451   6.5902705  62.5454178  33.3498459
   5.6477423  62.4149551  33.2456703   6.8624725  62.9811020  32.5421829
  70.0669937  59.6533623  51.3691254  69.3420486  60.2781601  51.3513908
  70.6438065  59.9355469  50.6592751  21.8141060  14.3015699  74.8694611
  21.3243771  15.1014576  74.6782150  21.4374027  13.9801798  75.6886292
   4.2326980  11.6831942  18.2018051   5.1455464  11.4352283  18.3482723
   4.2665348  12.6210699  18.0134544  70.5351562  63.3359528  51.9043770
  70.5994415  62.5137711  52.3902931  71.1626129  63.9175529  52.3336487
  41.2178841  69.5101700  41.6158485  41.5921707  68.8436813  41.0397110
  41.8840027  69.6456833  42.2897606  21.5656147  53.2790451  50.5237770
  21.8108978  52.6325035  49.8619194  20.8156796  52.8892097  50.9730568
  80.1486816  31.1459637  82.1494370  79.7370911  31.6150932  82.8752060
  80.3576279  30.2839298  82.5092545  11.2204208  28.1186485  69.0354004
  10.4733524  27.8042831  69.5446091  11.8340092  28.4510384  69.6905746
   6.1749687  61.4417648  85.5099411   7.0973754  61.4615707  85.2549820
   6.1152573  60.7211494  86.1371384  47.1721573  71.2922058  65.5202866
  48.0173759  71.5746384  65.1709061  46.5318947  71.6074142  64.8823700
  10.8553982  58.8638306  80.3705521  10.6524982  57.9362869  80.4919052
  11.1027985  59.1709900  81.2427216  30.9248180   4.8814254  55.0831337
  30.2898884   4.2993851  55.5006561  31.2164536   5.4616380  55.7863655
  73.8737640  28.6214790  23.1160374  73.7091293  29.5206776  23.3998795
  74.8254547  28.5276566  23.1575699  25.3161869  31.7197380  51.0200539
  24.6960106  31.5349274  50.3147469  24.9560833  31.2643242  51.7810783
  34.9544258  31.6940117  10.3831291  34.7384453  31.7932358  11.3103495
  35.4195023  32.4997711  10.1579800  29.1149731  59.1393967  52.9078217
  28.2353325  59.0957756  52.5329056  29.5088882  59.9132500  52.5050697
  48.2068291  12.6812115  62.9982376  48.9097443  12.0703144  63.2194710
  47.7353554  12.2548361  62.2825890  60.8030739   4.0420942  64.7480545
  59.9108124   4.2039962  64.4416428  60.8242607   3.1043944  64.9391098
  64.2988892  33.7151489  20.2259312  64.2888336  34.6564217  20.0523186
  65.0828781  33.5780487  20.7577171  30.4532204  46.0804405   0.8857442
  29.7427826  46.1126671   1.5264255  31.1623573  45.6227493   1.3372717
  41.2955894  61.9194603  75.5591278  40.7488556  62.7051506  75.5579147
  41.7255440  61.9255295  74.7039490  19.4267464   2.4620240  10.0582914
  19.8318539   2.8726232  10.8221827  20.1130657   2.4678211   9.3910856
  31.5782948  60.0759697  59.7578468  30.9277668  59.4364281  59.4679604
  31.3788223  60.8654251  59.2546577  85.8857727  33.6898651  76.9958496
  85.0192795  33.9955177  76.7275238  85.9321976  32.7893791  76.6746063
  19.7911301   0.6888006  46.4350395  19.7283955   1.3420186  47.1318932
  19.5430946  -0.1345532  46.8555145  43.2221870  20.6978378  64.2461014
  43.0847702  20.5851517  63.3055382  44.1722260  20.6577187  64.3558578
  72.3353043  54.6383133  70.4660416  73.2108841  54.3780174  70.1799622
  71.7457886  54.2395134  69.8259964  86.3040161  51.3181305  28.3312569
  87.0891724  51.5343781  27.8282738  86.4864960  51.6447105  29.2123222
  55.8812943  51.2279015  16.3909950  55.1588287  50.6005783  16.3638134
  55.7078171  51.8246918  15.6629992  68.0697479  60.3781395  18.0887470
  67.7777557  59.7338142  18.7335873  67.3635864  61.0236282  18.0584354
  62.7777100   0.6453762  71.7290726  63.3239899  -0.1245785  71.5710220
  63.3884850   1.3819118  71.7025986  86.7714157  19.2730122  61.4743690
  87.4849014  19.9061852  61.5535011  85.9878464  19.7626362  61.7244110
  57.8588982  22.1609764   5.2219291  57.0726929  21.9733562   4.7091794
  58.0106697  23.0973301   5.0937181  22.9639072  66.3773804  64.0445633
  22.6929607  67.2116394  64.4277420  23.1351490  65.8121948  64.7978745
  54.2934532  16.0710087  60.9600296  54.4999046  16.9473972  60.6351433
  53.6608467  15.7250500  60.3304634  15.2939978  63.1167603  50.1213226
  16.1341095  62.8944473  49.7200508  14.6657467  63.0752296  49.4003448
  16.4271984  19.7479572   2.9114726  15.9627552  20.5152397   3.2458391
  16.2352657  19.0567913   3.5452588  79.7453613  54.4433784  62.0426102
  79.5495071  55.2526169  62.5148430  79.0209274  54.3453331  61.4246941
  68.6441116  19.0992546  35.2003517  69.2850876  19.4656029  34.5911179
  67.9706345  18.7166100  34.6379967  62.2743340  70.2715988   5.0082259
  63.0181999  69.7073746   4.7971625  62.6414757  70.9499207   5.5750737
  37.4457092  14.5094357   9.2404423  37.0431252  15.3206100   9.5505323
  38.2325935  14.7948313   8.7761250  15.9715490  46.7576675   9.0948420
  15.1402893  46.9903755   8.6812162  16.1137028  45.8435287   8.8491249
   3.4496686  55.3957748  61.1652412   3.4985349  55.8146935  60.3059692
   4.3628345  55.2851334  61.4300423  21.7999268  27.0334530  26.9423122
  21.5217552  26.3599968  27.5630455  21.3030281  26.8452702  26.1461277
  55.5963402  10.4221087  88.5818634  56.3820992   9.9410954  88.3221664
  55.9028091  11.3155298  88.7371292  60.1290398  44.5229340  49.9913483
  59.9192886  43.7763977  50.5525284  59.8890648  45.2891655  50.5124321
  33.0228348  70.6189575  77.8672943  33.0085106  69.7670975  77.4309921
  33.9524841  70.8347702  77.9408646  41.0166283  70.8465576  35.2889862
  40.6160469  70.1398697  35.7953072  40.3130836  71.4846268  35.1701393
  77.6609726  57.9586372   5.5740509  77.7218170  57.0145836   5.7199712
  77.0860443  58.2723274   6.2721066  19.9895515  45.7934113  51.1518517
  20.0718460  45.1980171  51.8968124  20.8725834  45.8423347  50.7856598
  71.4147339  56.5319939  74.2720795  70.8012848  56.6408348  73.5454025
  72.1499405  56.0490799  73.8945923  44.3069572  70.6094131  39.9977036
  44.6316757  69.7217102  40.1485748  43.7793350  70.5394592  39.2021179
  13.7611303  52.3101006  14.6609564  12.9738522  51.8009605  14.4680786
  14.4478731  51.8966751  14.1377983  42.8484268  29.7030392   2.1032441
  43.6263275  30.2598553   2.0706964  42.9450493  29.1126404   1.3560328
  63.0708618  40.9347572  51.9645920  62.7419701  41.3831520  51.1854858
  62.8320236  40.0174065  51.8317184  10.9086809  55.6315842  43.4479294
  10.4997892  55.9322701  42.6363716  11.1883230  54.7361145  43.2577553
  18.0029182  45.4487762  29.1773815  17.1127586  45.0992508  29.2183475
  18.5421524  44.7011642  28.9194374  19.1425667  59.6400337  53.2071915
  19.9119377  59.8436852  52.6753769  18.4041672  59.7311859  52.6049538
  74.9270935  29.7188187  59.5224915  75.7741013  29.3448677  59.7653351
  74.3871460  28.9616642  59.2957764  65.0000992  34.5987396  16.1643391
  65.2986069  35.1843948  16.8601360  65.7834625  34.1116371  15.9087696
  71.4525528  31.9333725  36.5269814  71.3924713  32.8168602  36.1635628
  71.7684784  32.0631866  37.4211731  62.9983521   2.8633785  52.4723434
  62.4496307   2.2362332  52.0013580  63.5803223   2.3204184  53.0040703
   0.7909655  22.5711937  78.6835175   0.6752120  22.1044598  77.8558731
   1.7336854  22.7268105  78.7409134   4.2837315  28.6254520  29.7891350
   4.9741559  28.2467995  30.3333473   4.7404013  28.9453926  29.0111103
  26.8351269  41.8503075  87.8737564  26.9094028  42.3054314  87.0349655
  26.5407505  42.5240974  88.4866028  35.6866837   2.5474095  67.3277359
  36.5923920   2.7690866  67.1114502  35.7434616   1.6873006  67.7439346
  30.0772209   5.1860919  25.4729939  29.5746384   5.5623336  26.1955471
  30.9866657   5.2224693  25.7693386  35.0656242  70.9528275  72.0293732
  34.1387634  70.8527451  72.2465057  35.1978340  70.3801117  71.2738953
  83.3640976  51.8434830  57.0918350  83.2489700  51.7836113  58.0401993
  83.9063263  51.0870514  56.8681602  65.4332047  10.8316069  53.0924301
  65.3878632   9.8756456  53.1101494  65.7774124  11.0710497  53.9529076
  86.5654678  15.4292049  24.1834431  87.1837692  15.1692142  24.8663349
  85.8026199  15.7537289  24.6619663  45.8266068  59.9872780  55.2106934
  46.1736908  59.0967827  55.1579514  46.2710571  60.4596558  54.5067368
  67.1582031  61.1122780  59.3923035  66.4258118  60.4960899  59.3801117
  67.3895874  61.1910133  60.3177719   1.7741109  48.3063850  14.0890083
   2.5683022  47.7723656  14.1067982   1.9558128  48.9842377  13.4380636
  72.0779495  49.1444092  65.8701553  71.8788605  49.8402901  66.4965286
  71.8724060  49.5248260  65.0161819   3.9085195  25.6467075  56.6494827
   4.3980951  24.9036312  57.0021629   3.5857418  26.1095505  57.4226723
  61.3983765  44.7335892  23.4876919  61.8167534  45.5905991  23.5696983
  60.6027946  44.9027557  22.9830456  57.6232262  63.6518669  56.4631233
  58.2256279  64.0324478  55.8239822  57.9792480  62.7808685  56.6387444
  24.2629604  55.6982574  12.3378258  25.1194668  55.8920364  12.7187147
  24.2503300  54.7452545  12.2491655  28.4036655   2.9368999  80.7845459
  28.5648537   2.0014420  80.6613846  28.2600937   3.2736795  79.9001236
  46.7763596  52.4570427  73.6473846  47.2768936  52.8150215  72.9142075
  47.3927689  52.4545479  74.3796844  78.5806961  39.1589813  43.3092537
  77.7828217  39.5186806  43.6968575  79.2092438  39.1382408  44.0308685
  62.7302971  45.4324532  68.5352631  62.3262215  46.1874352  68.1075287
  62.4181900  45.4738731  69.4392014  65.4474487   9.5446186  47.8521805
  64.5453644   9.8438349  47.7384109  65.3634415   8.6657162  48.2219162
  66.3064117  21.5077057  21.0889854  66.6455765  20.9238682  20.4105072
  65.4811478  21.8358784  20.7319527  36.2555275   0.8308630  17.1317463
  36.0489464   0.3038075  16.3598843  35.9399185   1.7079859  16.9143047
  64.5238876  17.1823578   5.2518239  65.3593292  17.0339642   4.8088346
  64.4618683  16.4719658   5.8903599   5.9042788  31.8380890  14.7604837
   5.4604001  31.8567295  15.6083384   6.4839492  32.5996323  14.7768173
  14.9583263   5.2588487  58.1983757  15.0138865   5.8225207  57.4267426
  15.1550245   5.8392859  58.9336548   0.5429521  51.2011414  35.4280319
   1.2448317  51.5257950  34.8639412   0.0179714  50.6393623  34.8579140
  57.5864029  31.4293842  12.5453634  57.8465080  30.5514297  12.2664843
  56.6726532  31.3344097  12.8141994  79.9768906  45.1114159  49.0535240
  80.2798309  45.3935127  49.9165916  79.7213440  45.9217453  48.6127319
   4.7637396  51.1420593  84.6158829   4.2307048  51.9348602  84.5561295
   5.4780936  51.2863998  83.9953232   3.4177191  25.9607582  62.0990448
   4.1861663  26.1731720  62.6287613   3.3710296  26.6644211  61.4518127
  56.5004082  17.8612728  32.6984634  55.9852180  18.5516300  32.2810707
  57.3532600  18.2641621  32.8614273  45.9926720  55.7724495  30.1968708
  45.4660187  55.1739311  30.7266273  46.8780975  55.4108772  30.2358456
  34.2835007  39.7718353  55.8305244  34.6599541  39.3347969  55.0666428
  34.6255264  40.6648445  55.7882881  17.9651909  50.9730606  23.3870869
  17.5298996  51.8193512  23.4897690  18.8959541  51.1675644  23.4969978
  20.1724625  22.2911625  74.2781296  19.3950615  21.7653618  74.0899429
  20.7962685  21.6702309  74.6543503  16.9267693  35.3013039  53.7772369
  17.6296272  35.2093811  53.1339874  16.6293278  36.2058411  53.6793785
  36.0240021  18.1384926   4.1796165  36.4330482  17.8151665   4.9823456
  35.7977905  19.0477161   4.3755054  50.9383736  32.2056046  17.7211819
  51.0959740  31.6692886  16.9441624  51.7842484  32.2338181  18.1683254
  31.5887508   0.5013427  83.4437027  32.2724609   0.0369356  83.9265060
  31.9966621   1.3282149  83.1865616  77.0473633   2.9571328  79.2901688
  77.3759155   3.0583622  78.3968353  76.5780945   2.1229234  79.2796860
  25.4052181  23.0031261  61.7772484  25.1190300  23.3783188  62.6100502
  24.6521244  23.1081791  61.1958313  80.3242035  60.0134277  59.8884087
  79.7019577  59.2942429  59.7797089  80.1062164  60.3920898  60.7400703
  36.3703613  26.1878853  78.1096115  36.8817139  26.9622288  78.3444290
  35.6717911  26.5234871  77.5478287  75.3860321  16.2534447   0.7807990
  76.1176987  16.6990108   1.2078384  75.2035065  15.5002270   1.3425643
  54.2552872  23.7062435  76.9669342  53.3651276  23.3602829  77.0314178
  54.1475677  24.6559029  77.0196152   0.0715451  31.2419758  59.5212212
   0.6359921  30.6129894  59.0717697   0.1073131  32.0280342  58.9761810
  40.6601601  14.2744637  57.7666817  41.5642624  14.0396461  57.9757195
  40.1365929  13.5628004  58.1349792  81.8445511   6.1742563  85.7192917
  82.2725830   6.6863680  85.0331726  81.7004623   6.7991204  86.4299316
  51.6476860  13.1049385  53.7692413  50.9963188  13.4117355  54.3999748
  51.1481018  12.5763798  53.1469307  69.8128891  55.2211723  18.8008995
  70.0053482  55.2614098  19.7376862  69.4437866  56.0800323  18.5951080
   5.0436859  45.9842606  58.6450920   5.7692776  46.1391640  58.0403175
   5.1191707  45.0588303  58.8777084   0.3348165  46.6163368  29.0387573
   1.2124431  46.9618835  29.2018490  -0.2259804  47.0856781  29.6563778
  80.0553131  11.4748468  58.1595497  79.7675095  11.4977264  57.2469292
  79.9647980  10.5571756  58.4162979  25.3275738  46.8699112   0.7607177
  25.3645611  47.8242455   0.6966339  24.4710312  46.6888657   1.1477456
  50.8467026  37.7859001  35.6902924  50.6179886  37.8172722  36.6192360
  50.0058670  37.7113495  35.2389908   3.2048128  10.6619167  28.4062080
   2.7061231  11.1739044  27.7694912   2.6284158  10.5999470  29.1678905
  75.1563492  12.3542604  88.7916794  74.2369385  12.3239861  89.0562439
  75.2513428  11.6305561  88.1724396  80.7634735  47.4149780  87.7358932
  81.6595230  47.0890541  87.8201523  80.2136002  46.6479416  87.8956451
  44.3678093   5.9190912  14.5516062  44.0774879   5.0562458  14.2558975
  43.6504250   6.5071287  14.3153868  35.4271584  61.9957733  10.7681818
  35.6646996  61.3211899  10.1319904  36.2477074  62.2026787  11.2155323
  21.1979465  32.3471680  14.6550732  22.0512543  32.7789230  14.6961403
  20.8002872  32.6786690  13.8499622  48.4952927   5.3360505   3.2714996
  48.8310928   6.1983142   3.0266118  48.5504646   4.8202195   2.4670706
  62.7831230  29.4677505  72.1814728  63.2537880  30.3004742  72.2172165
  63.0030518  29.1049576  71.3234253   6.9664993   5.8409429  77.4114227
   7.0252600   6.2396560  76.5432053   6.1063366   6.1045499  77.7383194
  47.2686958   7.2834687  27.7883644  47.2154884   8.0125313  28.4063187
  48.0603790   7.4581223  27.2794762  69.6594772  32.0249176  71.6725998
  70.0330811  32.0668373  72.5528870  70.0889587  32.7353287  71.1960526
  68.9563751  29.3649273  19.1851158  68.4713516  28.8044510  18.5794315
  69.6426468  29.7606869  18.6478615   4.2916732  34.3316917  42.9272919
   5.1831284  33.9926414  42.8461533   3.8848543  33.7786293  43.5942612
  19.7234478  10.1230335  16.8502998  18.9633694  10.6448374  16.5929413
  20.4301701  10.4341011  16.2846031  46.2063255  25.2276630  75.0451813
  46.9406052  25.7074413  74.6619263  45.4504776  25.7994328  74.9110031
  41.3033981  66.9167480  66.8501968  41.9789276  67.4672623  67.2462006
  41.4357452  66.0544891  67.2441864  81.1864395  65.6459732  72.9089050
  82.1362457  65.5282974  72.8930893  80.8338623  64.7609406  72.8159180
  39.9574661  70.8181763  56.5822220  39.0020981  70.8317566  56.6397972
  40.2431831  70.4648819  57.4247093  41.3389664   3.6962523  84.9961014
  41.3586159   2.7941551  84.6766205  42.0893440   3.7573924  85.5872269
  13.8008442  61.7568855  67.5862427  14.6431293  62.1924362  67.7169418
  13.1498289  62.4311752  67.7805252  18.5842495  23.7459698  11.3673515
  18.8432865  24.6381702  11.5978136  19.3387432  23.3914680  10.8969259
  42.9782219   0.0082290   3.7704668  43.8376465  -0.3458371   3.9990582
  43.1607246   0.6646749   3.0981553   4.9837909  59.9107590  15.5903225
   5.6339970  59.5618782  16.2000332   5.4620919  60.5616112  15.0766602
  36.5065155  37.9511375  61.6645088  36.0482864  38.0608864  62.4977036
  36.1066017  37.1752930  61.2716064   8.7449799   1.5743192  41.7850876
   7.9633756   1.7232883  42.3171921   8.4614162   1.7513205  40.8881493
  64.8001633  58.2489777  64.4254837  65.2048798  58.8649864  65.0362015
  65.4507751  57.5550156  64.3189163  28.8777695  39.9751129  11.5643826
  29.3275261  39.4157295  10.9311056  29.2655182  39.7418175  12.4078608
  67.7909241   6.4597030  61.7600937  66.8870773   6.2869487  61.4965553
  68.0089569   7.2905040  61.3376427  63.3470612  56.4211273  20.1399975
  63.4962196  56.9347343  19.3461533  63.7037163  55.5564995  19.9364052
  44.7987366  15.3860083  49.9103012  45.5998459  15.4000549  50.4339981
  44.2664223  16.0967121  50.2677536   6.2974114  43.0575180  76.3247681
   6.9664350  43.3579597  76.9398880   6.5300961  43.4746437  75.4952469
  51.4754410  38.1531487  69.7689438  51.1943169  38.2010155  68.8552170
  50.7774353  38.5894623  70.2574615  79.5561600  51.3266754  24.4096622
  80.0764389  50.7772102  24.9958591  79.1097641  50.7063560  23.8333225
  61.9892807  36.4067154  26.3688755  61.4741974  37.2133942  26.3826790
  61.3592033  35.7241478  26.1379280  57.5035782  27.7322102  30.1592159
  57.1281929  26.9516335  29.7517605  58.0911636  28.0905914  29.4939804
   7.8342509  56.9736404  56.1656609   8.0511723  56.2257805  56.7223282
   7.0048757  56.7325172  55.7530708  18.2180653   5.1197143   7.2406039
  18.6743660   5.4827256   7.9997125  17.6657581   5.8362498   6.9279294
  69.3587036   0.7452313  43.4852638  68.5186081   0.5040618  43.8755302
  69.6418228  -0.0422814  43.0206146  40.8882027  65.3069687  79.6020966
  40.6116791  66.0511398  79.0673294  41.8386269  65.2738800  79.4933090
  73.8562241  24.4938850  80.4555359  73.7871475  25.2016773  79.8148422
  73.1407242  24.6565552  81.0702133  83.9716492  65.4682541  71.7823715
  84.0874710  65.9378128  70.9563370  84.7088089  64.8586349  71.8167419
  10.9305964  19.6007118  71.0348740  10.6856508  19.0159721  70.3177185
  11.0274401  20.4587708  70.6218567  83.2256546  13.4886646  46.8544807
  83.0870514  13.6037197  45.9143829  82.6411972  14.1274137  47.2626915
  54.3811646  28.9272785  61.6509933  53.8817940  28.1861763  61.9939651
  55.1845932  28.5363522  61.3076172  23.9475288  68.3846512  81.7356110
  23.5005322  69.1510544  82.0948563  23.5287361  67.6394043  82.1662369
  36.7501411  50.4025764  22.6948128  36.8195267  50.8882980  23.5166950
  35.8095741  50.2761841  22.5699673  11.7276039  21.6496544  12.9337788
  12.2221947  22.4680862  12.8915834  12.3967247  20.9651775  12.9338942
  83.5573044   9.8537188  77.3860245  84.3734283   9.3853598  77.2104645
  83.5617676  10.5832615  76.7663651   3.8501260  29.6990948  43.0136108
   4.6145420  29.6664906  42.4384270   3.1991591  30.1967812  42.5188560
  19.1002560  35.2003670  65.4075394  18.8702583  34.4410324  64.8720551
  18.8820057  34.9377823  66.3017731  50.8345222   9.1413136  60.0915756
  50.8900185  10.0603752  59.8298950  51.7434731   8.8778868  60.2352600
  22.0944481  67.5508423  16.0655994  22.0118580  67.8430481  15.1578407
  22.2510624  66.6087799  16.0006599  47.1118698  20.9059544  75.5896454
  46.3021393  20.6914730  76.0528564  47.7645836  21.0069447  76.2824631
  51.5774040  60.0519180   1.2473662  51.4163818  60.9705582   1.4627794
  51.1600800  59.9291382   0.3947253  86.8224487  24.0468197  18.5522556
  87.1787796  23.6258106  19.3345661  86.1193314  23.4639111  18.2657642
  22.0278568   5.1610603  31.8231869  22.1465969   4.4715571  32.4764252
  22.7964306   5.7224388  31.9250660  13.8816004  49.0187302  18.5417671
  14.6185856  49.4758682  18.1366653  13.2236290  48.9638367  17.8487358
  51.0758133  19.9844875   3.2126288  51.3720093  20.5592861   2.5068626
  51.4832191  20.3435421   4.0008750  29.2225475  51.8820801  57.4946213
  28.4982262  52.5005188  57.3991089  29.6391678  51.8662491  56.6329918
  73.7150345  27.4669743  25.6818638  73.8305435  26.5437889  25.4568863
  73.8710175  27.9347610  24.8614521  42.7590675  69.0893097  84.5615768
  43.3304024  69.7670059  84.2002716  43.3490486  68.5120316  85.0462494
  42.1754837  26.2788086  74.6561813  42.4229126  25.7625351  73.8890610
  42.1830559  25.6518421  75.3794327  86.4691391  22.1514626  32.6487465
  85.5544815  22.2043381  32.3715477  86.4352798  22.2286148  33.6022301
  64.8436813  58.8953438  48.5371094  65.1988297  58.6147957  49.3805466
  65.5287781  59.4476662  48.1605263  69.7425537  40.7560883  12.6335735
  69.7590408  40.5320930  11.7030973  69.2437057  40.0482979  13.0415144
  39.7190094  31.8564758  11.5139265  38.8435631  31.8423901  11.1271152
  40.0038567  30.9428329  11.4952173  33.2571678  12.3553457   2.1158965
  34.0162430  12.8119354   1.7531831  33.1326828  12.7469501   2.9804087
  82.9651947  10.1648941  40.7762375  82.2681046  10.8063154  40.9136314
  82.8998260   9.5754795  41.5275993  75.5090408  20.3538342  35.0037918
  75.7334595  21.1646175  35.4604111  75.8363724  20.4818859  34.1134605
   6.1078825   4.8641505  68.4590912   5.8895350   5.3613210  67.6708145
   6.8904428   4.3675241  68.2199402  62.8549271  47.0208130  29.7667675
  63.4756927  46.4413757  30.2085133  62.5073090  47.5761070  30.4646492
  29.7826805  52.5194550  68.2274246  29.2151451  51.9503593  68.7472916
  30.6709690  52.2547607  68.4664001  25.2434902  70.8098526  44.5431786
  25.6601105  70.0011292  44.2454834  24.6454506  71.0462418  43.8341675
  76.6588974  58.8530693  86.5192871  76.0713806  59.1601982  85.8288269
  77.1903229  58.1772308  86.0985031  66.2964554  62.5820389  66.3512726
  66.5691986  62.9626656  65.5164337  66.7312622  61.7297592  66.3793640
   1.3350188  69.0290527  37.2528610   2.0422537  69.5357590  36.8537369
   1.5682652  68.9813232  38.1799774  12.5367947  39.6931190  14.9192200
  12.1375837  39.2545776  14.1678591  11.8714304  40.3142891  15.2153130
  55.6667099  64.8779221  29.5961552  55.8848572  65.6630707  30.0983410
  55.3082962  64.2711716  30.2439461  57.0317879  37.1267509  35.4747391
  57.0183678  37.1122780  34.5177422  56.1158524  37.2471848  35.7253227
  68.7579727   7.2737560   7.1072607  69.2484970   8.0711679   6.9078832
  69.2831421   6.8296432   7.7729845  48.4884872  20.4031601  55.6877174
  48.6064491  19.4534245  55.6699257  47.5511284  20.5308609  55.5418243
  13.6107731  48.0310898  63.6109543  13.0376978  48.3266373  64.3183899
  13.1049948  48.1847839  62.8129578  15.4301414  59.6570129  64.7209778
  15.6478405  60.3724442  64.1234894  16.2387981  59.4967422  65.2074127
   7.0430760  34.2749863  62.2896042   6.6964893  34.9692345  61.7291298
   7.9852171  34.4410324  62.3217239  11.4575872  34.3728447  53.5986710
  12.2403717  34.1626129  53.0894699  11.7086964  35.1352119  54.1201782
  10.1848440  57.1459427  23.6656704  10.3105993  56.1978989  23.6252823
  10.3279161  57.4449997  22.7677135  17.3582497  10.5319328  60.8979416
  16.9915714  10.7959194  61.7417946  18.3060169  10.5802736  61.0229683
  36.4439468  36.7662163   6.8822031  36.6396179  37.0191307   7.7844105
  36.8203773  37.4671135   6.3499689  64.4420242  69.7999268  84.7525864
  64.4740143  70.4472885  85.4569473  64.8214417  69.0093918  85.1364288
  45.7662849  37.1676788  17.0406513  45.7117195  36.6243362  17.8268013
  46.0517807  38.0235443  17.3603687   1.5399052  12.8399010  55.9349823
   1.5794576  11.9246578  56.2124634   2.4355373  13.1609240  56.0399551
  12.8003550  17.8463078  10.7209740  12.6836472  18.5634651  11.3441067
  13.3097696  17.1929531  11.2004070  24.6444302  12.2578554  56.7067108
  24.8746033  13.0156717  57.2442665  24.7391644  12.5658998  55.8053970
  48.7753143  22.0891476  77.3652954  49.4216309  21.9854584  78.0636902
  48.4556236  22.9857464  77.4659958  27.6893406  58.9639473   4.5142474
  28.6054497  58.8197975   4.7513070  27.2213020  58.9528885   5.3491421
  12.2517614  60.1226196  82.6600113  11.8583975  59.8060455  83.4731979
  11.9279423  61.0189095  82.5703659  73.4692078   3.2457292  62.9437447
  73.4264679   2.3926716  62.5116577  72.5553284   3.4742556  63.1135559
  55.5018501  69.4118805  17.2987213  56.0332108  68.6163330  17.3303356
  55.7032509  69.8007507  16.4475784   9.7789946  38.3692703  87.5266113
  10.0383472  39.2264519  87.8645554   9.0054712  38.1338692  88.0389404
  26.1525059  55.8168411  37.4027290  26.6683254  55.7706680  36.5977249
  26.0327873  54.9035759  37.6631966  60.9949875   6.1361194  86.4907150
  61.7228928   6.3434906  87.0767059  60.3096504   5.8015676  87.0691833
  27.2015343  44.5363579  75.4259033  28.1014042  44.2375107  75.2949219
  27.0861588  44.5396423  76.3761215  15.2249374  17.9359589  66.4155731
  16.1225471  18.1232777  66.1409073  15.2181749  16.9940376  66.5857849
  49.3933983  40.6433792  70.4918976  49.4711800  40.2680550  71.3690033
  48.8507042  41.4226532  70.6120987  49.8399467  44.1193962   2.1141584
  49.6903191  43.3920975   2.7182081  50.3488350  43.7364464   1.3995852
  83.5457916  55.6920204   8.3609905  83.6000366  56.2469864   9.1390018
  83.4717407  54.8022881   8.7061357  33.3190842  41.6362228  64.6919098
  32.7513237  42.1102982  65.2994690  32.8066635  40.8701515  64.4334641
  80.0040741  22.9121952  63.4512787  80.2596283  23.3882599  62.6611595
  79.1951370  22.4617882  63.2084122  57.4592667  31.9951992  46.7703247
  58.3855820  32.0821075  46.5453491  57.0194435  32.6539917  46.2329407
  56.9945183  17.7419491  54.2950211  57.7459755  18.1177921  54.7535973
  56.2410851  17.9781799  54.8361015  42.9328194   6.1154938  87.6389313
  42.9350662   6.7315741  86.9063568  43.5067673   6.5170131  88.2913132
  17.8165150  25.7531204  15.0571127  18.0162525  26.5128365  14.5101509
  18.4101391  25.0703220  14.7446547  58.4016647  36.1868935   3.2596185
  58.4038162  36.7771759   4.0131369  59.2343292  36.3574524   2.8193755
   3.6537142  16.0733051  61.2199135   3.9923224  16.7579060  60.6429405
   2.8160298  16.4156551  61.5318642  17.9740200  58.3102188  86.5761871
  17.3114929  57.6193695  86.5718231  18.0488071  58.5761452  85.6597137
  23.0193214   8.5740786  56.0604324  23.8890915   8.1965790  56.1916733
  23.1243134   9.1636963  55.3137321  47.3926620  61.4898071  49.3656845
  46.8293533  60.7218742  49.2697983  46.8772278  62.1006813  49.8923645
  82.5050659  42.4091377  49.7473564  81.8473892  43.0771980  49.9407120
  81.9975510  41.6156540  49.5769463  53.4797173  43.3740540   2.3575456
  53.1082535  43.1497536   3.2107365  52.9756279  42.8531532   1.7324190
   8.8649502  62.5079956   2.3164983   8.7361441  61.9414711   1.5557817
   9.6460905  63.0191612   2.1049306  59.9272270  37.0178261  53.0981102
  59.7316399  36.7277794  52.2071266  59.1617622  37.5312729  53.3563118
  55.2620468  33.1035194  81.1254654  54.6390305  33.8221245  81.2335968
  55.1092644  32.7859421  80.2355042  47.1311302  24.8860264  61.7641792
  47.4847908  24.0028419  61.8697128  46.3948364  24.7788143  61.1620064
  46.4255714  18.5557175  68.3315353  47.3041115  18.1772881  68.2970352
  46.4561462  19.2885838  67.7165527  71.9048920  64.8489380  23.2919598
  72.5061646  65.3272858  22.7210960  71.0338058  65.0777359  22.9677963
  16.6757145   9.5456257  78.4511261  15.8786840   9.3786669  77.9480362
  16.6206741  10.4717560  78.6866760   3.4503920  18.9445438  70.4024658
   3.1101625  18.5602455  71.2104187   3.1452372  19.8515968  70.4216385
  18.8205051  40.5584564  47.8667831  17.9159737  40.2454529  47.8759041
  18.9818592  40.7980309  46.9542046  30.9004841  19.0089664  70.6587906
  31.0522537  18.6761284  69.7742462  30.2681446  18.3991585  71.0389404
  81.1633606  21.9769497  46.2250099  81.1139984  21.3813419  45.4773140
  80.3887253  21.7698250  46.7477646  49.5458488  46.9026718   2.4252076
  49.9250298  46.0711327   2.1406105  49.2777634  46.7462273   3.3306842
  26.8031197  69.4700699  26.1663265  26.1462307  70.1440277  25.9916573
  26.9433041  69.0469971  25.3192215  33.7585449  45.0651665  85.4828491
  34.0458374  45.9617577  85.6555176  34.3051682  44.5245018  86.0530396
  57.2040520  26.3798885  51.8787270  57.5603943  27.1480503  51.4324303
  56.4934311  26.0813389  51.3111763  16.5821915  49.0826683  77.4546814
  15.6693306  49.3068619  77.6353912  16.5769100  48.7668915  76.5510864
  69.9207458  36.3679123  86.2839737  69.8698044  36.0887833  85.3697891
  70.6179581  37.0236473  86.2956848   4.6567321   9.6911678  61.5598946
   4.2313871   8.9478416  61.9874229   4.7707305  10.3359413  62.2581100
  57.8763084  69.4646225  40.9057312  58.4894638  68.7519760  40.7257385
  57.0414658  69.0263824  41.0706749   7.6305490  64.4667969  21.0054646
   6.6793795  64.3711700  21.0540867   7.9574027  64.0060196  21.7781792
  61.7619095  42.1104507  61.0660934  61.6151314  41.6128464  60.2616806
  62.7107048  42.2314606  61.1031151  79.5042191  15.4549265  82.7753296
  79.8483810  15.3857527  83.6658325  79.6117859  14.5775213  82.4081421
   2.0317037   2.6523068  15.9720507   1.5897475   2.0845451  16.6033611
   1.3369014   2.9366663  15.3782310  63.0725365  53.7355156  35.6792297
  63.7896805  54.0510178  36.2291336  62.5766220  53.1459503  36.2473068
  43.8035278  27.7207699   0.2623959  44.5605850  27.2445965   0.6035084
  44.1622734  28.2775669  -0.4286270  75.1618500  11.1248436  79.8588333
  76.0560760  11.3802538  79.6321945  75.1201019  10.1909275  79.6531906
   4.9367495  37.8229485  47.3811035   5.8477330  37.6099129  47.1787262
   4.4248567  37.2775459  46.7838326  48.4581223  17.3756237   8.2802181
  49.0424194  16.6182766   8.3156500  49.0060425  18.1135674   8.5475264
  60.3685684  41.6061821  78.3707352  59.4550400  41.4444542  78.1350708
  60.7458191  40.7332954  78.4802246  40.0571594  32.6157646  66.1124496
  39.3489304  32.0364647  65.8312683  39.6453514  33.4761391  66.1924667
  48.5060425  61.9864311  12.5492468  49.1934700  62.6485291  12.4764433
  47.7064667  62.4412270  12.2845440  70.8268661  62.0021629  60.3010178
  70.6501160  61.1198158  59.9747429  71.1632004  62.4759140  59.5403175
  63.7114868   6.4959035  25.3317719  62.9503860   5.9232097  25.2370090
  64.3251877   6.1912236  24.6633625  43.5783882  66.0748978  49.0558548
  44.1405640  65.5686340  48.4694290  43.2840691  65.4420853  49.7109566
  74.4598846  17.9976521  33.9928284  74.7407761  18.6980228  34.5817337
  73.5070343  17.9776897  34.0817566  18.4766598  49.8670082  85.2698364
  17.9819736  49.5727882  84.5050201  17.8681164  50.4321251  85.7458038
  59.6437721  37.9383736  31.6123810  59.8311806  38.8660583  31.7555847
  59.9610367  37.7639313  30.7262955  50.9979248  63.8473663  46.0859337
  51.6268120  64.2136230  46.7076950  50.1720695  64.2835236  46.2956009
  75.5127335  51.9631615  81.5740891  76.3065948  51.5540161  81.9184952
  75.8109741  52.7976913  81.2123642  52.7722282  65.2471695  34.2957115
  53.2311211  65.5300140  33.5047302  51.8574142  65.4808044  34.1383667
   3.9671676  30.0691509  12.2992840   4.1844363  30.9995365  12.2409201
   3.9883780  29.8765869  13.2366743  27.8028374  23.8702698  65.3414154
  27.1150246  23.2162056  65.4653015  27.5614395  24.5860023  65.9293671
   5.2320981  50.4669113  40.1424484   5.0295110  49.7637367  39.5254135
   5.1801667  51.2668839  39.6194000  44.5388412  22.7621861  74.4209061
  45.3489914  23.1098938  74.7937241  43.8793335  23.4270382  74.6190338
  80.5782776  30.4395123  62.2272224  80.5944366  30.7213326  61.3125916
  79.9824371  29.6904354  62.2365456  33.0767288  40.2000809  28.5762119
  32.4795723  40.5608330  27.9208546  33.2738762  40.9382935  29.1527596
  20.6005039  51.4251442  35.9896049  21.0080471  51.6475639  36.8266640
  21.1780262  51.8122330  35.3316803  50.8961906  69.1564407   6.4427390
  51.3330002  69.1213150   5.5917425  51.5439186  68.8140869   7.0587487
  47.9346123  70.2720261  62.4676933  48.8182907  70.4011459  62.8121796
  48.0553665  70.1950836  61.5212631  29.6900978  65.3685989  27.8049698
  29.8293343  65.9349518  27.0459614  30.2655449  64.6188965  27.6531811
   8.9855442   5.3275046  23.2570515   8.0554342   5.2460966  23.4680042
   9.0885553   4.8435144  22.4376774  72.3281555  35.0471878  10.6323442
  72.0982285  35.9352112  10.3588829  72.6920013  34.6409760   9.8456793
  10.5703831   9.0714159  44.0937424   9.6612253   8.7861795  44.1848717
  10.5826750   9.5761814  43.2805405  83.8876495  10.7180052  24.0633278
  84.6312637  10.2988596  23.6302185  84.2644501  11.4815016  24.5007324
  13.9941797  10.1640968  86.8156738  14.1653519  10.2253180  87.7554474
  14.7076139  10.6564665  86.4096985  85.1627274  59.4531441  59.1604195
  84.2644119  59.1238213  59.1888237  85.0775146  60.3550835  58.8514290
  20.4916496  67.7639847  79.1201477  19.8732243  68.3916321  79.4940948
  21.0561523  68.2915573  78.5551300  56.0566406  63.7109985  36.9057884
  56.4427032  63.0536728  37.4846687  56.7874298  64.0148621  36.3674126
  27.1837902  33.1221085  78.5116196  26.3377457  32.9178429  78.9100113
  27.5916634  33.7394600  79.1188660   6.0104961   5.1097465  23.6011887
   5.9372196   5.5059962  24.4694328   6.0547147   4.1686535  23.7703667
  31.8131618  49.7663765  56.7958183  32.7218094  49.8887901  56.5208511
  31.2957897  50.1746979  56.1016769  38.2539177  39.4591370  51.8834076
  38.0072975  39.3637009  50.9634590  37.9145470  38.6698875  52.3054771
  36.6250229  66.0638657  30.8705578  36.1230087  65.7687988  30.1108551
  36.3914986  66.9870071  30.9681034  65.9063110  44.0518875  25.6042099
  65.2084732  43.4859390  25.9342976  66.1615524  44.5824471  26.3589249
  70.4034958   7.3405242  86.1308746  70.9612198   6.8602862  86.7428741
  69.6841888   6.7386837  85.9395142  31.4512939  64.0762329  42.8256569
  31.6671314  64.2754288  43.7366791  32.2825165  64.1607895  42.3585854
  49.8195953  20.5139751  12.0003223  49.0206261  20.9860287  12.2349491
  50.3674469  20.5663052  12.7834902   3.5297697  40.8678665  28.4451714
   3.5086224  41.3885345  29.2480965   4.4551516  40.8401184  28.2020054
  10.3148613  11.3493795  10.7228460  10.5189676  11.3506012  11.6580305
  10.6129713  10.4939137  10.4137506  66.9240341   4.4085660  70.0838547
  67.0896912   5.1289024  70.6920547  67.7781067   3.9924352  69.9671326
  50.9844513  12.3462811  80.0122910  51.0642052  11.8120146  79.2220840
  51.6361313  13.0383749  79.9002609  68.6606827  39.2878227  24.6592083
  69.5485687  39.3040047  24.3019638  68.2104111  38.6129150  24.1512833
  29.6483898  42.7337723  71.4819260  29.5762062  41.8779640  71.9045563
  28.8499146  42.8111343  70.9597321  83.9363098  61.8102379  16.9420700
  83.4527893  61.6379356  16.1341400  84.0656357  62.7586517  16.9461746
  30.2414265  59.1791954  81.4892731  31.1358070  58.8384857  81.4740372
  30.3276081  60.0622520  81.8484573  61.5708694  26.1146011  49.0028267
  61.6799812  26.7155991  48.2658539  61.1009598  26.6260910  49.6614571
  28.6921864  54.1713943  62.2829552  29.1586952  53.6632919  62.9466057
  29.1057320  53.9225998  61.4563255  35.1820755  59.8992805  71.4990311
  35.7851906  59.6770935  70.7897263  34.3381310  59.5485001  71.2145309
  17.8064327  48.0001106   7.0913968  17.4472885  47.8896713   6.2110276
  17.0406590  47.9890518   7.6655931  38.4298096  56.7847939  60.7695351
  38.3265495  57.3092728  59.9755020  37.6323853  56.2571373  60.8134346
  75.8105316  47.8566589   2.7995858  75.6417313  47.7959366   3.7398250
  75.0341034  47.4733429   2.3916020  61.7026596  35.3289070  47.2192650
  61.5453644  36.0268517  46.5833702  61.3107758  34.5508232  46.8227234
   6.1215000   3.4554946  56.0325317   5.8961377   2.5619304  56.2913513
   6.5575504   3.3569353  55.1861420   6.5660791  20.3738899  59.9550896
   7.4404707  19.9847507  59.9706383   5.9704680  19.6272240  60.0181046
  54.3360863  57.5105133  42.5340843  54.2997475  58.4664040  42.5684891
  53.6815147  57.2228813  43.1705055  63.9575844  22.1619911  86.2398758
  64.9003067  22.3153725  86.3030396  63.6587372  22.1298199  87.1486588
  59.1063423  16.1859894  47.8249512  59.5199356  16.3614140  48.6701736
  58.1689186  16.2834568  47.9921951  84.7041016  44.5600739  74.3743591
  84.4709167  45.3336525  73.8611069  85.5648422  44.3035622  74.0433731
  31.6085339  24.1305428   7.5946531  31.8082733  24.0802193   8.5294275
  30.8025932  24.6449680   7.5493002  68.1428833  62.1385765  45.3027458
  68.5480423  62.7570229  45.9106941  68.7180405  61.3736496  45.3204727
  60.6661148  27.5490532  81.9677582  60.5113754  26.6117573  82.0850830
  59.9699402  27.8345261  81.3760834  35.0312729   9.6830330  10.2729568
  35.9117699   9.3580399  10.4609489  35.0941200  10.0482044   9.3903856
  79.3078766  60.2129517  32.6078758  79.1354523  61.1028481  32.3003159
  78.9349823  60.1876373  33.4890900  72.1629028  33.7441483  85.8673782
  72.5574493  34.5481224  85.5294571  72.5050659  33.0528450  85.3005829
  72.2784042  29.2344818  36.1826591  72.1365051  30.1752472  36.2878265
  72.2502136  29.0923042  35.2364960  19.6082783  68.8768768  57.9495163
  20.1539478  68.2204742  58.3826561  19.0537472  68.3724213  57.3543243
  28.5348892  52.4156265  16.1441345  28.1166382  51.5978813  16.4135647
  29.4139671  52.1556206  15.8687267  51.0979118  41.3113060  65.3625412
  51.2013512  42.0868721  64.8111496  50.3210449  41.4948578  65.8907623
  67.3240814  29.2833214  26.0574207  66.3948898  29.1110859  25.9051991
  67.7751999  28.5493546  25.6402683  56.2422295  43.5808144  75.6651230
  55.9976463  42.6650658  75.7986069  57.1426277  43.5436478  75.3424301
  23.0538044  48.2942619  17.7977257  23.2414799  48.0127335  16.9023209
  23.1562080  47.5016060  18.3244534  83.1130600  33.5248489  31.2744617
  82.3115921  33.2552185  30.8259335  82.9990845  34.4632111  31.4251690
  15.4011021  53.7671623  40.7138290  16.1044769  53.2034378  41.0358658
  15.5704899  54.6172142  41.1199722   2.7275028   1.8899754  60.5615501
   2.9643221   2.7923307  60.7758026   3.4409666   1.5812629  60.0030746
  82.0715408  70.4385757  52.7737427  82.9585724  70.0789261  52.7817650
  81.6998672  70.1781387  53.6165161  81.1936951   2.9290907  83.6935043
  80.5078201   2.3642323  83.3375015  81.2260666   3.6739783  83.0932312
  44.3368301  57.8015289  15.2096167  44.0411835  56.9556160  15.5461483
  43.6663971  58.4212608  15.4971561  17.1823406  49.2729416  83.0594482
  17.5345554  49.2664719  82.1694260  16.8141479  48.3973351  83.1776962
  66.1422577  33.5927658  81.1308441  65.6094360  33.9049721  81.8621826
  65.9633026  34.2115593  80.4228210  69.8269653  17.0559464  19.8183880
  69.7343521  16.2854786  20.3787766  69.6918564  17.7982101  20.4074745
  79.8725204  52.0064507  36.7763710  79.2656403  51.7482529  36.0826416
  80.6138077  51.4084396  36.6809349  66.6607513  47.0178452  53.3405228
  66.6682358  46.3995667  54.0712128  65.7467346  47.2929344  53.2688866
  73.7425842  68.0294647   1.4664137  74.2541504  68.1829376   2.2607551
  74.2803650  67.4318314   0.9469286  81.7188416   1.3815138  23.2667675
  80.8175964   1.5888821  23.0198326  82.0469360   2.1842995  23.6718864
  70.4643555  21.8520565  11.3051090  69.6281738  21.6314621  11.7154312
  71.1168137  21.6818180  11.9844818   5.8004136  43.2176247  86.2921906
   6.0629778  42.8046265  85.4695587   5.3969932  44.0442047  86.0271378
  51.8325996  21.5377083  26.9764175  51.9851189  20.8667965  26.3109493
  50.8910789  21.4986954  27.1444740  53.9967422  43.0557632  57.3324471
  53.3820038  43.5550232  57.8700981  53.7323990  42.1434555  57.4509583
   7.0291338  60.3359337  62.5431442   6.9363823  59.4105988  62.7698174
   6.3158154  60.7698593  63.0112419  53.0389824  20.4810390  81.6271210
  52.3460312  20.3206768  82.2676926  53.3445511  21.3670654  81.8215790
  20.3434925  67.8112564  87.8327484  20.0801449  67.1833115  87.1600189
  20.5879288  68.5972519  87.3441925  71.3878174  10.0224028  38.1652260
  70.4932861   9.8500710  38.4590874  71.5666199   9.3333950  37.5252838
   7.9766850  25.3428135  55.0756073   7.7448368  25.7380486  54.2352066
   7.7444582  24.4193382  54.9781685  62.1748466  56.6897430  75.5290222
  62.6254196  57.0676346  74.7737656  62.4401512  55.7700462  75.5306854
  48.5677490  58.6925697  73.3822708  49.3309135  58.5072594  73.9295120
  48.5394669  57.9680099  72.7574158  32.8419533  13.3935480  83.9606018
  32.1320076  13.1966953  84.5717163  32.8715973  14.3497295  83.9278946
  84.4596634  21.3746223  40.1078682  84.1678848  20.7969456  39.4026070
  83.6932449  21.4678001  40.6736946  56.7907295  55.7220192  48.2210464
  56.9468956  54.8011131  48.0118179  57.6645622  56.1111259  48.2563667
  26.5207825  50.4143372  88.0200958  25.8203564  50.4995499  88.6669159
  26.0821285  50.5231514  87.1763077   8.7427835  46.9677200  34.3786430
   8.1269550  46.5720329  33.7618599   8.2388191  47.0737839  35.1854897
  81.2319946  26.9596920  86.6956940  80.3106689  27.2193089  86.6963348
  81.7038498  27.7504768  86.9569321   0.9391823  40.7777214  33.4701385
   0.4985448  40.4899826  34.2696838   1.0143281  41.7270889  33.5664711
  49.7116776  61.5274849  33.1456032  49.8322334  60.7121468  33.6323509
  49.5720825  62.1912384  33.8210106  76.9348373   5.4443936  40.7389297
  76.8097458   5.4247746  41.6877174  76.3126373   4.7997823  40.4019318
  68.7402039  66.8897552  27.7962646  68.5226593  67.8059464  27.9680214
  69.6241226  66.9180603  27.4300346  48.4476280  64.7704239  46.1230240
  48.0273247  65.3737411  45.5101700  47.9710655  64.8925171  46.9441299
  10.1258802  39.6218185  78.0358887  10.6639137  39.1176643  78.6462860
   9.2269163  39.4707260  78.3278961  10.2094622  16.6029358  73.0398941
   9.6128244  16.0466061  72.5391388  10.7321339  17.0523033  72.3757324
  54.7628403   4.4372115  16.6064720  54.3869553   4.5009174  15.7284718
  55.6826744   4.6755867  16.4910889  57.0827866  39.7474136  85.4360428
  57.2541275  39.0043716  86.0146332  57.8734894  40.2837105  85.4943771
  53.6416779  15.7998838  79.0743408  53.8573227  16.5688324  79.6020279
  53.2829933  16.1591854  78.2628784  12.5313406  45.3039703  82.5679779
  13.1910095  44.8980064  82.0056000  13.0300550  45.6612473  83.3027344
  73.3892441  47.5841217  74.4486847  72.6826401  47.7381248  75.0757675
  73.4547501  46.6309090  74.3909912  16.2548103   8.5347910  17.1736412
  15.5914650   8.4970627  17.8626842  17.0127964   8.0841599  17.5459595
  28.0483646   1.7363274  34.1289330  28.2069626   2.0284705  35.0265579
  27.9276295   0.7896624  34.2029610  63.0988541  34.4690666   2.4943712
  63.6865425  34.0339050   1.8767227  62.4892349  33.7838211   2.7682943
  82.1718979  71.7985840  16.8245087  81.6564560  71.3513107  16.1533184
  82.2773209  71.1479950  17.5186653  34.9945412  47.9405899  64.6886292
  35.5927658  47.8996658  63.9425201  34.1747169  47.5727577  64.3587570
  23.0480995  17.4702110   8.6936102  22.3146858  17.9937687   9.0164471
  22.6535206  16.8693047   8.0615873  64.6667099  62.0288925  12.7821274
  64.1226196  62.7461205  12.4568863  64.6607056  61.3839569  12.0748434
  57.8870354  56.3609772  60.3724327  58.2875443  56.0802994  61.1952591
  57.2034912  56.9767876  60.6365814   9.3553429   4.1183028  21.0442791
   8.8898010   3.8847339  20.2411919   9.9914093   3.4134429  21.1660328
  26.3772030  38.4467888  76.1984100  26.5794888  37.5590363  75.9031143
  26.3949680  38.3912735  77.1538391  36.3022232  29.7992859  70.7296219
  36.0706444  29.0530071  70.1767502  36.9340134  30.2957916  70.2094803
  83.1684799  39.9595947   7.7413936  82.3871078  39.4118233   7.8164539
  83.8984909  39.3552094   7.8757091  82.8786316   4.5705109   8.8905315
  83.4120407   4.7622190   8.1191969  82.4201736   5.3903923   9.0744896
  45.0237923   2.0873885  27.0025024  45.1757889   1.9364799  26.0695744
  45.4371338   1.3409499  27.4363327  33.1269112  70.1520004  29.1217136
  33.4114723  70.9984741  28.7771225  33.8386917  69.5516205  28.9000149
  77.8544312  52.1291084  42.2084732  77.8314133  51.7397270  41.3343544
  78.7334213  52.5008430  42.2820129  75.8023605  44.7293549  37.0021591
  75.9292908  44.2874908  37.8417282  76.6566086  44.6787109  36.5732880
  10.0367289  70.4404755  64.5526199  10.9440756  70.2219620  64.7652283
   9.9878283  70.3597946  63.6000786  30.8111210  29.4904041  73.2683868
  30.5273914  30.4006062  73.1831894  31.3304310  29.3267136  72.4811478
   9.8733025   4.1873188  36.9402885  10.3926077   4.9663005  37.1396408
   9.7700596   4.2053246  35.9888458  40.0275764  42.8869667  20.9723721
  39.9316826  43.2469025  21.8541203  40.0962639  43.6556091  20.4060688
  42.4866638  10.1739950  75.2562103  42.6147423   9.3341827  74.8151398
  42.5423927  10.8235683  74.5553665  33.8352623  64.5011063  65.1174927
  33.8616180  65.1436157  65.8265152  33.5445747  64.9992371  64.3535538
  80.0149460   9.9022951  16.4247646  80.6760483  10.5660162  16.6213551
  79.7965927  10.0470600  15.5041151  67.5993118  50.1858253   4.2917013
  66.8238907  50.3959999   4.8120642  68.3233414  50.2181778   4.9169750
  76.8183517   7.8073497  39.1255226  77.5638046   7.5418119  38.5869865
  76.6513443   7.0537801  39.6916275  59.1178856  36.3200455  23.4035130
  59.2407188  36.5011673  22.4716663  59.6059685  35.5109940  23.5566254
  16.3469238  49.9872284   8.9182549  15.5655251  49.8325043   9.4490175
  17.0178680  50.2466812   9.5497189  83.0207977  55.6142845  32.8640213
  82.8908997  55.0455971  32.1051102  82.1643906  55.6438446  33.2905502
  51.8881073  44.6063347   9.4855576  52.0222626  45.1298180  10.2756186
  51.1645470  44.0200081   9.7067327  64.5330048  69.0459671  67.0324173
  64.1344757  69.6188660  67.6875534  63.8070564  68.7929230  66.4621582
   5.4489846  31.7790451  60.8478050   5.4709949  31.1485310  61.5676651
   4.5855947  31.6605091  60.4519005  26.0679321  60.2986603  67.3733368
  26.3723125  60.3112221  68.2807617  26.6990528  60.8420372  66.9014664
  76.0674210  45.1276436  80.1262512  76.6866531  44.6176682  79.6040344
  75.3973999  45.4039192  79.5009766  18.4016590  51.5406227  58.1602364
  19.2365570  51.8516312  58.5101662  18.5941048  51.3092194  57.2515831
  72.2026825  21.5142632  38.6139412  71.2553711  21.6393795  38.5575142
  72.4889832  21.4390602  37.7036629  73.0097656  12.5190897  60.6002197
  72.3395309  13.1573238  60.8445091  72.7180405  12.1769848  59.7551765
  49.3716087  27.9192867  82.4407883  49.9795303  27.3788681  82.9453735
  49.8952904  28.2520561  81.7119141  44.7115898  50.6088104   1.0396190
  45.3316154  49.9262772   1.2964221  44.3286018  50.2893906   0.2225967
  18.5471783  61.4224854  16.2197304  18.2688656  60.8913689  15.4736137
  18.5124111  60.8240356  16.9659729   6.0663958  64.4750443  47.5304604
   6.1543980  63.5891914  47.8822517   6.6790776  64.9994583  48.0460548
  60.9929886   2.9224606  33.9992294  60.4705544   3.6725197  34.2833214
  61.8844528   3.1322930  34.2776031  75.1769333  64.9299164  33.3935242
  74.6480179  64.7916946  34.1792564  74.7911835  64.3470306  32.7395515
  79.5448380  55.8296509  55.3656883  79.8084946  56.3937950  54.6387405
  80.0465546  55.0245094  55.2382088  10.8607044   5.4813690  15.4101114
  11.6229019   5.7090659  14.8777189  11.1922522   4.8443093  16.0429325
  60.3809090  40.2896271  49.7703514  60.6523666  39.4252968  49.4613647
  59.6395531  40.1147995  50.3500595  81.7240295  21.3174877   9.7923059
  80.8708725  21.2605915   9.3620491  82.3171310  20.8400116   9.2122364
  40.2434998  61.8187065  69.5364609  40.9112320  61.2290344  69.8866806
  40.5435219  62.6936226  69.7829208  70.4868393  15.5771227  44.0081902
  70.9284286  16.4175453  43.8860512  70.7332077  15.3032751  44.8916702
  31.3826981  36.3388405  80.1423187  31.2903976  37.2880211  80.2245712
  32.2584991  36.1531181  80.4810104  62.6758804   8.0566645  42.2242165
  61.7434921   7.9163184  42.0593376  63.0500336   8.2213421  41.3586998
  74.6428452  25.0467339  85.9133377  75.4882812  24.6890240  86.1844482
  74.6353683  25.9368076  86.2653961  78.5098724  53.7642937   1.9383935
  79.4455109  53.9604607   1.9866186  78.3911057  53.0177269   2.5255568
  43.9736977  40.5683022  86.2386169  43.5834808  40.3996353  87.0962372
  44.0931778  41.5176506  86.2123642   7.1953316  44.7433090  12.9957104
   7.3223467  45.5571175  13.4833708   6.8819876  44.1185837  13.6497478
  35.4678535  31.3281879  67.6597672  35.0248756  30.9134426  68.4000320
  36.3822212  31.3952942  67.9348221  72.3115234   8.8555727   8.6755886
  72.0700989   8.9294052   7.7522836  71.7610321   8.1481075   9.0112667
   9.0055180  20.1086330  20.8176994   8.1180325  20.0633011  21.1734333
   9.4422703  19.3303070  21.1636562  83.5644608  60.0536308  51.3569717
  83.5746307  60.5924454  50.5658875  83.0912323  60.5814285  52.0001793
  80.3412018  50.2952652  16.2741318  80.2722321  49.4954414  16.7954369
  79.9396057  50.0696449  15.4350548  25.8970165  25.8742008   6.0497556
  25.5231953  25.2241478   6.6446667  26.4432354  25.3648548   5.4510541
  30.8690777  56.7372551  19.3627720  30.9360886  55.8246803  19.0817966
  31.7407074  57.1006317  19.2063980  54.4381790  52.0936508  35.0881462
  54.9544258  51.6181602  35.7390099  53.9620056  52.7518158  35.5944176
   3.1161647   5.5348964  25.9556160   2.6733363   4.8969879  26.5152645
   3.1290300   6.3397589  26.4735565  31.6195545  63.2018471  80.1895981
  31.4820347  62.7276039  79.3695908  31.3397236  64.0970383  79.9983902
  64.6827850  69.1305084  41.7120247  64.0139160  69.6186981  41.2319107
  64.3350830  68.2405167  41.7689857  60.5594101  67.1283112  75.4456940
  60.6215477  68.0754852  75.5690994  59.8098335  67.0114899  74.8619843
  48.6811943  52.9017296  43.3135681  47.8575249  53.3000870  43.0322952
  49.3582420  53.4139595  42.8714638  46.9447861  15.7975893  72.0631714
  47.1988182  16.7190895  72.1135406  46.9665489  15.4932070  72.9704208
  62.3700829   1.7329354  77.4410400  61.8422813   1.6035861  78.2290268
  63.2665253   1.8207356  77.7649536  85.3383865  49.6532822  53.3936081
  85.2608643  48.7796707  53.0101662  85.8994370  50.1332855  52.7844696
  18.1245041  23.9202843   1.2209576  18.6451035  23.7919807   2.0138917
  18.5631523  23.3875408   0.5576299  45.4090042  37.3407936   0.7651028
  46.3086205  37.4371033   1.0775810  44.8730888  37.4002190   1.5559866
  76.5947342  57.8026047  48.3642197  75.7397156  57.9542007  48.7669601
  77.1269608  57.4277840  49.0659828   8.6419754  36.0447083  10.6577816
   8.0679054  35.5086441  10.1106853   9.3616505  36.2935829  10.0778170
  79.3345871  54.2233315  38.3244858  79.1816025  54.0699844  39.2568550
  79.5063019  53.3535118  37.9637108  79.3518372  54.2086678  70.4791946
  79.0630722  54.7028732  71.2463989  79.8734436  53.4911766  70.8388824
  62.2650948  51.9450493  70.4906540  61.3463974  51.8250427  70.7311325
  62.6487808  52.4091644  71.2347031  51.4957619   9.1436043  76.9004593
  51.0565071   8.4866943  77.4406052  51.3700829   9.9659538  77.3739319
  32.1469803  37.6985512   4.6320949  32.2648354  37.7103462   3.6822512
  32.8809929  37.1777878   4.9580712   0.5501864  38.8294754  52.1377106
  -0.1580783  38.6516724  52.7565651   0.8257573  39.7236557  52.3395462
  26.3030243  47.4820824  44.2533264  26.7432003  48.3237801  44.1349030
  25.3699360  47.6935539  44.2240257  79.0438004  47.2858238   1.5181960
  79.6036835  46.5678444   1.8135999  78.1948013  46.8754463   1.3538098
  71.1011047  53.9461212  30.0244408  71.3935852  54.2292290  29.1581039
  71.4721069  53.0698395  30.1279697   3.3024225  46.1366844  39.4143219
   3.6178117  46.4709473  40.2539825   3.0526929  45.2306252  39.5957794
  69.2791977   3.3304374  28.8754005  68.6997910   2.5739653  28.9663448
  69.2857361   3.7329044  29.7438526   5.4084344  32.2928581  45.5765686
   4.5857420  32.6648140  45.2586746   6.0214992  33.0279465  45.5712814
  74.7963104  26.1552124  54.7291031  75.0793304  25.2457275  54.8237915
  75.5587845  26.6717300  54.9900093  46.1654472  70.8675003  36.8926277
  46.2686996  71.8189392  36.9112244  45.9660568  70.6660461  35.9783554
  14.5015650  39.2942047  17.5644093  14.4058762  38.3446922  17.4902306
  14.3482447  39.4787140  18.4910603  19.2259159  19.4210911   2.0846791
  18.3397274  19.6870117   2.3300114  19.0975285  18.7433891   1.4210011
  71.5684204  55.6320953  16.1150608  72.0287247  56.2989998  16.6245537
  71.9488831  54.8033791  16.4061012  58.5380821  64.9695816  35.5071335
  59.4947662  64.9627914  35.4764481  58.3119202  65.8731613  35.7276344
  86.1286392  51.8703423  65.2482910  85.9317169  52.8025475  65.3401947
  85.7246857  51.4635048  66.0148010  45.5776672  16.0137405  87.0761490
  46.2477798  16.4215450  87.6246719  45.2251091  16.7339573  86.5534439
   5.4646420   7.9399738  28.3761196   5.2628222   7.1530080  28.8822670
   4.6979547   8.0687571  27.8176956   2.4496369  11.3985214   5.0973029
   1.9282253  10.6030264   4.9898353   3.1111600  11.3463163   4.4074521
  38.2425995  44.9004478  16.9866867  37.5066986  45.4514732  17.2532539
  37.9047508  44.3887711  16.2516537  24.3560581  11.2251902  50.9705353
  23.7027283  11.1458979  50.2754784  24.0333424  11.9375620  51.5224533
  83.0742035   7.9512105  48.4863701  83.6231689   7.4937272  47.8495178
  83.5985184   8.7049828  48.7568436   1.0667766   6.9446306  18.1002560
   0.7838707   6.0661869  18.3542881   1.9162856   6.8105092  17.6800442
  68.4823532   4.7842755  57.4194221  68.2464752   4.3409386  56.6045341
  68.9024658   4.1059451  57.9482002  65.1406326  39.9805908  63.0508957
  64.8853760  39.2375565  62.5041084  65.6971512  39.5985489  63.7295456
  54.3708344  64.2812424  61.1050453  54.3703423  63.3660393  60.8246231
  54.4694366  64.2402267  62.0562668   4.0982795  70.1509399  85.4014053
   4.6383924  69.7396469  84.7266159   3.7770622  69.4200897  85.9295197
  64.7531662  20.4144726  28.5915718  64.3707809  20.6207657  27.7386608
  64.5351715  19.4935837  28.7353668  33.2409515  49.9575081  39.5842171
  33.5103836  49.4532356  38.8165283  32.4102211  50.3581657  39.3281174
  72.5789337  55.9642792  31.1915188  71.8381271  55.5242233  30.7746391
  72.8494415  55.3682404  31.8899422   6.1462340   2.0638752   4.0829115
   5.8373189   2.9330084   4.3386674   6.4780002   2.1800051   3.1925876
   6.2825923  69.5734177  48.0206795   6.0431113  69.0101395  47.2847443
   6.4246240  70.4343109  47.6270638  47.8924408  38.6992874  29.0312347
  47.0006104  39.0387650  28.9562225  48.3261299  39.2976990  29.6395493
  79.9412766  36.5556793  88.8153458  79.4304581  35.8542366  89.2194214
  79.4920425  36.7336845  87.9890747  14.6685276  62.2544823  70.3620071
  15.4036207  62.7625999  70.0189514  14.9425087  61.3423347  70.2663574
  54.6277428  69.5377121   3.2996635  54.5973701  68.5810394   3.2904694
  54.4819870  69.7731781   4.2159295  35.4187126  32.3849869  88.7651138
  35.6454201  32.7062798  87.8924103  35.6361504  33.1098900  89.3511810
  15.0038786  61.8018913  77.6490936  14.2606907  61.8411560  77.0471268
  15.2925558  62.7106781  77.7328186  20.3749676  25.1310291  81.2445679
  20.3792419  24.5188046  81.9803619  21.2104607  24.9800758  80.8025360
  78.9014893   5.9903727  69.0096970  78.1285095   5.5434618  68.6647263
  78.9653473   5.6924715  69.9171143  81.0147400  35.2864990  16.4310150
  80.1748962  35.2365608  15.9745121  80.9926453  34.5596008  17.0533981
   1.6888703  21.5922852  81.6375961   0.9432630  21.5951653  82.2378387
   1.5257554  22.3296890  81.0494995   7.5386047  22.5803871  54.9170685
   8.4827566  22.4505730  55.0062790   7.2256231  21.7801971  54.4952049
  42.2193298  33.8849678  86.5486374  41.9762726  34.2639732  85.7039413
  41.6009407  34.2689133  87.1702576  40.3215485  58.0116692  86.5333862
  40.0571518  58.5666237  87.2671127  39.7697220  58.2979660  85.8055420
  48.7168198  41.0181847  84.2686005  48.9628906  41.6332741  83.5776978
  47.8826714  40.6508026  83.9762650  41.1719170  34.2994690  11.7632904
  40.5362167  34.1111946  12.4537039  41.1971512  33.5005913  11.2366114
  13.7953920  63.9550400  80.1991959  14.3800116  64.2257614  79.4912643
  14.3199644  64.0532608  80.9938049  60.0123901  50.3320999  27.9865017
  59.7791824  50.7554817  27.1603088  59.7091904  49.4296455  27.8871117
  17.4962139   3.5634665  84.1817627  16.7141209   4.1108246  84.2522049
  18.1824265   4.0690560  84.6173325  22.8125648  51.3983841   1.8570905
  23.2393246  51.0654602   2.6465652  22.6038532  52.3094177   2.0636988
   0.0621617  13.0379696  30.2323895   0.1248798  12.4480104  29.4812241
   0.9098720  13.4816608  30.2599030  76.9835587  59.8289261  27.7821960
  76.7242813  59.3017693  27.0264740  76.9776382  60.7299271  27.4590931
  45.8269424  60.7482109  17.2226543  45.2949905  60.1350021  17.7298374
  46.6276894  60.8525314  17.7366104   4.7242255  46.8485756   7.3737063
   4.1866336  47.5095367   6.9374099   4.7753634  47.1434669   8.2829123
  27.3723583  17.7928162  88.8561783  27.6396828  18.6553345  89.1737137
  26.4580822  17.7105274  89.1273956  40.8872299  65.4373932  27.1783504
  41.2957001  64.7162323  27.6572170  40.2924194  65.0094452  26.5624866
   1.5897309  40.9234505  11.5696039   2.0560102  40.2155457  11.1249847
   1.0444405  41.3162460  10.8879871  29.2840157  69.4991837  36.0405273
  30.1529980  69.8934708  36.1155968  28.8525410  69.7110748  36.8682747
  46.8478889   0.0150190  69.2852936  47.7304535  -0.1439658  68.9505692
  46.9788818   0.5781927  70.0481186  84.2050858  37.1015091  32.3265419
  83.8587265  36.3332176  32.7804108  84.0090256  36.9428215  31.4031754
  62.0723495  20.0133667  72.4635010  61.5614128  20.8227959  72.4646683
  61.4751205  19.3536472  72.1109085  63.3208923  67.9940109  17.8967438
  62.8515930  67.4060516  18.4885979  63.3618622  67.5169220  17.0679226
  30.6976891  35.3268356   0.7355219  31.4735374  35.0561104   1.2264384
  30.2148819  34.5144157   0.5835258  64.0640945  23.7478695   7.1363297
  64.2146454  24.4839783   7.7293835  63.4464569  24.0853882   6.4876113
  63.7042236  43.0188484  49.6777840  64.5676041  43.0081062  50.0909271
  63.2660484  43.7800293  50.0583534  50.5404320  61.4374008  76.1697540
  49.9531746  62.1411285  76.4456711  50.6054916  61.5382538  75.2201080
  79.9150238   1.2039912  73.2308121  80.7510223   1.6312350  73.0442657
  79.2605133   1.8893975  73.0964050  58.8627090   2.4739292  81.4023209
  59.6259918   2.0853391  81.8296738  58.2750092   2.7017639  82.1226883
  47.1479645   0.4559217  40.1769447  46.2464676   0.1588502  40.3005943
  47.0724449   1.2175677  39.6021194  68.4418030  55.5555878  66.0068283
  67.7708054  55.2768135  66.6299515  68.9795609  56.1779594  66.4964142
  64.7375565  47.5102348  34.4328575  64.1562653  47.8483086  35.1140594
  64.7460556  48.1947594  33.7638359  58.6509705  55.1719551  13.5005445
  59.0645866  55.3119469  14.3523417  57.8664322  55.7199135  13.5222940
  30.0255756  39.9966660  72.2440720  29.3426533  39.7632103  72.8728409
  30.0893402  39.2361450  71.6663437  76.7310181  25.5482273  46.1727371
  76.5982361  26.4686775  45.9460831  75.9363861  25.3009834  46.6456718
   5.7911468  10.7572145  63.9942703   5.9621134  11.6866436  64.1464691
   6.6051855  10.4223976  63.6181488  39.0139771   3.1654160  32.1581078
  39.0897026   2.6008070  31.3888779  38.8105659   4.0300884  31.8014603
  79.0842667  13.8082161   5.2227192  79.9352036  14.2332420   5.1155443
  79.1964722  12.9442062   4.8263254  59.2520218  14.2142553  72.3289490
  59.4539871  15.1423082  72.2099609  58.2974434  14.1680756  72.2752380
  74.8513489  46.1368141  50.1489983  75.1826630  45.4440918  49.5775146
  74.2653809  45.6859665  50.7569542  56.4691734  50.8674889  36.4122696
  56.7743797  50.2498779  37.0768280  56.9143295  50.5952225  35.6098099
   5.7629662  36.2046509  86.9056473   5.5002775  37.1250534  86.9149551
   5.3176990  35.8208466  87.6610641  48.1634216   6.0230827  18.2846317
  47.7866592   6.1348610  17.4118271  48.7033119   6.8028178  18.4141083
   9.8504753  17.8111305  81.2485428   9.0435982  17.4307613  80.9014130
  10.0675039  18.5132256  80.6352005  40.7423630  37.1731758  76.5416718
  41.0788651  36.4447441  77.0635834  39.8311348  36.9398766  76.3642960
  60.8959732  54.9289017   3.0304444  61.8173981  54.9351120   3.2896082
  60.8844986  55.3607597   2.1762781   5.1077137  21.0466862  74.1890640
   5.4067678  21.8863735  74.5379486   4.2318354  20.9323711  74.5578461
  53.7413940  61.3715668  76.1666412  54.2312431  61.7021523  76.9196320
  52.9374504  61.8910027  76.1571198  24.3762074  42.2489891  15.5594940
  23.4440327  42.4429207  15.4611483  24.4241962  41.2930336  15.5507164
  29.8107395  27.1416512  13.4600010  29.0696049  27.7469749  13.4831028
  29.6171894  26.5538006  12.7297935   2.2872934   1.2241559  12.6781883
   1.4224707   0.8387825  12.8189049   2.6880915   0.6739120  12.0052662
  23.1392345  63.9037361  40.1947823  22.9202595  64.4824829  40.9250793
  23.4503651  64.4927216  39.5073814  13.9088202  50.1154633  40.3423882
  13.2081499  49.5650711  39.9925842  14.6675529  49.9142532  39.7945976
  84.1759338  46.6826630  12.2637291  84.4114609  47.0366516  13.1213140
  83.3094254  47.0473976  12.0838213  71.9052124  17.8547020  34.1708984
  71.7364731  18.7932472  34.0878830  71.0949249  17.4387169  33.8765717
  50.5874329  42.1208153  35.6249046  50.2772179  43.0147552  35.4804497
  49.8667641  41.5660324  35.3264351  64.5862885  39.6465187  11.4648666
  63.8782539  39.2095795  10.9915791  64.5803757  40.5432930  11.1302147
   8.6743164   5.0581584   5.7856297   7.8250604   5.1426821   6.2190485
   9.1755877   4.4725361   6.3530855   6.4701624   1.0783309  42.8519135
   6.0196981   1.8877584  42.6107903   5.8735294   0.3815804  42.5784187
  80.8048172  57.1669655  62.3807945  80.9338379  58.0030403  62.8286362
  81.6671066  56.7516747  62.3957443  76.8296051  67.7617950  16.0178928
  76.9626389  68.6838455  16.2377872  76.8823929  67.3052902  16.8575649
  81.4153366  47.6648865  12.0915642  80.7116013  48.0523453  12.6120119
  81.0203018  46.8884468  11.6949320  45.7397156  23.6699448  83.5910263
  46.2787781  23.4857483  82.8218002  45.5775566  24.6124058  83.5497513
  66.6300049  57.0501747  58.0838013  66.7336731  56.4488640  57.3462982
  66.5973358  56.4819221  58.8533821   2.6182702  49.5401268  43.5249596
   3.5246177  49.4852448  43.2220497   2.0981553  49.5615463  42.7216797
  38.6350021   1.7120733  23.4767818  38.0811386   1.3425679  22.7890778
  38.0412865   1.8482391  24.2151546  42.6100159  30.8630257  68.5970001
  43.3568382  30.3009892  68.3905869  42.9565048  31.5029926  69.2187881
   5.9515324  25.2934971  20.3762817   6.8454437  25.4987316  20.6502037
   5.8967066  25.6159019  19.4766827  30.7674999  50.7441711  84.1231613
  31.4267216  50.1516418  83.7618179  30.0597363  50.1678314  84.4114914
  79.9536057   5.2806087  25.0198784  79.5871811   4.4082971  25.1649208
  79.5073166   5.8370337  25.6581936  50.5929184  65.6139374  26.9376354
  50.2493324  66.0400848  27.7228603  49.8760834  65.0567856  26.6343746
  63.7396774  16.8733044  13.7541828  63.1216354  16.2130489  13.4406300
  64.2929535  17.0625286  12.9963465  60.0094643  23.0062485  27.7639866
  60.2090492  22.4844189  28.5412197  59.5674362  23.7839317  28.1046543
  84.9013748  55.8668976  84.2978821  85.3215942  55.0922699  84.6715164
  84.1611481  56.0416260  84.8790512  32.1556435  63.9554710  68.8024445
  32.9304123  64.5047836  68.6832123  31.4178753  64.5439072  68.6422272
  46.7540779   4.0255651  36.2788162  47.4460487   3.7115493  35.6967506
  45.9422073   3.7291160  35.8674507  52.1886024  47.3573647  43.0229301
  53.0385857  47.7858276  43.1238327  51.7670403  47.4575844  43.8764381
  21.4492054  51.4743271  67.5518723  20.8020554  52.1760941  67.6222305
  22.2939854  51.9221497  67.5969620  64.9608994  34.3029518  86.9330139
  64.3707581  35.0057945  86.6610184  65.8297119  34.7046738  86.9289017
  44.6785622  65.7957611  82.3381500  45.1730270  65.6936493  83.1513596
  44.9759941  66.6323013  81.9804230  31.6909084  28.4176788  70.7630463
  32.1139526  27.6050739  70.4856644  30.7697086  28.2992573  70.5315247
  50.6428490  55.9990845  36.6168556  50.2451820  56.6980820  36.0977249
  51.0749779  56.4538651  37.3398132  25.6262646  71.6045609  31.3128910
  26.4978771  71.2323532  31.4470005  25.2509117  71.0853043  30.6017570
  14.6461477  58.1094322  14.7423506  14.6817970  57.8978958  13.8094988
  13.7769861  58.4900284  14.8685932  42.3248215   7.0144954  13.2751493
  41.7632446   6.2462325  13.3782797  41.7265091   7.7588882  13.3394508
  23.7730141  65.4288559  59.1276741  24.3056602  65.9667053  58.5418129
  24.3919449  65.0995255  59.7793617   2.0100729  53.2524223  62.3924255
   2.1655514  52.5253983  61.7895241   2.3989794  54.0113983  61.9577522
  38.7025032  46.6028442   8.5387020  38.2695122  45.8577499   8.1220617
  38.1148758  47.3413544   8.3789415  63.4167633  46.2474403  15.3792553
  63.6117744  47.0880699  14.9650764  63.3374062  45.6334419  14.6492300
  69.4477158   5.3372011  30.6738701  68.6156158   5.8029075  30.5903988
  69.4303894   4.9725657  31.5587273  27.2745686  10.9487219  31.8861256
  27.0276279  11.8716993  31.9441319  28.1785450  10.9224749  32.1997643
  53.9256020  54.9701309  53.0645523  54.3970070  55.2302780  52.2731400
  53.7692833  54.0324059  52.9528847  45.0389977  46.5973778   9.6472492
  45.0634346  46.1025581  10.4662657  44.5683746  46.0287437   9.0378218
  36.9083214  33.5851669  12.2283096  36.9991608  34.3803787  12.7532988
  37.0565033  32.8708344  12.8479900  70.3528900  44.5872688  47.0054436
  71.3067932  44.6667023  47.0042915  70.1784668  43.7885132  46.5076523
   4.4043560  59.6896095  65.1022263   3.8419707  59.9650574  65.8261642
   3.9756658  60.0373344  64.3202133  75.6574326  54.7193108  15.5559340
  75.4223404  55.5376816  15.1186323  75.9648056  54.9897957  16.4211445
  44.6060448  49.0871239  10.8755522  44.7649231  49.8425941  10.3096418
  44.4961357  48.3535652  10.2705374  27.0053978  29.0504932  87.4036789
  27.2170734  29.7939148  87.9682617  26.0781059  29.1643429  87.1953583
   0.5454746  54.8622475  68.1448975   1.0680115  55.6439590  67.9656982
   1.1680530  54.2384109  68.5183334  41.1298561   0.1980835   1.2478225
  40.4139977   0.5498585   0.7186431  40.7373314   0.0388283   2.1061902
  32.9113579   4.0750766  61.5585136  33.4708824   3.3745983  61.2231102
  32.3036880   4.2598667  60.8423958  39.8496857  51.4168968  15.8392239
  40.5847778  50.8276482  15.6699467  39.0754166  50.8573189  15.7791605
  22.8252335  10.9187937   9.5213928  23.3099670  10.1511755   9.8247538
  21.9540310  10.8189764   9.9051523  56.8393517  68.1169510  48.7541351
  56.1660385  68.5552063  49.2745361  56.3734932  67.7939529  47.9828529
  67.0641556  64.5680618  14.5806990  67.8579254  64.9590302  14.9458208
  67.2845078  64.3877487  13.6668262  25.5815907  55.9856682  69.1798935
  25.5128193  55.8547859  68.2341843  24.7794228  55.6016006  69.5338058
  67.5370178  17.4084530  28.9108753  67.1588669  16.5379601  29.0352650
  67.2622757  17.6653996  28.0306892  82.5222397  19.2126694  22.6307793
  82.5435715  19.8361950  21.9048367  81.6066132  19.2009010  22.9095726
  24.9797611  19.5506516  81.4957428  25.4279499  18.8558865  81.9780884
  25.0628223  20.3227520  82.0553741  48.5717354   0.4830109   2.4093869
  48.9357643  -0.0838675   3.0893586  48.4066010  -0.1038079   1.6714121
  84.7312622  46.3201523  84.7748337  84.9850082  46.6812859  83.9254684
  85.2616806  46.8031273  85.4085693  26.9677162  49.2957878   5.1746225
  26.0537434  49.5796394   5.1568065  27.2254677  49.2602272   4.2534647
  48.6006622  31.6697197  27.6083088  48.4682961  31.9423904  28.5162525
  47.7188721  31.6356640  27.2374783  86.0506821  43.3995056  18.7711735
  85.7245865  43.5490417  17.8837414  85.3033752  43.5938530  19.3368626
  71.8389206  55.4116020  27.8900089  71.9883194  55.4238777  26.9446201
  72.6459198  55.7646523  28.2646236  33.1437531   6.5391536   0.3390265
  34.0388489   6.6839762   0.6457247  32.6512375   6.3232312   1.1308818
  59.7287636   7.5524082  74.9671631  59.4172287   7.6132426  74.0641251
  59.4733086   6.6743612  75.2500153  57.1131592  58.5128479  53.1400757
  56.1969986  58.6381607  52.8927307  57.3491211  59.3179779  53.6008606
  57.5995216  44.9117432  47.8249207  57.3318977  44.9104576  48.7439461
  57.9377823  44.0293312  47.6727295   5.3457417  36.3054504  81.2736664
   5.7386327  37.1055641  81.6224976   6.0880451  35.7203445  81.1224365
  26.5015278  54.3947105  60.3687172  27.3722954  54.7775192  60.4757423
  26.6517391  53.5951385  59.8643799  19.1480846  52.8668289   2.0753839
  20.0543556  53.0577278   1.8335886  19.1556931  51.9419327   2.3218405
   1.0573241  65.4420242  82.5788422   0.7968507  64.5243378  82.6577759
   0.2413704  65.9321442  82.6800003  18.6977291  69.0067749  43.8064957
  18.2105980  68.3481674  43.3113518  19.0123901  69.6208801  43.1431007
  31.0801716   5.8758082  14.2784481  31.5208702   6.7143812  14.4156084
  30.9241753   5.8387475  13.3347731  31.9257584  42.7993774  51.3399506
  32.6543694  42.3094673  50.9587135  31.9651852  43.6563644  50.9153824
  47.4683571  16.1496849  17.6035309  47.7166786  15.3393068  18.0483398
  48.2966423  16.5169868  17.2948837  79.0591660  43.3698654   8.5895548
  79.2642288  42.7480583   7.8913159  78.4753113  42.8881149   9.1754398
  15.9296074  11.2355509  58.4852943  16.3913612  10.8636179  59.2367439
  15.5824165  10.4759798  58.0175934  19.5792580  13.4824047  14.9231377
  20.1771126  13.2353325  15.6286573  20.0046730  13.1650534  14.1265554
  55.7628937  41.3601990  16.1306820  55.3163719  42.2038574  16.2020149
  55.3158951  40.9126129  15.4122887  16.6929321  58.5560760  72.8545914
  17.4126892  59.0312347  72.4393692  17.1087570  58.0597382  73.5595474
  64.7253418  46.4511261  39.6499367  65.5923691  46.3045998  39.2717552
  64.8859253  46.5417976  40.5892029  73.9715881  26.3554821  78.8500748
  73.7579803  27.0749683  79.4441681  74.2429428  26.7865696  78.0396652
  77.0315247   5.4601917  47.2227631  76.7437897   6.2951431  46.8535843
  77.8812180   5.6535511  47.6188202  61.5564232  56.7953072  26.9488583
  62.1818123  56.3782616  26.3562450  61.4967804  57.6983986  26.6372452
  38.2879639  53.9612465  56.0638428  38.1018715  54.2151337  56.9678040
  37.7775040  54.5729828  55.5333290  65.4929352  19.1922169  74.8478470
  66.1618576  18.5233517  74.9941177  65.6089020  19.4510269  73.9336319
  20.2018070  61.9019432  20.5597897  21.0708160  62.0498276  20.1867142
  19.7897701  62.7659149  20.5570145   3.2074373  69.9761505  43.8917961
   3.7070417  70.4232178  43.2085991   2.3046174  69.9864960  43.5739288
  63.2507210  66.8077545   7.3058453  63.3292046  65.9332504   7.6870446
  63.8275795  67.3542938   7.8394737  43.7243919  64.5424728  86.6181564
  43.4593811  63.9699478  87.3380280  43.4867821  64.0584717  85.8272629
  77.1286240  17.9147739  44.6087151  77.9048309  18.0762844  44.0723839
  76.4126205  18.3246727  44.1233711  52.3434906  45.4049988  17.6067104
  51.8431015  45.0587463  18.3455963  52.1684265  46.3459740  17.6188278
  51.1207504  57.7354088  71.0160370  51.6566238  58.1891403  71.6665726
  50.9686584  56.8689194  71.3932571  50.0190201  38.8366585   5.3906922
  50.6641388  39.5118484   5.1805263  50.1878510  38.1387672   4.7577038
  74.7949829  68.8734970  50.0599174  74.1454391  68.2122269  49.8210678
  75.0030518  69.3135147  49.2357101  38.9451828   3.5200479  17.3630123
  38.3452759   4.2558627  17.4851570  38.5705070   2.8152940  17.8913803
  62.1118088   4.6711183  57.6935654  62.3958282   5.1267633  56.9011307
  62.0201454   5.3634858  58.3481293   8.8153105  41.6438904  68.7060318
   8.6627455  42.5176544  68.3461838   8.2161446  41.0769157  68.2204666
  28.6497078  45.5322456   7.1220365  28.6426678  44.9343948   6.3745346
  29.5424328  45.4786339   7.4632120  10.5256319   0.8704359  74.0324707
   9.8720951   0.1939034  74.2097473  10.0122986   1.6450160  73.8028030
  63.4739037  12.1325912   4.9833398  63.6343307  11.4428444   4.3393345
  62.6953316  12.5858622   4.6599164  85.6110077  34.7133598   6.4713225
  84.8602142  34.3650932   5.9904375  85.2256393  35.1691971   7.2196121
  48.8404045  12.9133005  73.0176468  49.0296669  13.0985556  72.0978165
  48.0091476  12.4390154  73.0003281  71.8175888  30.4998322  14.2691174
  72.0880280  29.6788387  13.8579426  71.1753387  30.8706188  13.6639185
  76.5391693  14.4410667  83.2108917  76.5226517  14.2608938  84.1508408
  77.2938766  15.0174494  83.0907364  62.7715874  12.4736671  42.6314354
  62.2793655  13.2881937  42.5289803  63.5730019  12.7336435  43.0857239
  81.6592789  49.5838318  30.6149807  82.5212784  49.2592735  30.3545208
  81.5937500  50.4458847  30.2041187  55.3510818  54.5370026  15.8500376
  55.8288879  53.9622536  15.2520390  54.4703903  54.5899849  15.4788179
  17.2732048  56.1419334  38.1583366  17.8237228  55.5040321  38.6124802
  16.5006237  56.2317848  38.7162552  68.3791733  28.2277832  50.5178070
  68.1517334  28.8970108  51.1632843  67.7468033  28.3527908  49.8101997
  20.6883564  39.1396408  69.9180222  19.8966274  39.1170616  70.4555054
  21.3850536  38.8467293  70.5054245  75.2278366  38.8691597  13.0127096
  75.2617950  39.1673241  12.1037664  74.3271332  38.5681419  13.1325407
  83.1543198  34.2215157  83.1219101  83.0762177  33.2773209  83.2584152
  83.5591965  34.5470657  83.9258499  66.9833832  21.4924679  68.2350235
  67.1005249  21.1096611  67.3655624  67.6197586  22.2066307  68.2700119
   8.1221828  52.4909477  72.8443451   8.1400700  51.9596481  73.6403503
   9.0386028  52.5481300  72.5739059  62.0895424  30.4834099  48.5393181
  62.3756561  30.1590252  49.3932152  62.8924446  30.5326557  48.0205116
  28.3951454  42.4610023  22.7153530  28.6402569  43.2600937  22.2488728
  29.1114063  41.8511467  22.5384865  72.0610962  64.3128433   5.6041179
  72.4907227  63.6748314   5.0343928  72.7717896  64.8744659   5.9135151
  10.7779512  12.0397654  53.7070885  10.5210228  12.2600718  54.6024551
  10.3457546  12.6994953  53.1646881  42.3481827  25.4126549  36.1180115
  43.2035179  25.7917233  35.9156837  42.4137344  24.5036831  35.8252563
  76.9518814  30.0107212  21.4241390  76.9261780  30.9597225  21.5464821
  77.2369156  29.6676750  22.2710800  48.5785255  52.6511154  75.5657806
  48.5351753  52.8906822  76.4915009  49.4785957  52.3515739  75.4377899
  18.0282192  38.9731712   3.0063863  18.2936630  39.3220367   2.1554675
  17.7408066  39.7407227   3.5008438  41.2605972   9.7432623  17.4478397
  41.8745880   9.6487732  18.1760693  40.7105179   8.9613523  17.4953556
  12.6072035  66.2043076  71.5860825  12.4896059  66.3463058  70.6468048
  12.8729906  65.2875900  71.6583023   1.1539575  71.1621857  86.2565918
   2.0860310  71.0463638  86.0720520   0.7122626  70.8370132  85.4721222
  56.6597633  62.8157654  51.8034210  56.2043457  62.2314949  51.1972389
  55.9611320  63.3197365  52.2207451  53.2475166  38.6717491  50.5043297
  52.6581573  37.9444389  50.3045616  53.0737610  39.3162155  49.8182526
   2.4696522  37.4370499  16.7745991   2.2603672  36.7257652  16.1692009
   2.5900176  38.2023964  16.2124710  54.3372231  65.1451874   5.8142228
  54.5577354  64.3144226   5.3929954  53.8522720  64.8938675   6.6002851
  78.2621536  10.3037043  63.9086380  78.7583771  10.7699976  64.5813675
  77.8222885  10.9946823  63.4133644  20.1226692  40.2658157  15.7584572
  20.2873631  40.2106171  16.6997643  20.3205643  39.3892059  15.4288721
  29.3549805  51.7039833  40.0533371  29.4103394  52.0614510  40.9395561
  28.4406719  51.8314819  39.8003235   0.4102297  62.4264793  61.5250511
  -0.5413244  62.3463860  61.4590073   0.5747673  62.5649796  62.4577751
  54.7202377  60.9104843  10.9349070  54.3961334  60.7750969  10.0444813
  55.5051956  61.4471436  10.8250666  41.9977493  55.8820267   2.1994596
  42.3162384  55.7037811   1.3145725  42.7919121  55.9744644   2.7257602
  54.2009315  41.2649879  13.6005373  53.6220970  41.8505020  14.0887537
  54.6172104  41.8286781  12.9484653  73.6961441  39.9344368  58.7105789
  74.0164185  39.2829552  59.3344574  74.0815048  40.7591629  59.0064850
   7.4405270  25.7539120   6.1599483   7.6801991  25.1465855   6.8599081
   7.4490609  25.2195415   5.3658404   7.0842795  34.0585785  43.1105423
   6.8855643  34.2738571  44.0218048   8.0384531  34.1103325  43.0548019
  20.3358040  69.2235260  27.1095657  19.6696243  68.7426987  27.6007347
  20.2474842  68.9050369  26.2112350  39.2105904  22.5219841  11.0118294
  39.6062317  21.8524857  11.5699244  39.8674202  22.6891270  10.3359070
  35.5433578  63.2174835  26.8776283  35.5937424  62.2795258  26.6934376
  35.3001137  63.2673073  27.8020649  76.2464142  65.5853424  20.5596523
  76.0783539  65.1809616  21.4108067  76.2322388  64.8553391  19.9406776
  75.5292053  19.1664200  40.2566452  74.6885986  18.7945538  39.9895744
  75.6016693  19.9788723  39.7557411  59.8046646  47.7303581  24.6647396
  60.7574806  47.6738548  24.5927582  59.5153961  48.0144920  23.7976627
   2.2561114  36.4465714  61.7519226   1.4631572  36.7194710  61.2904243
   2.7712228  37.2487450  61.8379822  30.5017796  66.6161041  36.2172623
  31.2861195  66.6633682  36.7638931  30.3825512  67.5083466  35.8917885
  46.0230293  52.7638359  25.6429596  46.7566071  53.1745682  25.1853580
  46.1029854  53.0695114  26.5465088  82.8161087  57.2660980  76.6998520
  81.8949585  57.1959877  76.4492722  83.2684097  57.4952202  75.8879623
  78.2386551   9.4551659  49.9294853  79.0036697   9.6918230  49.4050941
  78.5605850   9.4430389  50.8308449  76.1092300  23.3602715   2.1741157
  76.6875229  22.6504803   1.8948327  75.8568573  23.1262150   3.0672898
  62.0782928  67.4723740  68.4183578  61.4866638  67.6599045  67.6896362
  61.9156990  68.1764145  69.0461502  69.1237640  35.5723610  74.4515991
  69.8505173  35.0897827  74.8455200  69.4233246  35.7752037  73.5654068
  83.8566284  55.8088760  15.5065308  82.9192200  55.8197479  15.6998873
  83.9153748  55.4367104  14.6266012  64.5799408  24.1140690   0.6383882
  64.6904907  24.4493752   1.5280950  64.7090759  24.8782730   0.0766518
  85.5893555  30.2931309  65.7342529  85.6639633  29.3999958  65.3981400
  86.4685440  30.5053272  66.0476608  57.2755623  69.3596268   5.3064179
  57.1384125  68.5935059   5.8636246  56.4062767  69.5636444   4.9615254
  53.7521591  36.9911728  35.6358719  53.0215378  37.0540848  35.0206795
  53.6384239  36.1388741  36.0564499  49.8806725  70.1332092  43.3244743
  50.5779572  69.6479111  43.7655029  50.1914940  70.2346497  42.4248428
  40.1049385  51.6009865  39.4819641  39.3002052  51.6688309  39.9958038
  39.8045006  51.4753036  38.5818672  81.3228760   6.2661729  12.4748411
  81.1158295   6.6520190  11.6236734  80.8568573   6.8144345  13.1060839
  57.4910393  43.3080673  66.4549026  58.1029968  43.4017181  67.1849518
  57.2838898  44.2069206  66.1992035  45.3349609  63.2965622  66.0071182
  45.6892433  62.4194527  66.1533661  45.5450325  63.4904747  65.0936050
   1.2603803  29.1158390  82.5748367   1.9464202  29.7827873  82.5472336
   1.5260061  28.5281315  83.2821350  55.7005043  18.6786652  70.6048355
  55.5665016  17.9228783  70.0329437  55.9123116  19.3962326  70.0077820
  57.8459587  40.3834000  73.5919800  58.6074753  40.2014198  74.1426239
  58.0401344  41.2283821  73.1863480  73.7980728  21.9830551  16.8359070
  73.6801376  22.7654114  17.3746490  73.5489044  21.2579002  17.4088783
  57.6101723  22.2855301  13.7480173  58.3178062  22.0779438  14.3582563
  56.8528481  21.8093700  14.0885468  41.4765091  60.9125481  82.7586746
  41.9194221  60.0773392  82.9086151  41.4335518  60.9931984  81.8058395
  83.5190125  16.9106274  88.0196304  83.7308426  16.8179150  87.0907822
  84.3697586  16.9601822  88.4555283  85.9177933  56.6260071  36.2884521
  86.7483292  57.0970497  36.2209320  86.0222931  55.8718834  35.7082710
  60.4848747   1.3660175  65.2684631  60.3825188   0.8426504  66.0633469
  61.1152077   0.8771854  64.7393494   4.2062135  34.2357788   9.6160498
   3.9374576  33.8931618   8.7636318   4.3610325  35.1676674   9.4616337
  66.5735092  25.5634861  68.9586182  66.8432236  26.0388870  69.7444153
  65.7177353  25.1974754  69.1820297  32.6534691  61.6398087  42.1406746
  32.8324852  61.8697662  41.2289124  32.1058922  62.3548203  42.4649429
   7.7682743  20.4747181  88.1263275   6.8317494  20.2779865  88.1051254
   8.1750536  19.6692257  88.4456100  32.5694923  54.4409409  81.6441803
  32.3281746  54.1353607  82.5186081  32.6654701  53.6401672  81.1286469
  69.0279388   2.1287448  34.0144119  69.3607941   1.3863207  33.5101852
  68.1068954   2.1956651  33.7625465  52.1987762  46.5102654  25.5975227
  52.9715691  45.9839706  25.3924828  51.5401459  45.8720207  25.8715248
  10.4289093  40.9648361  36.1865692   9.8387728  41.6490173  35.8705482
  11.2912588  41.3800354  36.2005806  57.2416687  35.0241776  87.1853180
  57.3236656  35.0267868  86.2316360  58.0483322  34.6115265  87.4939346
   7.4012909   3.5387566  87.4785690   7.9291697   3.2239017  86.7447891
   6.5400386   3.1444974  87.3405991   7.6323986  69.7086334  65.2275085
   8.4411755  70.1922607  65.0595474   6.9435267  70.2553711  64.8496628
  17.3543320   5.0314212  81.7509460  16.6206665   4.4765410  81.4862366
  17.4353752   4.8876295  82.6938095  22.3514519  31.6920471  78.2137604
  21.6603050  31.2701473  77.7033157  22.8822422  30.9669571  78.5435104
  55.4776993  64.8600540  89.1374435  56.1110497  64.3088760  88.6777725
  55.9321022  65.6930466  89.2634735  46.8685341   6.5689769  15.8538914
  46.0257683   6.4749160  15.4098978  47.4654617   6.8769722  15.1719456
   5.5284595  39.6561165  36.9018898   5.4189630  39.9475784  35.9967422
   6.3812780  40.0030632  37.1637268  19.6523647  50.4656601  28.8980103
  19.2155075  51.0557213  29.5121918  20.5447941  50.8056068  28.8329086
  70.4151611  55.8139343  23.6058445  69.8067627  55.0849762  23.7270699
  70.2527466  56.1153450  22.7119732   4.1160669  16.1455650  86.3196106
   4.8661647  15.7502089  85.8754425   3.8273168  16.8412209  85.7289124
  46.7809105  44.4962349  69.8996353  45.8849678  44.7623405  70.1063080
  46.9253845  43.7110367  70.4276733   1.5738447  59.5331573  10.9369154
   1.6825398  59.9963913  11.7674761   2.4149084  59.0995255  10.7926683
  34.3127899  25.9126072   9.7071695  34.7218781  26.3424454  10.4582462
  33.4211235  25.7205658   9.9974937  71.2362900  29.6519489  77.9930573
  71.4944382  28.7672482  78.2517090  71.6073761  29.7634773  77.1177902
   0.0737198  17.3456249  34.1867142  -0.6665938  16.7506504  34.3057671
   0.8398443  16.8266926  34.4316521  49.8503876  12.4603262   6.2205105
  49.7865067  11.8256445   6.9341836  48.9928551  12.4307909   5.7962456
  52.3364296  51.5647430   6.9895611  52.1714783  51.2709579   6.0936184
  51.6107292  52.1576500   7.1846375  62.4395943  11.8079300  17.4564838
  62.3600578  10.9957991  16.9561348  63.1184235  12.3049755  17.0000095
  64.1631699  59.9488411  76.9139709  63.9216042  59.0227432  76.8989792
  63.6684456  60.3371239  76.1923599  25.8009262  62.6343193  22.6773758
  26.0211029  61.7676201  23.0188274  25.2467442  62.4584846  21.9169827
  13.7801809  56.9852295  12.1628513  13.5625038  56.6154137  13.0184708
  12.9784288  57.4259338  11.8814125  42.2930794  67.2146149  40.3781548
  42.8817253  66.6594009  39.8668251  42.6051254  67.1287460  41.2789803
  33.2010994  56.0398483  71.9196548  32.8347244  55.2594414  71.5037689
  32.6586151  56.7598152  71.5978088  70.1199951  20.6967239  61.6869812
  70.5309372  19.8962250  62.0134125  70.7946014  21.3688717  61.7836838
  37.8686867  48.8985329  17.2861023  37.7357864  49.7921219  17.6024342
  36.9905472  48.5908775  17.0614967  53.4315643  56.6784515  69.8719254
  54.0146141  56.8089981  70.6197510  52.5603027  56.8887787  70.2079239
  32.6543808  56.9537697  55.9147034  31.8116837  56.9302864  55.4613342
  33.2939568  57.1225433  55.2228279  50.5533981  56.5395927   5.9100051
  51.1856499  56.5902290   5.1931167  49.7467957  56.9025116   5.5440669
  66.8290939  65.6549911  69.6043091  67.0387039  66.2011108  70.3619690
  65.8842697  65.7569122  69.4896393  64.1050034  70.0529099  44.3519783
  63.3218765  69.5448837  44.5637627  64.3159714  69.8038559  43.4521484
  82.5885315  33.9139977  43.9310837  82.2520752  33.2955399  43.2825928
  83.3919067  34.2575226  43.5401802  55.6678734  42.0375252  19.8888054
  56.0446625  41.9331665  20.7625160  56.2781982  42.6166687  19.4323769
  78.4161682  17.1572418  33.0975685  78.9755478  17.5862370  32.4500427
  77.5287781  17.4325848  32.8674507  69.4868164  47.5082970  72.3514709
  70.4041519  47.6588478  72.1232834  69.3463821  48.0343895  73.1387024
  75.5492020  24.4996796  19.4762611  75.8740845  24.5783539  20.3731937
  76.1610870  23.8983250  19.0517654  80.4885406  66.5110779   7.0643144
  79.8861923  67.1000366   6.6098590  81.0038376  66.1091537   6.3649149
  31.7636547  57.4039307  63.0035362  31.4471169  58.3064766  63.0416145
  31.2943859  56.9556465  63.7071419  45.6951561  66.5750046   0.7767517
  46.3838234  65.9187851   0.6702606  44.8879967  66.1145554   0.5471674
   9.7701530  51.5447273  81.7997208  10.1630259  50.6727219  81.7610626
   9.9805202  51.8635101  82.6774139  50.9361343  67.8775024  58.2724571
  50.9246178  67.4602127  59.1338310  51.6786728  68.4804840  58.3083420
  72.7060623   4.0296149   4.3912320  72.0294647   4.6876020   4.5509181
  72.2706223   3.1933477   4.5564108   5.1930294   6.1056657  13.4867115
   4.4911284   6.4821677  14.0175714   4.9713535   5.1768456  13.4204941
  64.8688507  33.2170563   9.8313131  64.4393845  33.4903107   9.0206833
  64.1799622  33.2622910  10.4943495  31.3235397  62.0259514  77.2919693
  31.6774273  61.1366463  77.3034515  30.3741989  61.9063072  77.3178482
  45.5200806  47.6698074  23.3050423  46.0292587  48.4672203  23.1597652
  44.9309006  47.6213608  22.5522137  58.3796349   7.5085907  54.9937553
  58.4185410   6.5790925  54.7684746  59.2655258   7.7211452  55.2874336
  26.4730511  54.3834114  15.5602598  27.1906300  53.8309021  15.8701725
  26.3773251  55.0536003  16.2369537  72.2627945  11.9547644   2.7368023
  72.7502289  11.8096313   1.9258913  72.9380875  12.1005688   3.3993397
  75.9764709  60.9165306  82.0261002  75.6145020  61.1174469  81.1630554
  76.9230881  60.8856010  81.8875198  37.1482468  11.6517420  75.7112579
  36.7861748  12.0377932  76.5088196  36.3823547  11.3549814  75.2197571
  68.6890259  57.7184601  31.6790771  68.4782104  58.5974617  31.3642101
  68.3013000  57.1319695  31.0295181  54.5814896  15.8541737  18.6322308
  54.5695686  16.8090439  18.6978931  54.1474915  15.6658802  17.8001118
  75.9737396  43.7203217   4.2008314  75.4723969  43.6517181   5.0133462
  76.2872162  44.6246490   4.1884437  70.4240341  61.7749481  19.0732269
  71.1504745  61.4734497  19.6187611  69.6391678  61.4813156  19.5358295
  78.4497147   8.7269230  70.2939682  78.5546188   7.7891994  70.1330261
  78.2950974   8.7923775  71.2363281  53.1995811  44.4629860  22.5160122
  53.5733147  43.6685715  22.1346226  52.5132942  44.1466484  23.1035271
  69.1900558  39.3703117  62.1383286  68.5320206  39.4477158  62.8291435
  68.8230972  38.7301216  61.5286369  22.6940880   1.8327849   2.6431801
  23.6050339   2.0658548   2.8223112  22.4784927   1.1799238   3.3091555
  13.0168362  56.7980537  76.1711578  12.7255840  57.4807014  75.5666809
  12.4116793  56.8585472  76.9103241  84.5066833  22.2663670   7.6997509
  83.8807831  22.1683922   6.9821973  84.9902802  23.0649261   7.4883947
  55.2028732  12.4193363  72.3867340  54.4151001  12.4448967  72.9298706
  55.8810539  12.0697289  72.9647293   1.4573460  25.3640213   3.1884620
   1.8776264  26.0893764   3.6504757   1.2543046  24.7284431   3.8747904
  76.6132736  52.2016792  66.4823074  75.6795120  52.2687263  66.2827225
  76.9721527  53.0549316  66.2385941  76.7073898  64.7471085  58.7071877
  75.9747849  65.2417145  58.3399124  76.3794022  63.8506813  58.7784462
   9.3232298   8.8128471  50.2068672   9.4513426   9.3342619  50.9992943
  10.0639133   8.2066164  50.1967010  41.2068710  67.4299164   1.3392438
  42.0394669  67.8447952   1.5648271  40.9835663  67.7917480   0.4816644
  10.8289318  38.5286255  39.9290810  10.6689577  38.3674698  38.9992065
  10.6533804  37.6878281  40.3515511  72.1368256  32.6212883  45.9537315
  72.3802872  32.4170189  46.8566360  71.3294983  33.1294632  46.0324745
  72.3237381  43.7396202  62.0107536  71.7885895  44.4463615  61.6496887
  73.1288986  44.1710358  62.2968102  50.8926430   9.0207939  54.8440666
  51.1804161   8.3350172  54.2414665  50.3911133   8.5560369  55.5139198
  25.0119534  24.3248787   0.8739235  24.2613945  23.8048153   0.5868213
  25.7195129  23.6883163   0.9757966  71.9303741  70.4185181  25.1172333
  72.5808868  69.7440948  25.3127441  71.6641617  70.7502670  25.9747314
  26.4411469  26.9005814  65.1401291  25.8265667  26.3085327  64.7065430
  27.2781963  26.7371979  64.7055206  41.3353729  62.0477943  40.1727448
  40.7066154  61.3290215  40.1075058  41.1421165  62.4593582  41.0150604
  72.3835144  16.3240433  48.9875221  72.9394073  16.5166473  49.7425842
  71.5483475  16.0522175  49.3680954  54.6082573  22.8536625  82.6114578
  54.7816429  23.1036491  83.5190201  55.4513702  22.5402355  82.2841110
  82.4392242  56.0118866  82.4954453  82.1072845  56.6673126  83.1090164
  83.3564835  55.8950424  82.7428513  85.7207947  27.6924095  65.4309692
  85.0520554  27.2566910  64.9026184  85.6528931  27.2791042  66.2916718
  69.3731384  18.2855320  86.9408264  68.6742554  17.8514462  86.4515762
  68.9572906  18.5632801  87.7570190  80.7074585  45.7452736   7.9262381
  79.9605637  45.1469536   7.9065099  80.3386612  46.5792313   8.2173347
  61.6686134  38.4890175  61.3791466  61.9614525  39.0992966  62.0559273
  61.5136070  39.0391922  60.6113472  84.8011551  12.8655434  25.2322960
  85.3548584  13.4998150  25.6876469  84.3984451  13.3654060  24.5222282
  59.3026466  10.2310934  67.6947403  60.0209465  10.4377556  67.0967712
  59.1814957  11.0295582  68.2085648  74.4706726  64.4972076  27.7255669
  74.3595200  64.0977097  26.8628502  73.5792313  64.6857224  28.0188694
  26.6900330  49.8660278  37.4593582  27.0461502  50.7206459  37.2163734
  25.9342766  49.7490234  36.8837051  41.9216232   0.6720741   9.5618792
  42.2472725   0.0774848  10.2376366  41.8349190   0.1238546   8.7820272
  76.2451553  48.5125351  33.9907227  76.6357880  48.8223495  33.1736183
  76.5427170  47.6062126  34.0699043  52.8305779  41.0496941  27.8582592
  53.4566193  40.5681915  27.3174648  52.4060478  40.3765297  28.3901005
  77.8107834  37.6883316  10.2021933  77.0807190  37.1577377  10.5211248
  77.6999664  37.7014503   9.2515192  29.4539738  38.9823418  57.5691032
  28.8763599  39.6855354  57.2722664  30.2081661  39.0277481  56.9814224
  68.0730743  25.0823975  80.7577591  67.4605408  25.5614853  80.1996384
  68.7471695  25.7246151  80.9799957  78.2379837  33.1519966  67.8764572
  78.8564606  33.6611748  68.4003372  78.6416626  33.1029549  67.0099258
  22.3071766  68.9310760  30.5811386  22.6979542  68.9958572  31.4525337
  22.6049843  69.7186890  30.1259365  59.4920464  50.6011314  14.1925030
  60.1817398  50.1846733  13.6756678  59.2058105  51.3414917  13.6575527
   7.3551197  50.3766251  11.6622162   7.1072693  50.3305397  10.7388105
   7.9230328  51.1450005  11.7197094  80.4055099  54.1408234  52.5388451
  80.7521896  53.8029861  53.3646240  79.6130600  53.6268463  52.3836288
  27.6255798  61.8582268  71.8864288  28.1533108  61.7267990  72.6741180
  28.1344738  62.4720764  71.3568497  10.1114159  13.9944601  82.1728973
  10.1923399  14.7658415  82.7338333   9.7833233  14.3364363  81.3412476
  43.5530968  43.0216942  14.4302588  44.1437225  43.4921417  15.0185356
  43.0482140  43.7099266  13.9970617  62.6234398  45.0376129  52.9701691
  62.4017754  44.3090973  53.5501366  63.3764725  45.4556580  53.3877945
  14.6273146  37.7464294  14.7262964  15.4933071  38.0598450  14.9871807
  14.0866432  38.5356483  14.6941109  -0.2693538  54.4592476  63.0412178
   0.0613237  55.1768532  63.5815201   0.4786425  53.8704147  62.9411697
  47.3174057  50.2755165  26.1688690  47.7578583  51.1231613  26.1078033
  48.0297165  49.6399994  26.2393341  33.0009689  58.4155655  74.6144104
  32.5475159  58.6877975  73.8166046  33.8321228  58.8897781  74.5911865
  82.7736130   1.6891311  51.9910507  82.4405746   0.8507255  51.6710548
  83.1180267   1.4932064  52.8623848  60.9099274  -0.1865389  55.7616768
  60.8713036   0.7035913  55.4118080  61.6669655  -0.1810186  56.3474197
  51.7939110  58.6979103  10.2772837  52.3089447  59.1359940   9.5997477
  50.8891144  58.9472122  10.0890617  38.4288597  36.4825630  69.0567932
  37.6456833  36.3488045  69.5906219  38.1070175  36.9070168  68.2615051
  74.2617645  53.0693703  57.2338028  75.1555252  53.2072983  56.9201317
  73.7089844  53.4868240  56.5731926   2.3782289  57.6344643   5.5606279
   2.2132571  56.9554367   4.9064593   1.6257167  57.5868530   6.1502810
   2.1872852  42.2988586  15.7053823   1.9635173  42.7344284  14.8829250
   1.3697094  41.8907661  15.9904480  27.5241852   2.2916126  41.0033531
  27.0749912   3.1364746  40.9775505  27.3870277   1.9745959  41.8960571
  59.4885902   6.7587252  33.8319016  58.9962845   6.8143101  33.0128937
  59.9934502   7.5713444  33.8635063  27.3251724  24.2484741   4.2437468
  28.0197163  24.2473469   3.5850823  27.0427265  23.3353634   4.2955456
  24.6732368  59.0870934  13.4610815  25.0931149  59.0217018  14.3187876
  24.7914505  60.0019798  13.2056656  27.4216137  68.7464218  19.7832718
  27.6233864  68.3408585  18.9400387  28.1918316  68.5709763  20.3238392
  78.5515823  49.4145050  70.3482742  79.2528763  49.6673431  70.9486847
  78.8117142  49.7869606  69.5057526  66.6690598  12.0526381  30.4221649
  66.0904770  12.7645311  30.6954479  66.1408615  11.5344000  29.8149796
  84.5923309  58.5405884  79.8485641  83.9265976  57.8560600  79.9153366
  84.8138199  58.5693092  78.9177856  65.0113602  27.3642101  82.2231674
  65.7583237  27.4848061  82.8094559  64.2996826  27.0808144  82.7971420
  48.2494316   6.1879153  40.0205956  48.5658455   7.0300117  39.6935005
  47.6061592   5.9049373  39.3707047  72.8717041  68.5541229  26.9331131
  72.3634186  67.7647247  26.7467480  72.7155991  68.7258224  27.8617573
   8.7717676   4.8687305  18.1397247   8.4955750   5.3652611  17.3693962
   9.4302835   4.2584400  17.8078613  56.0229721   4.3449640  19.2903194
  55.3118706   4.8149190  19.7258778  55.7480698   4.2893710  18.3751316
  60.6689301  10.8494816  34.1622047  60.7938080  10.8811665  33.2137146
  60.3079376  11.7075357  34.3850517  84.0951233  19.7675152  16.5511742
  83.6729507  20.0752640  15.7491188  83.8694305  18.8385525  16.5993671
  22.3468800  28.5511131  77.6890182  21.9279594  28.6094360  76.8303375
  23.2577248  28.3285408  77.4965210  13.9799118  51.8201027   9.5273571
  13.7005634  51.8165321   8.6118326  13.9147263  52.7370758   9.7940845
   3.0561697  60.7298660  53.5420036   2.2281845  60.4106445  53.1831551
   2.8636744  61.6216125  53.8317642   3.2347889  13.1037054  11.1328745
   3.1230409  13.3800173  12.0424881   2.6399844  13.6662283  10.6368828
  62.3475761  22.1224785  10.9480944  62.0914917  23.0381107  10.8373241
  62.0960808  21.7022591  10.1256609  35.8854218  59.2741127  74.2007675
  35.8062057  59.6865616  73.3406296  36.7978973  59.4173546  74.4519577
  45.1711197  70.3535690  83.9077835  45.3785973  70.8079758  84.7243042
  45.8816986  69.7216873  83.7981033  39.4064178  34.6112480  38.6238556
  39.7423058  33.7815781  38.9630585  38.7046089  34.3582573  38.0241165
  10.0721312  44.7114639  17.5047226   9.7158012  44.0798607  18.1294918
  10.4212952  45.4166145  18.0497723   4.5338111  15.2481136   1.7682844
   5.2887373  14.6611013   1.7266339   4.7519283  15.8699169   2.4625590
  19.8920155   8.1006088  26.4496002  19.3291683   7.6551757  27.0828667
  20.5619049   8.5277939  26.9834480  54.9654961  13.8010654  66.8069611
  54.3264618  14.4891500  66.6214676  54.6482620  13.3900328  67.6111069
  70.8648834  35.1250343  89.0602570  70.3916626  35.5915184  88.3712769
  70.2025375  34.5703316  89.4723663  29.9541988  69.1563797  86.7785873
  29.6414585  69.4545135  85.9244537  29.7014980  69.8541870  87.3830948
  53.5818176  13.8192959   7.5206733  52.8159637  13.3921413   7.1369605
  53.9876671  14.2851181   6.7895579  34.1018295  18.0819912  75.9474258
  34.8010559  18.5579395  75.4993362  33.3006973  18.5429344  75.6985321
  75.7565842  20.7477093  67.5811157  76.3403015  21.1551933  66.9412231
  75.3024521  21.4826965  67.9931717   1.6509526  17.9134617  30.6007671
   1.0766453  18.6070347  30.9253578   2.3903587  18.3784218  30.2092018
  67.4400177  63.1708946  83.8383560  67.1907349  62.2477303  83.7952728
  67.3472214  63.4862480  82.9393692  70.4607315  12.6042480  46.0711899
  69.5291061  12.7541189  45.9104271  70.8478622  12.5442038  45.1978340
   1.2147025  66.2832565  67.9382019   2.1371503  66.5305023  68.0029221
   0.7767199  66.8163834  68.6016617  14.3133545  50.5891991  71.8304901
  15.0190697  49.9445572  71.8818130  13.6584339  50.2776070  72.4551620
  79.6336899  49.5817566  81.1008224  78.9742889  50.2401657  81.3197250
  79.1648636  48.7485313  81.1473770  63.2135429  63.4481812  79.4746475
  62.7255974  64.1510925  79.0456390  62.6719856  63.2042160  80.2252731
  83.4267502  16.9666901   3.1758296  84.0993195  17.1728382   3.8249762
  83.8148575  17.2229004   2.3391905  19.7968102  15.5438194  70.9464874
  20.2076473  16.4073677  70.9880905  19.2819519  15.5621405  70.1397552
  49.2595482  44.3841286  16.7746601  48.7663345  45.0625954  16.3135109
  50.1221313  44.3912811  16.3597775   0.8157817  35.3022919   0.4905190
   1.2816275  34.4662132   0.5044137   0.1480006  35.2157326   1.1708188
   7.6475163  66.1534500  35.4986343   8.5765810  66.3568878  35.6067314
   7.5735297  65.2321472  35.7475281  32.0143852  51.4149094  25.5877113
  31.5122471  51.3061066  26.3953304  31.3511887  51.5250816  24.9063396
   1.9492821  17.0378132  22.6205482   2.4885638  17.4988518  23.2630844
   1.2790146  16.5969238  23.1426506  57.5812149  38.4634476  38.7288818
  56.8270416  39.0214119  38.9189682  57.2192345  37.7353477  38.2238350
  78.4363022  30.1232700  10.2111568  77.6890640  29.8417950  10.7390184
  78.0448685  30.4912891   9.4189625  66.5770493  67.4467773  23.9152775
  66.9396667  66.6021576  24.1824017  67.0198212  67.6475296  23.0907269
  68.0410004  70.5222931  51.3089714  68.7654877  70.9527664  51.7628937
  67.4094543  70.3236237  52.0002899  42.5702896   7.9791040  73.4386368
  43.2112579   7.9281182  72.7295609  41.7501030   7.6859870  73.0416336
  69.6870117  34.1091766  46.0647392  69.3046646  33.2673073  46.3123322
  69.5157318  34.1831741  45.1258965  18.6166649  46.8881607  42.2605324
  18.4137039  47.7474937  41.8909531  17.8033695  46.6106033  42.6821289
  19.1911812  66.0527344  75.8036804  18.9800396  65.3640289  75.1733322
  19.6396809  65.5964661  76.5156555  31.2408085  70.0913162  14.9986191
  30.3433456  70.3420258  14.7796793  31.7549706  70.8841476  14.8460484
  52.7573853  20.9651031  31.4143543  52.4919357  21.3806076  32.2347946
  53.0150261  21.6935520  30.8493633  31.0742283   2.2428632  12.3771696
  31.4219227   1.4860972  11.9053164  30.1239395   2.1371548  12.3323393
  39.9026642  61.4097099   8.1393270  38.9662590  61.2593040   8.0098820
  40.1636848  61.9504623   7.3938837  29.3490906   8.2206144  14.6930361
  30.1872921   8.6644802  14.5640717  29.5792217   7.2959528  14.7839937
   1.3390208  35.1266785  47.3929176   1.3893825  35.8159752  48.0551567
   2.1648779  35.1941376  46.9137077  26.9556313  30.5806599  11.0205507
  27.1503162  30.7094460  10.0922489  27.0872593  31.4429340  11.4147491
  37.2314072  61.0855255   7.2943177  36.8411789  60.7408218   8.0975208
  36.5259514  61.5816307   6.8790541  20.3563824  57.3658447  33.7521477
  20.3006496  57.4518394  34.7038460  19.4454002  57.3608932  33.4583511
  15.0193272  56.3659897  84.2573700  15.8774424  56.3504601  84.6811905
  14.9523048  57.2449608  83.8843384  61.6158943  27.6337337  78.8072357
  60.9254303  27.2022972  78.3039017  61.2358437  28.4739246  79.0638962
  12.0858202  39.1705360  79.8415756  12.0781584  38.4307251  80.4489136
  12.8924999  39.0590858  79.3385086  38.9885330   5.9374375  79.9133530
  38.5911331   6.0504265  79.0499039  38.3101311   6.2176180  80.5277634
  63.1516647  58.2015877  70.9309387  63.4792023  58.9576721  70.4438248
  63.3446960  57.4519768  70.3678589  59.9876060  51.8168755  31.0617485
  60.1012993  50.9697762  31.4927101  60.8049126  52.2845802  31.2334824
  49.0451164  52.4526329  68.8762741  48.6808205  53.2433014  68.4783249
  48.8354492  51.7540665  68.2563782  57.3821831  69.4381714  26.8436241
  57.8047714  68.8911591  26.1814861  57.1683960  68.8327713  27.5535660
   9.6548595  19.4691467  11.9148083   9.8516693  18.6129990  12.2949553
  10.4021349  20.0161724  12.1568279  43.1075401  64.5256500  39.2458382
  42.8893547  64.4261017  38.3191681  43.1497192  63.6295052  39.5795746
  77.3414688  47.0876312  61.9811859  77.9495468  46.6880264  62.6031036
  77.0747681  46.3670616  61.4103241   0.7409393  29.1151714  69.4840469
  -0.2007064  29.2529125  69.5868225   1.1346872  29.6026440  70.2076263
  39.4428062   3.7762206  10.9034634  38.5545197   3.9342513  11.2231541
  39.3725357   3.8550496   9.9521065  26.8698101   8.6781778  53.0297813
  27.7176037   8.2349825  52.9973183  26.9503651   9.2963524  53.7561455
  78.3943100  12.2399454  17.6922131  79.1719589  11.8449402  18.0865021
  77.6598358  11.8337641  18.1524296  68.6998062   1.8873842  36.6814613
  69.1385040   2.5994177  37.1470604  69.0174866   1.9582870  35.7813034
   5.3003283  64.4462357  40.6984138   6.0801454  64.0367966  41.0732117
   5.0152540  65.0724030  41.3639069  70.5599060  42.9033470  25.3914299
  70.7783813  41.9853401  25.5519600  70.8996658  43.3677101  26.1563911
  80.6014557   4.0001230  47.7627983  80.5902100   4.9164200  48.0393944
  80.6447220   4.0388618  46.8073616   0.5972714  54.5396423  46.8484039
   0.1918231  54.0092545  47.5343590   1.5241579  54.5699348  47.0854607
  17.4467373  64.7260895  43.1075668  17.8373013  65.3068771  42.4545860
  17.3009853  65.2863846  43.8698349   4.6183138  19.0239296  43.9158058
   4.5615230  18.4585075  44.6860695   4.3303494  18.4699383  43.1902695
  81.1493683   5.4893484   4.3914809  80.5592270   5.0268826   4.9865384
  81.7039413   4.8021441   4.0221167  21.7955322  37.5765686  71.8676758
  21.9721336  37.9921989  72.7116547  22.5281544  36.9740257  71.7394638
  83.4327545  41.9503021  16.5089226  82.7885666  42.6582794  16.5041542
  83.5406723  41.7184601  15.5865164  27.6490269   6.0339255  60.2135696
  26.7739429   5.6460619  60.2089615  28.1435375   5.5168676  59.5776939
  50.4517975   5.4334989  11.9997482  49.9825287   6.1806436  11.6285448
  51.2183609   5.8189344  12.4240732   9.7066593  58.2744408  74.3729935
  10.6163092  58.1548500  74.6458817   9.3309908  58.8514061  75.0379868
  53.4195900  22.6209259   4.0257525  53.3704872  23.4021130   4.5767236
  52.7748909  22.7741089   3.3350079  86.0339584  38.4305801  71.9477692
  85.6933670  38.7505722  72.7831345  86.5118866  39.1753502  71.5828934
  67.0860062  21.3006611  36.5094452  66.6288147  21.8287354  35.8549614
  67.6140671  20.6885109  35.9969406   7.8620892  63.2724495  83.5226288
   7.4246860  62.7077255  82.8854523   7.8747764  64.1354904  83.1088333
  39.9351158  61.3170891  52.6276474  40.5048180  62.0860863  52.6097908
  39.7132339  61.2048035  53.5519829  65.0737610  55.7230034  77.2897949
  65.1568451  55.1471291  78.0498581  64.3879852  55.3196907  76.7575531
  36.0275993  24.6135426  85.2288589  36.2183228  23.8177795  85.7254639
  36.8868484  24.9942913  85.0473175   4.8446255  14.1477623  25.5932293
   5.0683923  13.2174997  25.6209946   5.3708749  14.5415640  26.2890835
  75.3560104  54.9697571  60.8262253  76.2517319  54.6388588  60.7596817
  75.3067093  55.6617622  60.1667328  67.0420609  69.3441696  26.0209579
  66.9419479  68.7100372  25.3109646  67.4345779  70.1109848  25.6036358
  65.4125214  37.9869843  17.4181805  65.1624985  38.9087219  17.4823685
  65.7189636  37.8841248  16.5172119  47.6068230  34.0138283  68.6611557
  46.8696251  33.5284576  68.2907639  47.2839928  34.3335915  69.5036316
  36.3888741  46.7878227  71.4109573  36.9584122  47.1456757  72.0919876
  36.3498840  47.4750595  70.7458115  18.7389259  31.1284962  30.1988564
  18.3102417  31.8301277  29.7087784  18.7795334  31.4545231  31.0979042
  46.8450584  42.1322517  71.2451935  45.9768486  42.4622307  71.0137711
  46.6763229  41.2907219  71.6689682  56.0416870  48.7862320  38.0990486
  55.3240700  49.3557129  38.3764458  55.6773071  48.2772179  37.3749199
  51.2306480  59.5977859  58.5654907  50.4637871  59.7255592  59.1239052
  51.7365265  58.9148865  59.0059090  38.1040344  27.4145317  86.5964890
  38.1074753  26.6501408  86.0203629  38.3813591  27.0745163  87.4472046
  75.1825638  36.8155937  82.1960068  75.2427673  36.7030106  81.2473602
  75.1146164  37.7621574  82.3210297  24.7018356  55.0112610  52.2756081
  25.5375862  55.4422455  52.0967102  24.4923382  54.5487480  51.4641762
   2.9816089  49.4249573  75.6482544   3.9103677  49.2413979  75.7894821
   2.7711656  50.1030617  76.2902222  69.9606247  38.5213547  68.3566284
  70.3752441  39.2284737  67.8623581  70.6602097  38.1734428  68.9095840
  66.7939835  44.1628609  68.9911652  67.4147949  43.6811943  68.4445190
  67.2127991  45.0107689  69.1390762  67.1616974   7.1756172  41.4213905
  67.3755112   7.6982551  42.1942863  67.7664337   6.4345765  41.4585686
  66.3845978  11.0552692  58.8505669  66.0065842  11.5735188  59.5610275
  67.0442886  11.6287746  58.4605293  15.9472008  69.7478638   5.6784291
  15.9460440  69.3850250   6.5641937  16.8160496  70.1373520   5.5802832
  34.5288544  47.7882652  67.4301758  34.5880203  47.8635139  66.4777756
  33.6827850  47.3682899  67.5851593  39.7253151  13.3044071  82.6701736
  39.9200859  12.3674173  82.6515656  38.8567200  13.3763905  82.2744522
  44.1159363  56.3944969  23.1959763  43.8086166  56.0154991  24.0194740
  44.9774818  56.7553444  23.4051685  32.3182564  45.1242065  44.0478249
  32.2448196  46.0551376  43.8375740  32.8642960  44.7632675  43.3494034
  64.9644241  14.7204485   9.5958300  65.0198822  14.7018328  10.5512409
  64.3134613  15.3962831   9.4068213   0.5897161  40.7242241  81.3138580
   0.4608358  41.6628609  81.1775131   0.3111201  40.3222084  80.4910583
  12.8882856  30.5840549  58.4531174  12.3114014  30.9077988  57.7612877
  12.6726761  29.6545753  58.5293350  40.6187477  52.2315979  46.4623489
  41.5524979  52.2515831  46.2527313  40.5469055  51.5972633  47.1755714
  28.9603500  53.9197311  28.6607723  28.4880962  54.1227226  29.4682388
  29.8289490  54.3009377  28.7890224  54.5513191  15.0804501   5.1703939
  55.5085030  15.0762920   5.1740146  54.3098335  14.2573910   4.7455535
   5.7569890   0.5958114  61.3075447   6.3731580   0.5136608  60.5796585
   5.3896627  -0.2820690  61.4106445  62.4263229  15.1143599  11.5770903
  62.4102287  15.7696028  10.8795013  62.1065369  14.3137712  11.1611261
  80.4908752  21.3734722  85.4545975  80.1497726  21.5293198  86.3352737
  79.8840561  20.7401409  85.0713196  86.3675842  32.3958435  23.6517963
  87.3030014  32.5831985  23.5735989  85.9482803  33.2560043  23.6286888
  20.7351303  70.3423309  55.5822144  21.2962933  71.0586014  55.8793411
  20.4239483  69.9314575  56.3888016  67.3610840  -0.2710468  45.5472031
  66.6108017   0.2669598  45.2944908  67.5848923   0.0287737  46.4282532
  77.6857376  41.4105606  60.8710594  78.2221603  40.6194916  60.9228783
  78.2683716  42.1141815  61.1568718  12.8914394  34.5756874  60.7153130
  13.1983356  33.6690254  60.7191429  12.4506426  34.6829033  61.5581856
  16.1021423  46.4190903  78.1039810  16.5726738  47.2411270  77.9658356
  16.2169857  46.2309952  79.0354614  33.6120300  52.0245819  72.9360199
  33.1935730  51.2306976  72.6030426  34.4575424  51.7268829  73.2717514
   4.4939694  17.1221313  64.6545944   4.0326962  16.3685455  64.2863998
   4.0014811  17.8808231  64.3414307   9.4770460  55.7223511  14.2689867
   9.5995483  56.6685791  14.3456335   8.6462479  55.5516777  14.7126961
  20.3788643  41.7072945  86.6954269  19.5405273  41.6853065  87.1568756
  20.7749271  42.5382919  86.9577408  25.8131523   2.3327391  78.5875473
  25.9927120   3.1997182  78.9513245  25.6154289   2.4961984  77.6653595
   2.9394739  30.2087498   3.9489090   3.5806191  30.4232006   4.6265340
   3.4217565  30.2958698   3.1266892  79.3366013  48.2691879  40.3405991
  78.4803543  48.5237694  39.9967079  79.9283295  48.9617958  40.0466766
  83.8499985  24.1055279  65.1666489  83.9178848  23.4269085  64.4950104
  83.1002579  23.8408642  65.6996384  12.0729647  11.0359926  80.1075134
  12.7240400  10.3662090  79.8984146  11.4639349  10.6001616  80.7036362
  79.0201111   7.0756793  28.0350418  79.1460876   7.3474493  28.9441643
  79.6032486   7.6442189  27.5321045  62.4088974  19.2465515  59.5493774
  61.7343750  18.6280060  59.8298264  62.0932693  20.0982838  59.8513107
  82.2708359  67.4733200   8.9527721  81.4132462  67.3314438   8.5519648
  82.8635101  66.9088287   8.4564686  49.3041496  42.1481781  78.1140823
  48.7547150  41.7575493  77.4345474  50.1489792  42.2898178  77.6869583
  24.7326260   8.9273748   5.8173704  24.7741718   8.2195587   5.1743288
  23.9942894   9.4661674   5.5331264  62.8380280  18.1497116  34.9445000
  63.0854950  18.0063915  34.0310173  62.6930351  17.2705288  35.2941360
  22.0778503   9.2528772  65.2910843  22.7562599   9.9026327  65.1072159
  21.6769276   9.5498142  66.1079865  12.4311085  67.4862747  42.5487442
  11.8517570  67.6405334  41.8025627  12.1773882  66.6226883  42.8744545
  74.8945923  20.2954006  46.0467491  75.7870255  20.2193356  46.3843918
  75.0040283  20.3962402  45.1011887  64.6463623   4.5968227  49.3255157
  64.3085556   4.0694036  48.6016731  64.7780533   5.4662189  48.9473114
  14.7492065  49.3854752  79.6440430  15.6487560  49.5838089  79.3838425
  14.2792854  50.2115822  79.5302429  72.9388199   4.7587361  44.4612427
  72.2707672   4.0736718  44.4362755  73.0250931   4.9754252  45.3895950
  85.8745499  35.8779831  38.3855400  86.4216232  35.1068954  38.5350723
  85.6722870  35.8504486  37.4503593  76.2268677   2.4489393  84.9463959
  76.6559906   2.3222439  84.1002121  75.8293304   1.6006204  85.1427460
  67.9632874  42.6790428  58.1732216  68.1748886  42.2582207  59.0065079
  67.3376007  43.3657608  58.4037781  77.0878830  54.1050301  46.7692337
  76.7676926  54.9344521  47.1238785  76.9371872  54.1735573  45.8264580
  69.1265259  54.5419579  71.0230637  69.4271927  55.3078957  71.5121078
  68.8701172  53.9127808  71.6973190  40.6351776  46.8772087  64.1410141
  39.7601738  46.6504974  63.8260574  40.6011620  46.7110023  65.0830612
   1.3467131  50.9638786  68.7098846   0.4598485  51.0669746  68.3648148
   1.3062149  51.3378448  69.5900803  61.1308441  51.0662193  77.4091263
  60.7405434  51.6725616  78.0386047  60.4637985  50.3917923  77.2809601
  56.8889694  54.2469940  25.4318752  57.8074112  54.3650513  25.6742821
  56.5229988  53.7096519  26.1344147  56.8213997   8.4628143  33.3413315
  57.1333351   8.6181002  34.2328568  57.5003738   8.8388309  32.7811165
  20.6366444   4.3232470  11.8562202  20.5580196   4.6832833  12.7396364
  21.5509262   4.0475812  11.7904224   1.7801746  54.4353714  18.1245632
   1.4380174  53.5414124  18.1254749   2.0779614  54.5787659  19.0228901
  52.8377838  47.7529602  28.3044510  52.1443443  47.5892525  27.6652527
  53.6189766  47.9124260  27.7747936  45.7807045  64.9200897  53.7152023
  45.4554291  64.1781464  53.2053528  46.4721298  64.5491943  54.2634773
  74.5002365  10.1322117  67.1514282  74.7691116  10.8440142  66.5706787
  75.0156021   9.3793087  66.8619995  80.3302231  15.3951139  85.4349594
  80.4121552  14.4900227  85.7355042  79.6678848  15.7792149  86.0094147
  11.9959898  59.3714104  22.5853462  12.0630255  58.4719467  22.2648716
  11.7179213  59.2808380  23.4967766  28.6653595  46.6888847  79.5807114
  28.4063091  46.5822983  80.4960098  29.1587467  47.5089874  79.5653763
  50.4990044  33.3243141  72.6407776  51.1262970  32.6300316  72.8425293
  50.8223839  34.0863533  73.1213531  49.6649704  13.8213968  55.3512115
  48.8779030  13.2993650  55.5068970  49.3514481  14.5921650  54.8780823
  61.5906105  27.1012363  61.6626701  62.1780128  26.3551540  61.7833099
  61.6894531  27.6158638  62.4636803  43.5200272  52.6698341  62.2451057
  43.4933014  53.0636597  63.1171265  43.7780151  53.3871193  61.6661606
  55.4427834  17.9044552  13.2524261  55.4215927  18.8446121  13.4309940
  54.5275764  17.6295128  13.3075018  65.7971039  47.2640305  11.7356968
  65.6789246  47.8391685  10.9797325  66.6621170  47.4913979  12.0767107
  49.3843536  48.3811951  82.2813644  48.5039902  48.3210182  81.9104538
  49.9308586  48.6788025  81.5540466  80.9057770  43.6758156  64.0578766
  80.7316589  42.7463989  63.9092216  81.3326111  43.7055664  64.9141312
  82.0737534  65.4983444  66.1620789  82.9466248  65.8763809  66.2689209
  81.8242645  65.2190018  67.0429611  38.0333138  52.4701614  60.9864502
  37.1784477  52.7383461  61.3233719  38.6519852  53.0773239  61.3924446
  17.9368324  31.7019100  22.0970383  17.4960442  32.3109360  21.5045662
  18.7294006  32.1642647  22.3696117  80.0435638  70.1832962   7.9943194
  80.6715164  69.8444748   7.3562727  80.5352859  70.8382492   8.4897738
  52.0577354  23.8484344  58.0630493  51.6810379  23.8010712  58.9417381
  52.8309937  23.2856865  58.1033020  78.0206146  33.4282303  57.0972786
  77.2969666  33.9583359  56.7632713  77.5969162  32.6660156  57.4919205
  28.2862473  63.2045593  34.1865654  27.7033310  63.6626511  33.5811005
  27.7447910  62.5094681  34.5606041  81.2839813  24.2320614   4.5781102
  80.5650482  24.8332806   4.3834295  81.9572983  24.7844753   4.9752464
  48.2835312  55.7059669  13.9512434  47.8369560  55.4363518  14.7538090
  47.6406136  55.5572128  13.2578716  15.2187176  68.7289429  45.0965271
  14.7623758  68.9768066  45.9006081  15.6821384  67.9225998  45.3229713
  32.7431450  48.7453690  12.2032299  33.6647949  48.4876595  12.2226105
  32.3558502  48.1984825  11.5197487  73.3256073  63.9806519  52.3483810
  73.1703568  64.6872864  51.7216492  73.4532623  64.4267883  53.1855774
  57.6054230  38.6444321  19.2979889  58.2564926  39.2628098  19.6295834
  56.7852058  39.1378632  19.2968731  78.0954971  25.1905537  69.8030243
  77.2522659  24.8405895  70.0906219  78.6074295  25.2733135  70.6075821
  52.0842781  21.5531712   1.2763349  52.2127876  21.0148544   0.4953538
  51.5572166  22.2925835   0.9734972  40.0347862  45.5502129  19.2704086
  39.3598022  46.1621246  19.5639992  39.7327461  45.2544174  18.4116249
  66.2132187  39.3865433  31.9757023  65.2922287  39.5983963  32.1278191
  66.2325897  39.0247459  31.0897236  81.1430893  17.6542854  10.5326118
  80.7793503  17.7780056  11.4093227  80.5527725  17.0273170  10.1146765
  45.3743401  28.4434986   4.4003291  45.5834541  28.9280968   3.6017883
  45.0659752  27.5921192   4.0900130  31.7133389  21.2446041  11.1083727
  31.6463890  20.9165592  12.0051098  31.0444050  21.9269695  11.0523930
  76.2477798  34.8254852  32.5169792  76.5333328  35.6832047  32.2023277
  75.3604279  34.7269897  32.1718102  37.2507820   2.3284841  34.5677605
  36.9899292   3.0163653  35.1801376  36.4703941   2.1728604  34.0357742
   6.7177248  64.7705536  60.3442955   6.0254087  64.1282349  60.5003586
   7.2778735  64.7117767  61.1182518  54.9261169  25.0770378  26.7990742
  55.5272560  25.8204346  26.8462505  54.8698883  24.8733578  25.8654881
  66.2875748  50.3109016  81.9246750  66.0157166  49.9653511  81.0744247
  67.1890869  50.0068016  82.0296555  39.5604591   0.8310636  66.7577438
  40.1018333   1.6033969  66.9209747  38.7214966   1.0349536  67.1710205
  65.1864319  63.5766449  24.7784424  64.5503006  64.1491928  25.2071114
  64.6893234  63.1433754  24.0846195  39.1633224  59.6764870   5.5048828
  38.8404694  58.7774506   5.5659437  38.5981369  60.1745682   6.0953989
  83.3007278  57.7041817  10.0668583  83.4550018  58.4172058   9.4471598
  84.0877914  57.6855354  10.6112995  13.2824888  41.6408920   4.4364619
  13.7102022  40.8856125   4.8400102  12.3978443  41.3358307   4.2350249
  22.8341217  29.9538155  63.1233292  22.5359955  30.1531887  64.0108032
  23.6492443  30.4465065  63.0281372   7.7409453  51.2951393  36.2753716
   7.0067549  51.7857628  36.6448097   7.3784132  50.4304657  36.0826492
  67.1148148  42.9187851   9.2212210  66.9818344  42.8313446  10.1650972
  66.2346573  42.8629189   8.8491507  38.6635857  54.1564674  45.7512589
  38.8440094  54.5674896  44.9058342  39.4601364  53.6658936  45.9539261
  23.1069717  49.1993256   8.4371653  23.4441242  48.3595772   8.1250992
  22.2832870  49.3174438   7.9640641  61.0084572  37.3478851  14.2950554
  61.3241463  36.4444618  14.2750845  61.1346741  37.6257019  15.2023134
  33.9247704  66.2028961  11.2372665  33.2963791  66.6693115  10.6860771
  33.5926132  65.3058853  11.2728348  59.5148659  57.2326393  86.3733521
  58.7932320  56.9109650  86.9137192  59.6738052  58.1216545  86.6905594
  52.2635765  24.3100033  62.4636574  52.8550835  23.5579815  62.4351120
  51.7546921  24.1841984  63.2645569  35.6476135  44.8862724  33.5816803
  35.0564346  44.8942833  32.8289032  35.9421730  43.9777412  33.6452370
   6.2178831  31.8650341   8.8730211   5.7998619  32.7186852   8.7600298
   5.9819570  31.5985527   9.7615919   9.2871351   5.6294155  46.4213676
   9.1121740   4.7184749  46.6576042   8.4197817   6.0205712  46.3168373
  16.1800060  27.7692795   8.2183504  16.6337528  28.1279507   8.9810429
  16.8799667  27.4274216   7.6620946  68.4232559  42.5210266  18.0175800
  67.5531387  42.8757401  18.2000446  68.9256058  43.2709045  17.6989021
   7.7775469  37.3184738  89.0037308   7.1853113  37.0829887  88.2895584
   7.6705971  36.6159973  89.6450653  35.7062454   5.1412673  79.6131287
  35.1539459   5.9208646  79.5545959  35.6925468   4.7712216  78.7304535
  28.1201115  59.2536125  26.7497749  27.3599110  59.6081810  27.2108669
  28.6696339  58.8854485  27.4416656  70.6648483  13.1787825  25.2088680
  69.7515793  12.9566450  25.0276890  71.1700516  12.5053205  24.7533989
   6.2919230  12.7039680  60.2402992   5.7650852  12.9932528  60.9852753
   5.6678777  12.6358404  59.5176926  76.5321426   5.9467835  43.8305244
  76.9859924   6.7895312  43.8254166  76.7967682   5.5372243  44.6542168
   3.9321003   1.6500905  48.8809471   3.5301993   1.4496723  49.7262535
   4.8444567   1.3776172  48.9789085  24.9556885  46.4513855  71.4656906
  24.9540043  46.2857704  72.4084549  24.3381729  47.1732635  71.3482208
  20.2308197  46.4206429  83.3082733  19.3815041  46.2007828  83.6910934
  20.7670326  45.6407013  83.4510880  59.7350311  60.8358498  18.2565041
  59.8799973  60.0610046  17.7135220  59.6211205  61.5499229  17.6293240
  43.4697151  68.6423340  78.5498428  43.0378418  69.0849380  77.8192139
  43.0581741  69.0121613  79.3309250  53.7505531  11.3592138  79.9645844
  54.1238785  11.8086624  80.7227783  53.6299057  12.0494356  79.3124542
   5.8242764  65.7732697  78.0910187   5.8377528  64.9611893  77.5844727
   4.9395447  66.1174088  77.9683533  82.6783447  13.2282600  81.4735565
  81.8879929  13.0141068  81.9692459  82.9814377  14.0540056  81.8510590
  71.7215118  12.9300394  85.5464783  72.5068817  13.1704941  85.0549316
  71.3863449  13.7607841  85.8837509  45.0295525  60.3775940  42.8875122
  45.2572670  59.7948494  43.6119347  44.0734749  60.4201851  42.9058342
  68.6473312   5.2175999  86.1017761  67.7343674   5.3561420  85.8497162
  69.0420914   4.7858210  85.3441772   7.8354616  15.1278887  14.8383265
   7.7920022  15.4014120  15.7545843   7.3064408  14.3310404  14.8008966
  14.6448154   4.5645385  21.9652538  13.8645601   5.0951591  22.1261120
  14.4443722   3.7172041  22.3628445  24.9564228  52.9794731  11.3196154
  25.8669415  53.2719727  11.3600235  25.0102386  52.0677223  11.0331841
  61.2250175  18.1471806  63.2252617  61.1084709  19.0108643  62.8294106
  62.0853996  17.8583851  62.9210014  46.6341133  34.7117233  71.6162186
  46.5836525  34.3195992  72.4879608  47.3509026  35.3430252  71.6786880
  81.1398926  16.5482349  80.3388519  81.5409393  16.1880722  81.1298447
  81.0914993  15.8064690  79.7358017  28.2653732   5.6574593  16.7989769
  27.8126755   5.4679866  17.6208019  28.1786232   4.8534431  16.2868595
  14.3522692  12.6135626  74.8974533  13.9981337  11.8351927  75.3275223
  15.2862597  12.5986261  75.1064224  78.2048416  36.5312920  35.7145042
  78.5152054  37.3313599  35.2904739  78.5247192  35.8238983  35.1545868
  17.7665863  32.1429024  69.6194687  17.2886391  31.5117111  70.1574249
  18.5823002  32.2951202  70.0966263  29.5338078  29.2641163   3.1315861
  29.6994171  28.4903984   3.6702559  28.6183968  29.1789722   2.8651185
  13.4046068  46.1956215  37.7221527  13.7947187  46.1139030  36.8518829
  13.7647982  45.4591408  38.2162094  28.5052929   4.8480091  78.1161804
  28.8292522   5.6571355  77.7204590  27.5706234   5.0046601  78.2506638
  24.9243603   8.5208302  87.0885925  25.8643436   8.6613359  86.9749146
  24.5562000   8.6442881  86.2136917   0.1309396  29.5420265  41.7077522
   0.9578576  29.1373158  41.9697609  -0.5372863  29.0559654  42.1909218
  26.7599525  13.3272171   1.9871694  27.5427647  13.6413717   1.5346799
  26.4241028  14.0966291   2.4469974  84.8413239  67.4094696  42.5129128
  84.1997070  66.7004852  42.4692841  85.1851883  67.4764557  41.6221237
  82.0702972  32.0337143   8.4095802  81.6961441  32.3688126   9.2244110
  82.9466400  31.7355785   8.6532278  80.9127731  45.1404724  51.6266518
  80.5758972  45.8277130  52.2014999  81.2169495  44.4567413  52.2234955
   9.5342550  14.8146963  69.7446136   9.4662514  14.2600126  70.5217438
   9.1968212  14.2714949  69.0323639  21.9924145  55.9990082  53.0031853
  22.8898220  55.7100525  52.8376694  21.6561489  56.2421722  52.1406136
  28.9244385   6.4558353  87.7656479  28.9321918   7.2350845  88.3214798
  29.0767021   5.7291741  88.3698120  56.4480133  43.1895103  52.4658165
  56.3534203  43.1701279  53.4181328  57.1011429  43.8702507  52.3038063
  25.7411175  44.5930557   7.2112617  25.3655701  43.7667007   6.9073992
  26.5028534  44.3336945   7.7296457  76.6526871  66.7513504  34.8632736
  76.5347977  66.2887115  35.6929131  76.1150055  66.2642288  34.2388992
  81.1892319  71.0409470  81.8768234  81.8204193  71.6880875  82.1915436
  81.0606613  70.4509048  82.6194839  15.4582367  58.3141594  10.1638165
  14.7862635  58.0181351  10.7778635  16.1851654  57.7047958  10.2921944
  77.5817337  40.7016449  40.1710014  77.5152740  41.5089912  40.6809044
  77.8891830  40.0469856  40.7980042  53.8696365  16.9184875  46.3287277
  53.7637520  17.8684502  46.2778206  54.1427841  16.6604195  45.4483719
  42.9641457  51.4169998  69.6951523  43.4529419  51.8118782  70.4172134
  43.4888878  51.6083145  68.9178009  64.1606216  34.0904999  83.2669907
  63.5740929  34.8158684  83.4816055  63.5928383  33.4354134  82.8611450
   9.4187574  34.2462997  40.6172142   8.4909248  34.1061897  40.4281998
   9.8087320  34.4476700  39.7665672  35.3872833  44.2546196  81.2412033
  35.5289955  45.1488190  80.9304657  34.6196251  44.3173866  81.8095322
  68.2526321  69.1939926  74.2718048  67.4773102  68.6327438  74.2614594
  68.9870605  68.5863190  74.3588791  50.2371979  71.1089401  11.4919739
  50.5534515  71.4246750  12.3384542  49.6968689  70.3485489  11.7066288
   0.7047318   6.2012405  30.4945831   0.3775741   6.4630380  29.6339645
   0.3255579   6.8391576  31.0991650  30.2570572   2.3374825  73.9377899
  30.3565922   2.6296189  73.0317078  29.5260105   2.8539357  74.2770233
  74.2936401  42.2105865  10.1248779  74.0817795  41.2967415   9.9345198
  73.7689056  42.7129517   9.5015755  85.4523621  35.4362183  61.6565704
  85.6569443  35.9873352  60.9011574  85.9662399  35.8103905  62.3722153
  48.9682770  52.8869400  39.3050423  49.7467003  52.6101913  38.8216209
  48.6397476  52.0841713  39.7098465  17.9141254  36.6800385   4.5372572
  17.7608528  35.9424744   3.9467170  18.0252228  37.4327736   3.9565017
  39.8301468   8.4236965  35.5607147  39.5218163   8.9693823  34.8372574
  40.7672386   8.3166676  35.3975029  41.0825806  25.1673393   1.6692865
  41.6925201  24.9012146   0.9812565  40.7147484  24.3455620   1.9942729
  85.6044312  66.1209641  15.6695318  85.9739456  65.2881317  15.3761272
  85.2266693  65.9264603  16.5272579  48.3775444  64.1228027  24.5426121
  48.1142960  63.6448860  25.3290768  49.2555084  63.7958794  24.3463135
  73.5358505  58.7774353  67.7557678  72.9650574  58.0185242  67.8761063
  72.9358139  59.5045090  67.5897827  50.0795898   8.0449009  17.9690590
  49.8066444   8.9033575  18.2927647  50.4315033   8.2189159  17.0960712
  68.8066254  33.0805359  17.1993370  69.3873215  33.0288200  17.9585133
  68.2360611  33.8264389  17.3845882   4.7445464  43.0974960  58.1149864
   4.9079094  43.0904655  59.0581169   4.3417716  42.2479515  57.9353371
  43.9652138  29.3315525  37.7645683  44.8954659  29.5244198  37.8814850
  43.6011772  30.1302109  37.3826599  36.5935974   4.7164631  36.1895790
  37.1206932   4.4710622  36.9499626  36.5858154   5.6735463  36.2023506
  75.6925507  44.1281395  48.2224503  75.6381149  44.6887016  47.4484711
  75.2143478  43.3356895  47.9783516  17.4555378  24.8229332  71.7123184
  16.9967766  24.1258545  71.2434387  17.2413826  24.6733494  72.6331863
  40.1134644  67.5335999  49.5274696  40.3077126  67.2736511  48.6269569
  39.8097305  68.4384613  49.4553375  74.4280930  57.8685150  26.2984257
  74.6423874  57.3608437  27.0811005  73.6687469  57.4220734  25.9238358
  43.1014595   6.0747256  33.6792831  42.4584351   6.2295327  32.9873428
  43.1124382   6.8888669  34.1825600  69.0984497   9.2779322  55.2777023
  68.4938736   9.8822527  55.7084084  69.8217087   9.8317070  54.9836502
  67.2839661  34.4401474   6.0175295  67.4930725  34.3914337   6.9503384
  66.7915421  35.2557068   5.9247313  45.6282578  57.0155411  33.5135498
  45.3165016  56.1106758  33.4974022  45.4559021  57.3440361  32.6311569
  58.4979057  32.2786064  15.1692314  59.4330864  32.4547806  15.2723494
  58.3024483  32.5412865  14.2697706  48.2746468   8.1072569  66.5122528
  48.6171188   7.3219910  66.9392242  47.4575272   8.2941504  66.9744415
  79.9945374  43.1530495  17.8665581  80.7630081  43.5844688  17.4929771
  79.9066925  42.3430519  17.3641453  74.2791443  70.3412781  14.9535265
  73.3854065  70.6601028  15.0792780  74.3420944  70.1692123  14.0140247
   1.2075720  39.0754395  88.2420578   1.1659628  38.1488419  88.0055923
   1.0277015  39.5395851  87.4244766  22.6717358  59.2636223  88.8473434
  22.1316700  58.5404358  88.5286636  22.0438213  59.9494286  89.0745544
  68.0324707   6.7281809  71.2215805  68.9783249   6.6302385  71.3311310
  67.6993103   6.8464184  72.1111069  76.1099701  48.7512932  71.1680603
  76.9869003  49.0864906  70.9813385  75.6998138  48.6611977  70.3078995
  84.4123230  35.7990913   1.4438934  84.2060089  35.9646263   2.3638196
  84.2264557  36.6285210   1.0037419  46.0701370  56.4823570   0.5735337
  46.2845306  57.1658134   1.2084773  46.8902435  56.0044518   0.4499693
  12.5370665  11.5453510  17.4691887  11.8229847  11.1075850  17.0058537
  12.6267109  11.0567989  18.2874260  85.1833725  62.8488693  79.9873276
  85.6139832  62.4849663  80.7608795  85.8481140  63.4066505  79.5833130
  65.3311157   5.1989493  12.6479864  65.0374603   5.0840125  13.5517483
  66.0067825   4.5314608  12.5289679  22.6089001  41.0075340  67.9008789
  22.3685875  40.0812111  67.8807220  22.6267109  41.2704315  66.9806595
   2.6329076   8.1276789  86.6251907   3.0952845   8.4345169  85.8452606
   3.2371991   7.5077124  87.0334854  79.7150955   1.0597284  15.1766758
  79.5943604   1.7735204  15.8028994  78.9205475   1.0723066  14.6430445
  60.3968277  46.9902077  74.0967941  59.6121140  47.1510849  74.6207886
  60.1106834  46.3783035  73.4186096  33.6753731  55.7703934  88.7571411
  34.2406502  55.9603615  89.5058823  34.1784363  55.1511841  88.2282486
  12.5308619   8.4614077  29.6767349  12.9654655   7.6892338  29.3146572
  12.9817476   8.6235266  30.5053787  26.5226536   1.4924427  87.4938889
  27.0502052   1.4067355  88.2879715  27.1314030   1.8308561  86.8372803
  55.1627579  58.2365265  64.9281693  54.8699875  57.3363609  65.0703735
  56.0144424  58.1466713  64.5006256  60.0301056  10.0461321  61.0936813
  59.1264153  10.3400803  61.2084351  60.1201706   9.3078518  61.6962242
  50.2789497  64.8998413   2.5715346  50.0037422  64.7152939   3.4695528
  49.4784737  65.1818314   2.1288736  83.7567749  26.7868786  76.9545593
  84.0826721  27.2694588  77.7142563  84.4146271  26.1086407  76.8014069
  23.3733253  63.1618309  33.0554695  23.7457390  62.4714928  32.5068626
  22.5509644  62.7935867  33.3785019  12.5477991  15.9739933  22.1766281
  13.0569286  15.9954205  21.3663425  13.0991478  15.4923191  22.7932606
  48.9069748  37.8975105  20.4173088  49.4481010  37.2674103  19.9415073
  49.2851372  38.7497330  20.2006416  56.9529266  61.2791252  30.1820545
  57.7611809  61.7849236  30.0976410  56.3850136  61.8242569  30.7266064
  10.8705149  52.8546677  72.7192230  11.1574326  53.6836853  73.1021652
  11.5476522  52.6401596  72.0775757  52.2963257   8.1980715  20.4375267
  52.3617287   8.0394411  19.4958305  53.1121368   8.6454773  20.6622753
  63.6953278  28.4144497  69.9412537  63.5868111  28.5106068  68.9950943
  64.6380081  28.3026295  70.0640717  31.2014961  66.5536880  75.5096207
  30.4376259  66.9902954  75.8865967  30.8392582  65.9715118  74.8417282
  17.7540340  37.5238686  13.5512304  18.4995842  37.0332642  13.2052679
  16.9863243  37.0649414  13.2102919   6.9820609  65.7828293  38.6304855
   7.7119899  65.2008972  38.4188347   6.4752445  65.3028564  39.2854652
  61.9631500  50.4350777  82.6044617  62.3918457  49.9541206  81.8965607
  62.6731453  50.9118690  83.0343475  29.9913025  56.1649055  30.0368195
  30.8539734  55.7534447  30.0890789  29.7666130  56.3663826  30.9451981
  57.2444725  32.3175735  58.8834190  57.1126976  32.8861427  59.6421013
  57.7857971  31.6001797  59.2128830  73.8303146  34.7587967  31.4874706
  73.5578918  34.4612732  32.3555145  73.2105713  34.3446693  30.8869247
  25.4829655  32.0447044  18.3104877  26.1744080  32.1176567  17.6525993
  25.2901192  32.9493980  18.5566044  50.4459419  59.0966454  34.0914955
  50.6363945  58.6349411  33.2749252  51.2714653  59.0774956  34.5756226
  54.7572670  69.6192932  38.4773254  53.8722382  69.8726959  38.7395058
  54.6407852  68.7930984  38.0082130  59.8435326  51.7942352  71.5751953
  59.0404091  52.2601738  71.8078384  59.8492928  51.0266190  72.1470032
  78.2999802  67.8544464   8.5177059  77.4757309  68.3389359   8.4717140
  78.9681320  68.4947205   8.2730494  14.6610918  40.2890205  82.3746109
  14.5690231  39.4365082  81.9491959  13.8630915  40.7619591  82.1384811
   7.0725360  15.9107733  59.3027306   7.8713331  15.3855619  59.2546997
   6.5097837  15.5542479  58.6153946  67.2251587  47.7454910  28.1369667
  68.1547394  47.9603691  28.2140694  66.9537888  48.1484489  27.3122139
  52.6508827  65.9186020   1.1722926  52.2736740  65.3128738   1.8102858
  53.4039574  65.4496078   0.8129159  38.7902298  61.0135307  44.0048409
  39.0430984  60.1079597  43.8253098  38.9590721  61.1284447  44.9399986
   7.4710536  29.2240448  55.5648308   7.1017671  28.3794041  55.8225861
   7.2845907  29.8026352  56.3042221  41.5931892  49.0131302   2.0688033
  41.7620811  49.9545898   2.0318336  41.0949669  48.8277321   1.2727926
  66.1034927  28.9340458  44.8265648  66.8204193  29.5401840  44.6399155
  66.0332413  28.3960686  44.0379715  13.0403013  32.1803970  14.7967634
  13.1259537  33.0589828  14.4266529  13.7352686  32.1281052  15.4529028
  40.7382889   0.2997266  82.0875092  40.5552711   1.1219168  81.6328278
  41.6785393   0.3281071  82.2645874  56.7142792   4.5791411  30.5748997
  57.4014282   3.9161513  30.5078163  56.0833931   4.2086124  31.1920891
  80.7777405  70.4773026  32.1971016  80.2375870  69.7315979  32.4586372
  80.3267593  70.8448257  31.4369850  18.8887920  46.6364899   2.4339850
  19.7421799  46.8698158   2.7993872  19.0899963  46.0184402   1.7313029
  35.2495117  45.4072037  43.9991837  35.6653519  45.5770760  43.1539307
  35.1605186  46.2716980  44.4003754  75.3864670  45.3888969  83.2863007
  74.5602875  44.9233170  83.4162827  75.1834869  46.3003044  83.4969330
  60.4165649  67.6463165  35.0797920  60.8142815  68.4509125  34.7470970
  59.8316689  67.3603516  34.3781128   6.0637836  42.1397362  83.5396805
   6.5940399  42.2081337  82.7457123   5.2031040  42.4700432  83.2820740
  20.8594646   5.3588109  68.8767624  21.1816616   5.9580283  68.2034454
  20.0079365   5.0676355  68.5506516   8.4439745  12.1020031  85.2345657
   8.5312653  11.6432333  86.0701141   9.0270014  12.8570070  85.3138199
  15.8281040  30.4824409  87.6611938  16.1348705  30.1777706  86.8072052
  16.4449863  30.1025372  88.2867813  13.0551071  39.0050392  88.0138702
  13.9993067  39.0330200  87.8591614  12.6679010  39.2770500  87.1818161
  15.4129648  40.7257996  15.5715218  16.3591042  40.7249069  15.4264288
  15.2939701  40.2253342  16.3787422  13.2633963   3.1475492  31.4251175
  12.6642799   2.4029193  31.3720322  12.6907806   3.9139793  31.4555836
  67.8901520  66.9375076  12.0112820  68.5020599  66.9234009  11.2753420
  67.9785309  66.0731201  12.4128504  69.2662048  65.3257599  33.5206146
  69.5022659  65.4280319  34.4425926  68.4800720  64.7798157  33.5337906
   8.6938658  48.1489906  68.3499680   8.7528305  49.0050812  68.7740707
   8.8913746  48.3234482  67.4297638  22.9584885  12.5992451  26.9555931
  23.3150253  12.9762955  27.7599239  22.6752129  13.3554459  26.4416409
  54.1536827  13.4025049  81.9619293  54.2613335  14.2947178  82.2914734
  53.9521828  12.8825102  82.7398987  71.6667633  68.0821457   8.1210909
  71.9500732  67.7358017   8.9672670  71.1266098  67.3864594   7.7462616
  23.9590740  65.0037460  47.4575348  23.8430157  65.2246780  48.3816299
  23.5086136  64.1656265  47.3532448  72.0409927  47.5098724  23.3124447
  71.6333923  47.4385414  24.1755791  71.5911407  48.2445107  22.8951035
  70.5710983  30.6470184  16.9993458  71.1726532  30.5192242  16.2658348
  70.0404053  31.4019833  16.7451401  11.2764063   6.4426627  36.4710732
  12.2328310   6.4393749  36.5094452  11.0704193   6.1001749  35.6012993
  60.4514618  71.6879730  67.9718246  60.0029335  71.5960617  68.8124237
  61.3630638  71.4658356  68.1612167  59.7798653  46.2844009   0.1750893
  59.2143173  45.6324310  -0.2388251  59.9628601  45.9259377   1.0435650
  44.7398186  49.0428314  46.6036186  44.0047226  48.6226158  46.1572075
  45.4339790  48.3838272  46.5944595  25.7382946  44.9626732  20.6161423
  26.3195992  45.3927460  19.9889622  26.3105164  44.7155457  21.3425884
  74.0446701   6.8649650  70.8291397  74.3771515   6.7554064  69.9382477
  74.7347717   6.5076075  71.3879700  56.4584961   1.0491776  52.6039543
  56.8106651   1.6166340  51.9182434  56.4734840   1.5900283  53.3935699
  86.2415161   8.0136261  58.9790421  85.7753906   8.7214537  58.5341415
  86.8689270   7.6950316  58.3301277  73.2536697  48.9325142  50.3694954
  74.0051575  49.5237846  50.3259506  73.5806122  48.1035042  50.0200958
  70.1638641  26.9411449  64.6098328  69.5173187  26.2702007  64.3906479
  70.0821915  27.0521011  65.5570679   2.8123403   1.2501304   5.2555332
   2.4044442   0.5127883   5.7096024   3.7051122   1.2790375   5.5995598
  63.7238808  22.4877987  17.4989185  63.7731667  21.6786289  16.9899540
  62.7956429  22.7212334  17.4883556   7.5577130  68.3149261  77.7700424
   6.9288054  67.6290054  77.9941483   7.0412502  69.1208191  77.7642975
  35.3323631   2.3454311   9.8307905  35.3430481   1.7133943  10.5495720
  35.6579247   3.1568406  10.2204790  62.8513527  54.7463570  41.7491112
  62.5243797  55.0675392  42.5894470  63.5746651  54.1636581  41.9804420
  33.4713745   7.5193472   9.5208855  33.5626373   8.3745031   9.9411383
  33.2554970   6.9222660  10.2372112  84.7151413  63.1181145  40.3453217
  84.2643967  62.2910233  40.5155487  85.3668823  62.9028130  39.6781540
  38.6316032   0.3202555   0.2903594  38.2606125   0.4023946  -0.5881910
  37.8752060   0.1659474   0.8562948  58.0186005  16.8395691  28.6907768
  57.2205849  17.3217793  28.9072857  58.0479164  16.8422184  27.7340298
  55.8821068   7.3668256  14.6709919  56.2999878   7.2414017  13.8190079
  56.5716133   7.7338939  15.2242327  46.1405182  29.2190895  11.5151520
  46.1482964  29.8239822  12.2569580  46.5226135  28.4121037  11.8601303
  13.1652136  45.6534615  78.2046814  12.4422045  45.4644089  77.6065598
  13.7691002  44.9197159  78.0899277  15.7122250  19.3432598  78.2741852
  15.1964054  19.6996727  77.5509109  16.3847618  18.8109665  77.8492279
  86.1711655  59.2004814  49.9657478  86.2314453  60.0803185  49.5936089
  85.8270035  58.6620598  49.2530823  45.6900024  37.1333809  73.0609741
  44.7738762  37.0830841  72.7882004  45.7253304  36.6315575  73.8753204
  51.9397850  44.8260994  29.6323986  52.8411255  44.5328140  29.4989738
  51.8935547  45.6700783  29.1831799   3.4573796  55.1878204  28.0365486
   3.5272534  56.0087395  28.5238228   4.2001343  55.2035904  27.4329777
  59.3025551  60.6191559  87.2681046  60.2393532  60.6692123  87.0780182
  58.9551201  61.4648285  86.9846344   0.5655054  63.0321693  28.3181095
   0.9787544  62.6567383  29.0956097   1.2975112  63.3294983  27.7777443
  30.7248993  45.8467941  66.1193237  31.3236866  46.2470818  66.7497635
  30.0254307  46.4911652  66.0108871  41.4619408  60.1577911   4.3833871
  40.6992073  59.8491020   4.8724499  41.2114334  60.0634460   3.4643784
  71.3906174  65.9129868   3.4982090  71.8715744  65.4387741   4.1764650
  71.1817245  66.7570267   3.8984473  19.5203056  56.5894737   1.4710854
  19.8245716  55.7029610   1.2767941  18.7576981  56.4626427   2.0355105
  30.4482498  18.7716522   7.7332683  31.2317314  19.0322361   8.2175045
  29.8379822  18.4734211   8.4077044  41.7613258  54.5083237  42.3606262
  42.4426384  55.0669632  42.7347527  42.0835228  53.6166763  42.4924850
  74.3361588  67.6318436   9.9150343  74.0520401  67.2409821  10.7413149
  74.0397491  67.0163879   9.2445221  30.4640980  67.9786911  79.0120316
  30.9603500  67.1639099  78.9339523  30.8526478  68.4245911  79.7646484
  79.2205276  38.1856766  16.1378479  79.2112503  38.2797623  17.0903664
  78.4485931  38.6681709  15.8419790  28.5696239   1.3310256  53.3622093
  28.5926914   1.2117270  52.4127541  28.3087540   0.4761320  53.7047539
  17.9431705  60.5128593  28.0343571  17.5391045  60.8055992  28.8512192
  17.2932529  60.7126350  27.3606148  74.7772675  50.7931709   4.6250687
  73.9694519  51.2402840   4.8775682  74.7068558  50.6890831   3.6761539
  68.9147797  51.5617638  42.3787727  68.7330933  52.3691406  42.8597717
  68.3923416  51.6360168  41.5801620  11.3928614  71.1291504  49.0665092
  11.4259243  71.5828857  49.9086876  12.0738754  70.4593582  49.1284142
  84.5766449   9.0566006  36.1362038  84.3913116   9.9732304  36.3403473
  85.4582672   8.9085493  36.4783325   8.0714426   3.7421165  29.0025311
   7.8562341   4.5586271  29.4533386   7.2860832   3.5336878  28.4965687
  70.1353378  48.5562973  31.5158844  70.6288147  47.7363396  31.4962196
  70.0931320  48.7882462  32.4435959  32.2878189  57.5315895  40.1304169
  32.8945427  58.0988922  39.6547241  31.4416904  57.9736137  40.0603218
   7.3990498   1.1165494  19.5073071   6.6078825   0.9921644  18.9830799
   7.1723671   1.8153287  20.1209469  59.0837746  49.2991486  72.7161636
  59.7838936  48.6704330  72.8916168  58.2891731  48.8659477  73.0279007
  23.8911152   4.1445827  43.3249817  24.0000706   4.9912586  42.8919678
  24.0606422   3.5004225  42.6375580  64.6825485  39.7534523  39.2761154
  63.7347794  39.7014656  39.1525497  64.8511200  40.6797333  39.4487953
  54.9375267  20.8568707  28.7844086  55.3958893  21.2977161  28.0690117
  54.2334099  21.4590740  29.0248318  51.1650124  28.4988651  86.4771957
  51.5086403  29.0088634  87.2107162  51.8703156  28.5048237  85.8300934
  79.6310425   1.3710852  41.7936401  80.1438217   2.1605904  41.6205330
  78.9116592   1.6699051  42.3499069  30.7334843  54.4907455  17.8498878
  30.4178829  55.0924950  17.1757050  30.2616806  53.6748734  17.6825886
  13.8395348  10.9707708   3.0029652  14.2682180  10.1307364   3.1666884
  14.2146540  11.5622730   3.6553776  46.2009544  12.7606745  81.3158417
  47.0988007  13.0697336  81.4365997  45.6682510  13.3639688  81.8340149
  53.7552528  61.7705383  73.3512115  53.8194199  62.7191963  73.2409286
  54.0384216  61.6144485  74.2521515  75.8559570  65.2056808  49.6166267
  74.9566193  65.5109253  49.7360191  75.8603745  64.8082199  48.7458572
  76.5633087   7.3218331  14.9996157  76.8829575   7.8235612  15.7494984
  76.9071274   6.4392695  15.1378307  10.7621479  49.1452789   3.7257943
  10.7273788  48.3325310   3.2213497   9.8719368  49.2587776   4.0587721
  68.7340393  63.6562309  71.0688705  68.3648758  64.5374680  71.0107956
  68.0787506  63.0943031  70.6552658  31.5256615  39.3877335  55.6707268
  31.5454445  39.6967087  54.7649803  32.4375572  39.4309273  55.9584961
  16.5136852  71.4310608  79.1057663  16.4333286  71.0321808  78.2393570
  17.3168716  71.0570755  79.4680634  28.8490715  34.4086685  84.7457809
  28.3018627  33.6233292  84.7400589  29.4427071  34.2923584  84.0039520
  51.8953857  11.7454948  49.9859543  50.9437141  11.7639532  50.0869942
  52.1924324  11.1045456  50.6318512  79.7325439  23.6005058  19.7584400
  79.5426483  24.5380363  19.7236671  79.0724411  23.2443218  20.3531055
  82.3583298   2.8314903  43.4643936  82.6842041   2.0093994  43.0980568
  81.9454041   3.2764745  42.7243156  14.0064526   1.4964074  22.8600330
  13.9620905   0.8210875  23.5369434  14.6640759   1.1746219  22.2434158
  84.0804443  47.9154282  14.6160765  83.8088837  48.8332787  14.6225462
  83.3779526  47.4545746  15.0747223  15.4813814  55.9346886  24.1790619
  15.4159346  56.7007027  24.7493038  15.4631004  56.2941208  23.2920971
  47.6236076   0.5205626  49.6280022  47.0283928   0.8313251  50.3101883
  48.4570160   0.9485883  49.8241043  58.0554428  10.3325987  71.7739105
  58.2867279   9.4144411  71.9143677  58.7530289  10.6722631  71.2133408
  22.2665405  29.9828396  55.3775024  22.9064827  30.6891327  55.4661369
  21.4806347  30.4126625  55.0401001  30.6792374  52.6334915   5.0473084
  30.2867317  52.9915695   5.8435192  29.9527206  52.5769234   4.4266596
  42.9374924  15.5403042   6.8923020  43.8319550  15.6555939   6.5715566
  42.9393997  15.9472733   7.7586765   7.5914335  57.1286850  81.8715363
   7.0020609  57.7003403  81.3795166   7.7853570  56.4098244  81.2699890
  78.6854019  24.7914276  33.9661674  78.5117874  25.4128189  33.2590866
  79.0412979  25.3279285  34.6744995  20.6836224   8.0236788  82.7467270
  19.7273197   7.9855328  82.7628784  20.9344425   7.4420414  82.0290833
  19.0945110  50.2420845   2.5028207  18.2079334  49.8833008   2.5413737
  19.4906273  49.9919434   3.3375397  67.1757202  11.9526854  48.3631172
  67.0912704  11.9764938  49.3162842  66.7468185  11.1368237  48.1049652
  46.2461243  45.0115891  85.5233002  45.8753738  45.7599449  85.0556030
  46.8578453  44.6190414  84.9004517   6.5321817  17.6699886  70.1571426
   6.7090111  16.7780724  70.4562225   5.5853400  17.7717628  70.2539139
  57.0056915  41.5869637  50.0601425  56.9112358  42.2648087  50.7293472
  57.4379730  40.8625031  50.5123825  50.3547821  21.0103149  86.9029236
  50.6588554  21.7914925  86.4408264  51.1068306  20.7338696  87.4265900
  77.2661362  42.8803482  18.8062840  77.3386002  42.4288902  19.6472149
  78.0824432  42.6724396  18.3516960  27.2772808  47.8530617   7.4656758
  27.6611557  47.0028954   7.2509966  27.2918186  48.3376999   6.6403580
   5.4694138  36.9472580   2.1216555   6.2359099  36.7955589   2.6745594
   5.1601071  37.8171158   2.3744633  62.1934433  49.1925430  79.5672531
  61.8087921  48.4862900  80.0863724  61.6290588  49.2583351  78.7969437
  18.6012192  59.0482178  22.1002884  19.1652412  59.7802353  21.8507576
  18.9781075  58.7233772  22.9180088  80.3019562  58.8426361  80.5082092
  80.4115906  59.2773895  79.6625137  80.6081009  57.9480553  80.3591003
   1.3456388  30.5035973  28.3072472   1.5408883  30.0459366  29.1249599
   1.5174574  31.4249878  28.5015392   0.9970737  36.9626350  49.4194717
   1.4982247  37.7780380  49.4335480   0.8817500  36.7364159  50.3423767
  78.4944458  23.9799538  47.7908401  78.9400787  24.1725979  46.9659004
  77.6173325  24.3470726  47.6806717  71.8129349  64.8909378  28.7434311
  71.4216080  65.5648270  29.2992840  71.3280029  64.0935822  28.9562607
  84.2174530  68.3908691  17.5750942  83.4538193  68.8341827  17.9446335
  84.1554871  67.4936981  17.9029331  77.4060440  30.4457836  30.7186966
  77.5789032  31.2592907  30.2448235  77.7048035  29.7555771  30.1265888
  21.6589603   4.1656513   3.4977684  22.0841331   3.4423752   3.0369747
  21.9152813   4.0503592   4.4127760  65.3681183  34.1655426   0.5308327
  65.9358673  33.3961067   0.5740311  65.1621552  34.2593117  -0.3992311
   3.7601533  46.5842819  54.5983276   3.5432649  45.9060555  55.2380142
   3.5890591  47.4078674  55.0551262  73.7583618  34.4286804  71.0285873
  74.0062256  35.0871010  70.3795242  73.9641800  34.8335953  71.8711472
  69.2611389  28.0542431  46.3702850  68.7822571  28.0451946  47.1990280
  69.9519272  27.4017658  46.4856949  74.7189102  65.9440231  43.2169914
  74.8838272  66.8718948  43.0493889  73.9078140  65.7558136  42.7448387
  44.7863617  33.3577003  85.4896698  44.3300858  33.3560524  86.3311234
  44.0995827  33.5284309  84.8451462   0.4579886  60.7011681  81.1419601
   1.2470102  60.2119942  81.3751678  -0.1918377  60.0269966  80.9433365
  60.6780396  46.9486351  52.9087029  61.0479088  47.6659317  52.3940048
  61.3613167  46.2782936  52.9109459  56.2556305  21.4238129  53.3595695
  55.6288757  20.7006321  53.3391228  56.0618057  21.9311008  52.5713310
  13.1595058  60.2747841  55.4652786  12.2719278  60.2348137  55.1091309
  13.0359945  60.4622498  56.3957787  58.4023933  20.0699253  65.3100586
  59.2480659  20.3368225  65.6703873  57.8729477  20.8672142  65.3258286
  35.8739166  58.5921021  35.0825272  35.8252716  59.2348366  34.3748817
  35.7508507  57.7479935  34.6482849  85.7893982   2.3189237   7.8072767
  86.1375122   1.6987913   8.4479666  86.5654297   2.6958411   7.3926158
  72.7639847  36.0820656  45.7279625  72.7500763  37.0321655  45.6124535
  72.5493011  35.9498825  46.6513672  53.6879959  49.2695580  54.4972992
  52.7740173  49.2424240  54.7803955  54.1286507  49.8001823  55.1609955
  67.9461823  65.6148453  59.4660568  67.1184006  65.2570572  59.7869949
  68.5540085  65.5053101  60.1973457   6.8676476  21.0947819  85.2694168
   7.5025454  21.0125504  84.5578156   7.3796620  20.9501667  86.0651245
  30.7453060  38.4946518  88.6582260  31.3833637  38.1673203  88.0242157
  30.5681534  39.3925896  88.3779602   0.8983856  34.9078979  66.5325928
   1.4945029  35.1059036  65.8103256   0.2937402  35.6496277  66.5543137
   1.5655712  18.0748005  43.3507957   0.8328246  18.6823025  43.2495270
   1.1674321  17.2741280  43.6923218   0.3355719   5.6606555  85.9719009
   0.5281671   5.4935498  85.0492859   0.8910656   6.4056249  86.2014160
  25.0387440   5.0201755  35.3122826  25.4841709   5.5928617  35.9366684
  24.7621899   5.6045475  34.6064072   9.0818739  54.7490730  57.2873039
   8.6041765  54.4133530  56.5287971   9.6339483  54.0182266  57.5653458
  71.2467804  70.7835541  49.4116020  70.6479721  71.1734848  48.7747269
  72.0235596  71.3421555  49.3832359  71.5015488  11.8923063  43.6807022
  72.0862808  11.1442051  43.8018112  71.7742462  12.2770624  42.8477364
  85.7926865  30.3657150  14.7852259  86.3502502  30.8388481  14.1675711
  86.1617584  30.5684128  15.6448383  74.9957275  41.0095100  39.2570000
  75.8469772  40.8078766  39.6455307  74.8947906  40.3670349  38.5546722
  64.7259445  32.8150291  44.3216248  64.5804367  32.4773369  43.4378700
  64.5433502  33.7521439  44.2530251   6.2368140  19.8767471  82.2782898
   5.5614085  20.4968872  82.5530396   7.0573573  20.2677975  82.5783234
   5.2987742  58.6331139  80.5659103   4.7249994  59.3845825  80.4165421
   4.7457485  57.8713150  80.3925476  48.7608490  63.6964684  83.2264175
  48.6837769  64.2835236  82.4743118  47.9685097  63.1603928  83.1940079
   8.1855631  45.4106522  45.1553040   7.7532496  44.6307602  45.5033035
   8.7660656  45.0774956  44.4710159  75.1927948   7.9080486  22.7191277
  75.4556274   7.3920121  23.4812698  75.3808365   8.8134155  22.9664822
  77.3544540  49.0567894  26.5578442  77.0029449  49.6329460  25.8790798
  76.6812515  49.0497780  27.2382755  62.7410698  26.5119572   3.4311452
  62.5001907  26.1576805   4.2871227  63.4679756  25.9614277   3.1400127
  14.5489035  51.4917526   2.5853465  14.5437965  52.0194778   1.7867773
  13.8051081  51.8172951   3.0923214   9.3275270  46.1755905   8.4070597
   9.0359507  45.9680977   9.2948437   9.9325666  45.4687271   8.1823263
  45.2727470  42.0012131  84.0486374  45.5504112  41.1602020  84.4117279
  45.9824791  42.6039352  84.2705307  37.6302757   7.2783561  36.5943565
  37.8459167   7.1025586  37.5102310  38.4071770   7.7148705  36.2449074
   0.5774290  38.0374222  82.2673492   0.4607805  38.1240196  83.2134552
   0.5990739  38.9385300  81.9452133   9.6305370  56.8747826  36.3565521
  10.2206516  57.2041969  35.6786995   9.1484776  56.1659508  35.9306297
  35.1061287   4.7240562  85.4093704  35.3810081   3.9573302  84.9065781
  35.1868477   5.4543362  84.7958527  71.3592377   1.5817797   4.7943935
  70.6098099   0.9900739   4.8612523  71.7056122   1.4311546   3.9148653
  37.7205963  49.9411697  77.7770996  37.9239922  49.4520569  78.5743637
  37.3888092  49.2806320  77.1689529  44.5488663  34.4609070   1.8068990
  44.5670280  35.3987236   1.6161062  44.4807167  34.4117508   2.7604034
  57.8579636  -0.1014330  45.4900360  57.0621605  -0.5459988  45.7820740
  57.6760826   0.8285713  45.6250992  45.3369331  37.7531204  35.1446915
  45.3551865  38.5590057  35.6608810  44.4590111  37.3985214  35.2852020
  53.9286804   2.9171281  80.1315384  54.6284370   3.0823839  79.4996643
  53.7840195   3.7630820  80.5554047  60.1886559  35.6574440  50.1656418
  60.7264137  34.9303207  49.8520470  59.3944168  35.2410126  50.5003052
  77.0910645  37.2595253  59.5878639  77.9703751  37.0962334  59.9289970
  77.1883240  37.2016106  58.6373787  70.5292130  67.7468872  43.6376266
  69.6999664  67.4636917  44.0228157  70.8587799  66.9720993  43.1823006
  65.3995056   0.5144867   8.9497738  66.1422348  -0.0588800   8.7604656
  64.8422318   0.4484874   8.1743231  29.1762142  66.4125977  39.9219856
  28.9666004  66.6209259  39.0115471  29.6172256  67.1956635  40.2514458
  71.0545273  55.0218430  35.3972092  70.9242172  55.9166069  35.0831299
  70.3371506  54.8777695  36.0143394  20.1543369   7.2221098   5.4584517
  19.3063583   6.8089695   5.2957234  20.6946602   6.9618521   4.7124300
  34.9821892  18.1548176  63.5595932  34.7770691  17.3728771  63.0470276
  34.9865532  17.8517132  64.4675293  75.8004074  17.7601509  87.4035950
  75.0931473  17.1346931  87.5611191  75.3733902  18.6163940  87.4306793
  60.3058815  22.3236771  82.9092484  60.0695801  21.5452614  82.4048080
  60.9989052  22.0259228  83.4985657   9.7835169  55.0080261  21.9183884
  10.0362749  54.1270294  22.1944199   8.8352404  54.9584084  21.7977962
   4.6414056  43.1164360  44.6495438   4.6506577  42.1676140  44.7755699
   4.4141927  43.4700699  45.5095177  13.4893122  62.1932297  64.5465164
  12.6243448  62.0086288  64.1804733  13.5280571  61.6683083  65.3460083
  82.1981201  25.6090622   6.7475739  82.5105362  26.2530861   6.1120744
  82.8152313  25.6729794   7.4764867  48.3578911   3.3731415   1.1801043
  48.7395363   2.5473499   1.4778399  48.3046303   3.2831056   0.2286375
  34.9435768  51.5729408  16.7763424  35.1679688  50.8657379  16.1715736
  35.6867027  51.6184425  17.3779469  18.4859295   9.8832340   8.4335709
  18.4778709  10.7953577   8.1434050  17.5946426   9.5730724   8.2734480
  56.3207436  28.0935974  70.7388229  55.7640991  28.7485199  71.1600800
  56.3869362  27.3867970  71.3809204  31.8201618  51.2128716  33.3970757
  31.0449009  50.7731400  33.0480194  32.5097389  51.0235863  32.7607689
  21.2755146  57.3648262  28.2256279  20.6448040  57.1568375  28.9149590
  21.2502785  58.3192940  28.1579418  50.6514740  50.0798531  86.1190567
  51.0835228  49.7760658  85.3207626  49.7178841  50.0593719  85.9087677
  79.7723770  30.0060349  27.5132732  79.2607803  29.2058640  27.3940029
  80.6781921  29.7358932  27.3624287  16.6742821  65.9441681  56.3895569
  17.5380325  66.2837906  56.1554108  16.4105701  66.4635086  57.1491470
  72.1567688   6.4451590  62.2813911  72.4172363   7.3658338  62.2540245
  72.7209930   6.0173807  61.6372681  59.4101868  30.8474922  36.6377182
  59.8603249  30.6565399  37.4606056  58.9214630  30.0483150  36.4410057
  84.7447968   6.3107405  52.3239899  84.3736954   6.7287402  51.5469475
  85.3126984   6.9791288  52.7073669   7.4952779  38.6600876  79.3136368
   7.3786235  38.3898087  80.2244415   7.3680449  37.8576622  78.8075104
  25.2294922  52.5456924  74.0213623  24.3646240  52.1660156  74.1765442
  25.8428707  51.8563690  74.2759705  85.1512375  39.8133392  18.9434967
  84.2568130  39.9567947  18.6342049  85.1908035  38.8764915  19.1357975
  79.9368362  65.4871368  83.9885483  80.5540848  65.7024612  83.2893524
  80.4788284  65.0987854  84.6753235  16.7957973  39.1480293  20.6815510
  17.3199234  39.5382462  19.9820843  15.9616985  39.6162300  20.6455059
  87.0068741  20.9550476  73.2030182  86.7896652  20.0273380  73.2946930
  86.3183517  21.4111958  73.6868591  14.9958010  62.1776733  85.5306778
  15.6039610  61.5077362  85.8430252  14.4765615  61.7354126  84.8590927
  72.4865417  62.9662819  85.6035461  73.2308350  62.6732941  85.0777969
  72.6992188  62.6896286  86.4948730  58.8873901  18.2252350   8.8558674
  58.0075340  18.1043472   9.2129040  59.4174500  18.4871120   9.6086559
  55.8776779  23.7716293   8.0349379  56.6288147  23.9165840   7.4596033
  55.4337654  24.6190510   8.0673685  82.0171661   9.1156559  54.9904823
  82.9625931   8.9660883  54.9965134  81.7694092   9.1196527  55.9150505
  33.1546516  58.2678108  29.2949600  32.9682159  57.8378525  30.1295929
  33.0800743  57.5699196  28.6441002  49.0198784  10.7636061  13.5683432
  49.8456841  11.2361898  13.6729727  48.4502182  11.1233931  14.2482471
  11.6076498  62.7958450  82.1658173  11.8195524  63.0148392  83.0732193
  12.2244787  63.3101349  81.6449966   2.0933890  53.4301872  86.6040726
   2.0227547  52.7426720  87.2663116   1.6637781  54.1886787  86.9994965
  35.0980034  54.2701378  86.9429016  35.8750877  54.1473999  86.3976364
  34.8898544  53.3928261  87.2641983  16.1847038   8.1741552  68.3602219
  16.7297306   8.3345613  69.1305771  15.5081282   8.8500614  68.4005508
  55.9313316  12.8318167   1.3824437  56.7285767  12.3461714   1.1708300
  56.2229576  13.7376480   1.4856735  17.0154934  37.4822044  50.8351059
  16.3792381  37.5104942  51.5496788  16.4824924  37.4299736  50.0417519
  73.7034607  11.0546064  74.4967499  73.0299149  11.7244825  74.3791428
  73.4728470  10.6251068  75.3205032   9.1409178  68.3964844  79.8864822
   9.4909201  67.5256042  80.0743561   8.6243420  68.2801056  79.0890884
  43.7455139  51.1993446  79.4532089  43.1067276  51.8798218  79.6656647
  43.6763535  51.0937500  78.5043640  12.3357744  52.7966003  67.3839874
  13.1315308  52.9622459  66.8784561  11.6263123  53.1116867  66.8239746
  53.4366837  46.7747726  20.3078365  53.2513542  46.0298309  20.8796310
  53.7889633  47.4446678  20.8938160  78.4486694  34.5762749  34.0310745
  79.0183029  33.8762093  33.7122421  77.6053848  34.4093094  33.6100960
  49.4558525  66.8074493  76.6389008  48.6183128  67.1704025  76.3507538
  50.1099091  67.4243927  76.3105392  51.9633636  68.8736267  50.0243492
  52.1376915  67.9490204  49.8484497  51.3204041  68.8654556  50.7334137
  78.6945648  32.0724030  70.3835220  78.6198349  32.3309669  69.4649353
  79.6084976  31.8061295  70.4837952   8.8835859   7.0156231  56.7593460
   9.8201237   6.9227247  56.5847092   8.8243523   7.7595720  57.3587341
  85.9522552  50.3853493  12.5927200  85.2932663  49.8766670  13.0651770
  86.6323929  49.7492638  12.3712730  25.7601223  36.0669785  70.1436844
  26.3252125  35.5179520  70.6872635  25.2849960  35.4473495  69.5900192
  60.7985458  63.8217773  21.1922436  61.2573051  64.1911621  21.9467793
  61.4437485  63.2503014  20.7758789  20.6750050  50.5376854  24.0644436
  21.5071850  50.1748238  23.7610626  20.7797451  50.6169815  25.0125847
  66.6400681   7.2342429  68.8303452  66.5141373   6.2935390  68.9546356
  67.2380219   7.4906693  69.5324326  45.7249374  69.7543716  73.8438721
  45.9470787  69.7657471  72.9128723  44.9188232  69.2404251  73.8914948
  65.5093002   4.9973278  45.3614922  65.5797119   4.7002401  44.4542923
  64.5677948   5.0263152  45.5316391  34.3656158  21.4908123  76.6654434
  34.7926064  22.0860119  77.2816010  35.0523453  20.8731976  76.4140778
  53.6918907  36.0630112  53.5107117  53.1896515  36.8736534  53.5934486
  53.5031052  35.7536545  52.6247711  32.6833115  19.7882481   9.0226650
  33.2879982  20.3931561   8.5929270  32.2698212  20.3107758   9.7098494
  63.4280853  67.1843491  34.5661850  64.2292099  67.3977203  35.0446281
  62.7343140  67.2415390  35.2231827  41.7608032  46.4250641  40.7159119
  41.0765419  46.9503021  40.3010101  42.1918755  45.9758339  39.9888611
  30.9719543  10.5458221  62.2713356  30.3314667  10.3119135  62.9431190
  30.6642551  10.1007624  61.4817314  72.9628067  45.8878479  21.0550518
  72.4324417  46.3751106  21.6855412  73.8654480  46.0328178  21.3386898
  56.0223808  64.7958374  66.0420685  55.8998260  63.9009399  66.3588715
  56.9003677  64.7968063  65.6607895  55.2334290  25.0820255  59.5973244
  56.1042137  25.3349762  59.2907600  55.2755318  25.1832027  60.5482330
  23.0968513  43.2864609  19.7549553  23.6411514  43.5728188  20.4884205
  22.1998520  43.3514214  20.0826797  11.1349058  46.5974655  85.0768814
  10.5133753  46.0840721  84.5607758  10.6617899  47.4015465  85.2910004
   0.1248700   8.7288275  87.3984070   1.0810781   8.7138653  87.3574905
  -0.0919618   8.1645613  88.1405792   3.1619523  31.3672009   8.3751678
   3.0306320  30.6746464   7.7275906   2.3315558  31.4125347   8.8491077
   5.5551991  46.2239609   9.9157057   6.1192865  45.5181808   9.5996161
   4.7939081  45.7754669  10.2838392  74.4778900   9.0360670  14.6891937
  74.8644104   8.1732550  14.8388329  74.2327805   9.0315065  13.7639198
  85.4484787  70.1278305  51.6341362  85.2283020  69.8390961  52.5197906
  86.2926636  70.5689621  51.7289619  46.7869949  47.1846581  47.0388870
  46.9928894  47.0389748  46.1155167  47.0157127  46.3602943  47.4682388
  34.6456833   1.4578953  75.4794235  34.2878761   1.2944193  74.6067963
  33.8866158   1.4167303  76.0611038   2.7859154  42.0798607  30.7260799
   2.1594195  42.7131577  31.0763226   2.3973441  41.2266579  30.9191818
  38.8148727  69.2533646  45.6335526  39.0415268  69.0831299  46.5478172
  38.8880959  68.4002075  45.2057838  67.8852921  68.7590637  46.0330849
  67.8088074  69.6496353  45.6906357  68.5802307  68.8135605  46.6890717
  70.2867508  13.8865509  41.5623245  70.1266174  14.3160954  40.7220383
  69.9018173  14.4767284  42.2102089  58.0515900  10.7940245  64.6050415
  57.7202911  10.6168795  65.4854355  57.4207993  10.3713522  64.0222168
  66.6842499  37.8817863  76.2037201  67.2794952  37.5187836  76.8595734
  66.4641647  37.1383286  75.6424103  27.0016060  52.3546486  27.8516159
  26.2548485  52.9209480  27.6569538  27.7149830  52.9600067  28.0537739
  70.3418121  43.7768250  88.3124313  71.1083374  44.2859955  88.0489578
  70.5870819  42.8678741  88.1395645  75.9910278  29.1213570  11.8149624
  76.3079605  29.4601688  12.6522150  76.5738220  28.3882332  11.6171989
  57.8653412  61.1913033  20.2083035  58.4612122  60.9163551  20.9051361
  58.3687401  61.0741959  19.4026299  57.4989433  57.5826530  64.0309753
  57.8475037  56.8244781  64.4999237  58.2475014  58.1720238  63.9385719
  43.0007248  42.9585724  21.5812206  43.0036583  42.0851364  21.9727974
  42.5090218  42.8542023  20.7666245  59.5904503  44.8299789  21.2305546
  59.3358917  45.0309143  20.3299694  58.8103256  45.0260696  21.7493839
  48.1613731  69.1734619  54.7486572  48.3784027  69.6497116  53.9472122
  48.8784599  68.5488663  54.8577423   2.6933980  15.3717308  47.7882767
   3.0683064  16.1040154  47.2989578   3.3858757  14.7109728  47.7985229
  38.2913322  44.3695564  85.6203613  38.3757133  44.2326508  84.6767654
  38.9932442  43.8427734  86.0025253  67.4553986  66.0469666  30.4519920
  67.0962143  65.1621933  30.3856869  66.9675140  66.5528488  29.8021603
  31.2813148  41.1289139  81.4333801  31.6796913  41.2635345  82.2932663
  31.8250847  41.6408844  80.8346863   6.2147961  31.1815300  67.9951172
   5.9714727  30.3386421  68.3779526   6.1768951  31.7969952  68.7272339
  60.9808083   1.1801810   7.4182925  60.9036255   1.9420367   6.8439660
  60.7226448   1.5037336   8.2813673  55.5061684  44.3609772  43.8897209
  55.4874802  43.5366592  44.3759155  54.5979424  44.6631660  43.8956108
  59.7230415  54.7926369  21.1736736  58.9269371  54.2612038  21.1787910
  60.2749786  54.4037476  21.8521748  78.6717300  37.2792320  38.3298759
  78.5914612  37.0213432  37.4115715  79.4397430  37.8501053  38.3520813
  82.4819183  53.7739830  27.3341293  83.3309555  54.2131271  27.3842964
  82.1075287  54.0705376  26.5046005  20.1531582  63.2160912  17.3139687
  19.4696522  62.6915398  16.8969574  19.6873474  63.9660301  17.6838970
  52.8552742   3.2381742   5.4577899  52.0287170   3.7003398   5.5972095
  52.7319603   2.3918872   5.8877015  71.4330521  54.2068367  55.5884323
  70.9739532  53.4022713  55.8295403  71.6638336  54.0841522  54.6676025
  50.7273026  21.0333920  18.1799297  51.2049370  21.8625278  18.1548233
  49.8900833  21.2264023  17.7579842  47.9158440  68.9890060  38.4126968
  47.3512917  69.2822495  39.1279068  47.5314713  69.3803864  37.6282768
  70.0518036  24.3318424  16.1167164  70.6506119  23.7220592  15.6856441
  70.1382446  24.1335297  17.0491505  46.9488297  34.7218819  15.9044094
  47.8065910  35.0885506  16.1189518  46.3310928  35.4256439  16.1028061
  17.0933247  42.4236603   6.5458546  16.4816303  43.1598701   6.5383635
  17.8994942  42.7858162   6.9135032  16.0738106  40.9712601  45.3079796
  15.1349506  40.8322754  45.4323082  16.1897411  41.9172401  45.3969269
  68.9978638  19.7172260  73.7905273  68.2926025  19.4484043  74.3792343
  68.7369614  19.3787918  72.9340057  59.8640366  62.6635857  15.9569645
  59.8292236  62.1564598  15.1458893  60.7853317  62.9067993  16.0480137
  33.4034157  56.8485451  83.3913574  33.2473106  57.6433983  82.8813934
  33.2330475  56.1333771  82.7783890  84.2348938  50.4749870  20.9206963
  84.4450226  50.2656975  21.8307934  85.0628662  50.3667679  20.4527378
  10.7082272  70.6582413  88.4396667  11.5038242  70.5435562  88.9593811
  10.8516235  70.1210632  87.6604919  46.4968452  67.7451859  47.7352676
  45.9098663  67.7509689  46.9791908  46.5627403  66.8222198  47.9802742
  78.1341705  30.3394527  18.5896072  77.2410355  29.9964275  18.6190453
  78.3811264  30.4436722  19.5085106  86.1502991  39.8124504  74.2897797
  86.0246887  40.7230721  74.0228958  86.7092819  39.8650055  75.0650253
  29.9274349  18.4013290  54.7763214  29.3246365  19.1395741  54.6876640
  30.2542057  18.2510719  53.8892593  67.4711151  65.3881531  85.4340591
  67.3798752  64.6362305  84.8488159  67.6103668  65.0028305  86.2991486
  79.7802658  43.8327751  42.4622688  79.9171219  44.7665062  42.3021126
  80.2767410  43.6513519  43.2602844   6.8718624  10.9741049  18.6695576
   7.3432250  10.3330593  19.2016373   7.3304539  11.7994547  18.8267956
  49.0490875  10.0403576  64.6001587  48.8739357   9.3486395  65.2381821
  49.7423630   9.6838999  64.0446930   8.0144167  59.7872581  82.3650360
   8.1862097  59.8480339  83.3047333   7.9875393  58.8471870  82.1867752
  11.9395199  35.8345642  80.7904510  12.1958742  35.9249802  79.8726578
  12.7327509  35.5310326  81.2319107  68.1334610  34.7928772  12.2157192
  68.8101959  34.4489288  11.6326561  67.5458145  35.2809677  11.6389427
   1.2779670  22.3624802  63.7371445   1.9987913  21.7774048  63.9702339
   0.9609392  22.6978378  64.5757523  52.6900520  56.6193810  47.4821014
  52.4181404  57.4072342  47.0113716  53.4601822  56.3094635  47.0055695
  67.0366974  31.6090870  50.4305649  67.0292740  32.3266907  49.7971420
  67.9632492  31.3943520  50.5383759   0.3590394  54.2803001  41.2191620
   0.4957211  54.7666435  42.0321922   0.1140740  53.4001770  41.5048370
  51.6416512  32.5956535  68.0152512  50.7993889  32.4023895  67.6035690
  51.4584351  33.3287315  68.6028366  47.4367943  10.2019100  74.4262772
  46.6101685  10.5397739  74.0816498  47.6664810  10.8057404  75.1325836
  21.4902515   3.9631653  58.2279205  21.3171711   4.8064437  58.6464386
  21.0429630   4.0185905  57.3834724  14.8781586  49.1629257  86.5528564
  14.1656313  49.3162155  85.9323425  15.4228172  49.9476051  86.4907532
  19.6394997  62.6012154   6.3878398  19.5054111  63.1568375   7.1556530
  18.7567310  62.3463516   6.1195178  53.5124969  48.3255615  51.7205124
  53.3099670  47.3909721  51.7624245  53.4391708  48.6273613  52.6259232
  23.0660095  48.3765030  77.4652634  22.8848343  49.2123795  77.8950577
  23.0350056  48.5765457  76.5297165  71.4098129  46.8879890   2.1908164
  70.8668060  46.2238541   2.6154344  70.9363632  47.1071968   1.3883034
   2.3238423  65.8010712  40.0510254   1.4091679  65.5194702  40.0336342
   2.8119504  65.0147018  40.2951584   6.1135111   6.3487577  33.3045425
   6.1538682   5.5046892  32.8549309   7.0292802   6.5993466  33.4262123
  69.3036270  70.1993408   7.5944486  70.2404175  70.3930206   7.6283102
  68.9766312  70.4459991   8.4595881  18.2895317  53.3209076  73.6787186
  19.0153980  52.7723427  73.3813477  18.2323208  53.1532059  74.6193771
  46.0756950  53.6777306  34.4836693  46.9470482  53.8586273  34.1311836
  46.2403984  53.3032112  35.3490219  44.1447639  12.2203398  16.4904900
  43.2897911  12.6406002  16.5834370  44.6087074  12.7601967  15.8505363
  20.9738655   9.0786467   1.2171959  21.6432838   9.7584085   1.1395226
  21.3379784   8.4545450   1.8450110  34.8502159   3.6000237  17.4424286
  34.0722389   3.1602039  17.7852688  35.3555489   3.8342419  18.2208958
  22.4298515  36.6552010  21.2176514  21.5935555  36.3493500  20.8665199
  23.0821724  36.3384094  20.5928688  34.2291756  53.5651093  28.3204536
  34.1580467  53.1295547  27.4710617  34.7695427  52.9761620  28.8471165
  32.6820793   4.9455972  87.3026505  33.4678383   4.7673655  86.7858887
  32.8957520   5.7359099  87.7986221   6.5459590  34.4220963  31.6904182
   7.2828803  35.0314331  31.6469669   5.8054566  34.9163284  31.3388195
  72.8389206  25.9336872  41.4020691  72.5716705  25.5167637  42.2212067
  73.0990219  25.2063084  40.8368263   8.8988180  10.3498545  70.8152390
   8.5099792  11.2107258  70.6605225   8.3342934   9.7425976  70.3369217
  54.6925392  55.1679993  32.9150124  55.2126732  54.3650093  32.8849373
  54.4730186  55.3455658  32.0004005  70.2455826  19.8833733  25.0189247
  70.4400177  20.0191975  25.9462738  69.9816895  18.9650574  24.9615345
  24.1051559   7.3375912  59.4088402  24.8745174   7.8009429  59.7399292
  23.4046059   7.9894538  59.4320145  52.7615585   1.9093690  24.7995434
  52.0204201   1.4117630  25.1449833  52.3797188   2.4699318  24.1241188
   6.1656408  38.3078499  15.7499132   6.4630303  37.4931335  16.1549149
   6.9267635  38.8869286  15.7898474  47.5652885  63.9162102  32.1518555
  46.7928963  64.2997284  31.7364597  48.3047447  64.2814026  31.6659794
  34.8583908  49.1845016  52.1977921  35.6755676  49.4605141  51.7827339
  34.3412437  49.9871063  52.2657166  78.9044647  42.0528297  52.3638344
  79.8212051  42.0890388  52.0908585  78.5090637  42.8352928  51.9796028
  14.4761992  59.1509171  35.0470276  13.5796213  59.3075256  34.7506256
  14.4905338  59.4740944  35.9479065  86.8419647  26.0005131   9.2843122
  87.2268982  26.7992344   8.9236116  86.2217026  26.3104115   9.9442120
  43.4250641  22.1454372  86.4892273  42.5457458  21.7675343  86.4743805
  43.3535042  22.9394245  85.9594193  81.4701080   1.7108612  78.6703568
  81.4319839   1.3800610  77.7729492  82.3630066   1.5205781  78.9580383
  21.9477863  70.2704620  47.6693039  21.6178074  69.6388397  47.0302467
  22.0282364  71.0881882  47.1783028  72.3908234   9.2447910   3.8255074
  71.8524857   8.7827549   3.1828973  72.1649704  10.1675167   3.7080364
  57.7368355   4.7653003  58.5451355  58.2823257   4.5224481  57.7970085
  56.9423370   4.2414317  58.4423370  20.7181225   7.5120759  55.1839104
  21.0581264   6.9600844  54.4796867  21.4906998   7.7483768  55.6972466
  49.6805420  11.9557905   0.3118901  50.0784798  11.7918167   1.1668692
  48.8517494  12.3904715   0.5128587  43.9897842  48.5995445  80.7108612
  43.9480019  49.3192177  80.0811310  43.7779541  47.8197327  80.1977844
  73.0053482  15.2410297  64.1791000  73.6518326  15.8996716  63.9251709
  73.3099518  14.9213953  65.0283813  82.7303619  18.2650127  13.7299633
  81.8715515  18.3786812  13.3228369  83.2836609  18.9234352  13.3097563
  72.6560059  19.3906040  80.7305069  72.8364487  18.6328430  80.1742096
  71.8109741  19.1947975  81.1352463  74.0732346  16.5617199  60.2341881
  74.1547012  17.4765987  60.5036163  74.9748840  16.2430687  60.1926537
  22.1590557  47.2453156   5.4926143  21.9623241  46.5658112   4.8477864
  21.5911503  47.9768372   5.2505560  56.9924088  34.1466064  13.5107994
  57.1982918  33.6423340  12.7236843  56.0541420  34.0112610  13.6433554
  25.6390247   6.9395947  75.8607788  24.9002762   6.7287931  76.4317780
  26.3839359   7.0274229  76.4554443  63.3457260   9.1873503  74.9502182
  62.7679138   9.7691994  75.4440002  63.7094841   8.5956316  75.6088409
   0.7569857  18.2227688   4.6488247   1.1000556  17.3835545   4.3418198
   1.2912389  18.4343014   5.4143701  78.8395920   2.6245372  70.3960266
  78.9773331   1.7797785  69.9674988  79.7037125   3.0362680  70.3971405
  32.1695442  71.1129074  58.0077782  31.9255524  71.2751007  57.0965195
  31.6458588  70.3539047  58.2644882  11.1282110  62.1743240  14.0896759
  10.6030703  62.7831154  13.5702238  11.0473900  62.4945869  14.9880800
  54.7301559   0.4478726  55.5531845  55.6382561   0.6766173  55.7513237
  54.2679977   0.5609207  56.3837624  28.1848831   4.3450565  38.6456909
  28.7344341   5.0923367  38.8819046  27.5116196   4.3184719  39.3255730
  11.3511906  24.0246906  17.5059834  10.9388571  23.2885876  17.0539169
  11.7100420  23.6431084  18.3071404  41.8542747  48.6462822  43.5108643
  41.2369614  49.3625603  43.6595306  41.3035889  47.9020844  43.2676735
  21.8636150  31.4467068  85.6527939  21.0997028  31.1765308  86.1623764
  22.2579842  32.1508751  86.1674347  71.1761703  34.0601311  16.1663475
  70.3813324  33.5931969  16.4240990  71.1258469  34.8943672  16.6329823
  39.1917648   3.7534618  26.5874901  38.7114029   4.4980011  26.9496307
  38.5300789   3.0698607  26.4821682  17.4223690  21.6839046  68.1843414
  16.6125813  21.3510532  67.7974472  17.5097504  22.5696087  67.8320236
  57.4946594   0.5188971  55.5504875  57.6455345   1.4452118  55.7386589
  58.1871376   0.0616835  56.0276260  76.7871628  70.4920731  14.0679541
  75.9100800  70.4523849  14.4492464  76.7432022  69.9150543  13.3054914
  10.2887993  22.7776890  65.7687454  10.2328482  23.3436642  66.5386658
   9.8024960  23.2468224  65.0907669  86.3160782  32.3577309  84.3869171
  86.0572968  31.9116325  83.5805359  86.8678055  31.7236614  84.8449402
  82.5490799  46.8630219  16.6115284  81.8694305  47.1414337  17.2253590
  82.3266373  45.9556122  16.4033031  47.6821747  10.1690960  88.2358856
  47.7091522  10.3092060  87.2893829  48.3994141  10.7029963  88.5775757
  15.9023132  42.9990005   1.1294259  16.2604599  43.7672806   1.5740719
  15.0713358  43.3004761   0.7622453   1.7659950  33.9580956  23.9432545
   1.2946987  34.7604866  24.1674957   2.2869580  34.1929703  23.1753597
  71.6349411  44.1972504  67.8329697  71.6654434  44.5054321  66.9272537
  71.8374634  44.9724503  68.3566895  44.1682968  37.7769928  85.8299866
  44.2232704  38.7266731  85.7235794  44.3670158  37.4267807  84.9616013
  18.9794197  46.4618340   9.3222351  19.3465195  47.1021461   8.7127533
  18.0318336  46.5468407   9.2169514  66.5736389  41.2664719   2.2844267
  67.3784714  41.5991135   1.8871553  66.8534164  40.9044762   3.1252098
  49.8320923  63.8361855  77.1882706  49.4972267  64.7195969  77.3421631
  50.7656631  63.9603462  77.0172119  59.5927849  25.1358337  52.1573257
  58.7529335  25.5696812  52.3078651  59.7376137  25.2149239  51.2144585
  49.4773674  52.1705093  52.9740715  49.6084213  51.2622261  52.7018890
  49.7593918  52.1895638  53.8885841  10.0538368  54.6815186   4.7801037
   9.3225508  54.0946274   4.5877233  10.0282049  55.3336258   4.0798683
  75.7582779  38.3417053  67.9706955  75.8729095  38.0253830  68.8668213
  75.4081116  37.5891266  67.4940033  59.1796608  31.3628254  51.1780663
  59.6815910  31.7660618  50.4697571  58.8431015  32.1022720  51.6842041
  50.9043312   0.7269090  14.8265276  50.5794983   1.6203187  14.9384813
  50.8409271   0.3379340  15.6988297   3.4453294   7.1616936  16.8170033
   3.6698616   7.6274676  17.6225281   3.6845875   7.7673788  16.1154804
  35.7724495  19.9106121  69.4427872  35.7111015  18.9593124  69.5293808
  34.8665428  20.2001781  69.3345490  51.8274460   1.1011999  55.1236992
  51.3280716   1.0940108  54.3071175  52.3190155   0.2799604  55.1110687
  13.0520601  27.2321835  67.2275314  12.4055433  27.6510906  67.7956619
  13.8648958  27.7080288  67.3981247  60.0662308  34.0704613  13.3133726
  60.1371384  33.4005585  12.6333475  59.2085190  34.4696770  13.1678028
  59.8824158  20.7659168  52.1909981  59.6308632  21.4773560  52.7799034
  59.9632912  21.1824837  51.3330002  72.8865967  11.9946070  78.7629623
  72.3308563  12.0878830  79.5367050  73.7215576  11.6749878  79.1049042
  69.3347778  41.8459282  47.4282913  68.9770508  41.1650734  47.9981194
  68.5805054  42.3905869  47.2032280  80.4222717  38.8002396  45.1972084
  81.0317001  39.2325897  45.7954597  80.6657791  37.8752785  45.2343979
  29.1838551  70.8046799  10.1055632  28.3436699  70.5123749   9.7521849
  29.3927822  70.1652451  10.7865200   3.4401200  58.0226364  69.9835052
   2.9801021  57.4395447  70.5873413   3.8434486  57.4354858  69.3441162
  14.0520067  54.8495064  13.8925772  13.8355904  54.0046577  14.2870789
  15.0082350  54.8863716  13.9149590  44.1351318   4.6420312  68.8107529
  44.3602333   4.4255142  67.9059448  44.1088753   3.7970998  69.2597885
  83.0408325  43.5008659  71.7352066  82.0982285  43.3346748  71.7244720
  83.1460037  44.2456436  72.3272171  37.2980843  38.7902946  85.3283081
  38.1659355  39.1022682  85.5847015  37.4539146  37.9165344  84.9698410
  33.0064583   7.0861382  20.7009010  32.3553772   6.4735398  21.0430260
  32.6978874   7.9467149  20.9844933  76.0123672  13.0711946   3.4399233
  76.8424988  13.0153408   3.9132075  76.2633667  13.0795603   2.5162566
   1.1084799  35.9167557  57.0611267   0.3413389  35.9598007  56.4902763
   1.8509748  36.0683899  56.4763718  40.9557228  37.5809479  54.1539574
  41.7412949  37.0904083  54.3957825  40.3455505  36.9149628  53.8371201
  26.1955833  37.9183006  12.9369287  25.4861145  37.2851524  13.0465069
  25.7775364  38.6790085  12.5334539  50.3528976  71.4859238  52.7101326
  50.5813217  71.0624847  53.5376320  50.2959290  70.7668839  52.0808678
  57.0087738  43.9456635  61.5012665  57.8365898  44.3720016  61.2794876
  56.6981010  44.4141655  62.2760048  33.0566826  61.0976181  63.2492676
  33.2343941  61.5380135  64.0803528  32.2373428  60.6258125  63.3986244
  35.3751259   0.6308916  24.3177090  34.4670067   0.3422589  24.4085064
  35.3297539   1.3817207  23.7257385  34.4110222  43.4126282   2.3584299
  35.0965080  42.8301888   2.6857014  34.7955971  44.2876740   2.4097040
  19.8958912  58.3493118  17.7934132  19.0932827  58.8322372  17.9904881
  19.8528709  58.1876945  16.8509369  74.7572708  35.9968834  26.9563274
  74.7328339  36.8919716  26.6180229  74.3891373  35.4642487  26.2513390
  76.2352142  62.7747002  29.2205372  75.8384399  63.4362793  28.6538696
  75.6976395  61.9936104  29.0896034  86.0521393   9.6441956   4.7598133
  86.5605392   8.8447170   4.6234403  85.3905792   9.3998661   5.4070134
  62.9439926  15.4192476  24.7015419  63.1458282  14.5633068  24.3235722
  62.6295242  15.9394522  23.9621334  60.9382782  64.5875931  87.4514694
  60.3851471  64.5789261  86.6703186  61.5134010  65.3429413  87.3293457
  44.8717461  63.6532249  56.5001564  44.9185638  64.5491562  56.8338547
  45.2606964  63.7022552  55.6269188  38.7741089  35.1082840  66.1547012
  38.3409233  35.3879929  65.3482590  39.4504242  35.7688179  66.3048019
   5.6600699  19.8524246  65.7577820   6.2860985  20.1990643  65.1220474
   5.5702515  20.5479794  66.4092178  60.9038849  59.3905067  53.5784187
  60.3228340  60.1209755  53.7906113  60.9333572  59.3779945  52.6217537
  66.8301010  54.6140404  35.6840935  66.2041016  55.2298698  36.0650330
  67.1291809  55.0420341  34.8818436  67.7429962  23.4678917  32.9391022
  68.6968536  23.5470734  32.9282570  67.5246353  23.3292885  33.8606987
  25.9243660  64.9499512  20.3390770  25.4533787  65.0511627  21.1662159
  26.6631908  65.5545425  20.4086246  66.1580048   4.0571375   4.8662453
  65.2513351   3.9320960   4.5859838  66.2145462   4.9869289   5.0865254
  33.6142426  62.0396347  69.9035873  33.0636139  61.2663116  70.0261230
  33.0085449  62.7212257  69.6123886  52.8670120  29.5909519   1.7294828
  53.5089226  29.6429482   1.0213286  53.3758125  29.7440605   2.5256701
  42.7179832  37.5981255  69.8204956  41.8486862  37.9292145  70.0461807
  42.9839630  38.1200447  69.0634766  34.9582748  49.9700966   6.0013685
  34.4591446  50.4803162   5.3635788  34.7114792  49.0617790   5.8273349
  53.8644142  39.5457573  21.7595634  53.8060875  38.7194748  22.2392349
  54.7338753  39.8851204  21.9719276  31.8980751   5.0075140  31.2842274
  32.1027184   5.4470015  32.1095772  30.9415703   4.9965005  31.2494774
  86.3977509  48.3123207   5.2193093  87.2499390  47.8808861   5.2814908
  85.7799911  47.5998306   5.0550990  20.7530117  60.0289230  27.6832714
  19.8510456  60.1559219  27.9774799  21.0360260  60.8972969  27.3968182
  43.3365326   4.3141055  58.8621521  42.5900917   4.7834048  58.4895706
  43.9749222   4.2755656  58.1499672  62.6024208  51.1991425  46.3045044
  61.8636627  51.1903534  45.6959114  62.8239136  50.2758408  46.4256821
  51.2309799   5.3215122  89.4295273  50.6855545   5.5467105  88.6758499
  51.9892120   4.8758063  89.0518188  78.2444077  22.3571091  44.8148537
  78.7443924  21.8770676  44.1546936  77.5728836  22.8218784  44.3155823
  65.9883499  16.1896610  73.2686996  66.3747711  15.3927717  72.9055481
  66.5677185  16.8924465  72.9743271  78.8349228  19.4089184  75.1433945
  79.3695450  18.6268082  75.2801895  77.9325638  19.0978985  75.2158356
  59.3797913  54.0812950  44.3540459  59.3027229  53.1353531  44.2296257
  59.3953972  54.4391403  43.4663887  85.4302597  49.2586250  75.8007507
  85.6656036  49.9205894  75.1506348  85.1629715  49.7623558  76.5695419
  16.1599903  67.8030624  33.8382111  16.2148495  67.8324356  34.7933846
  16.5573120  66.9651031  33.6011391  33.6925697  40.0377960  58.3676453
  33.2934456  39.3372574  58.8835716  33.9371872  39.6182213  57.5428123
  19.4034672  45.7221565  76.8593979  18.7168903  45.5650139  77.5075836
  20.1934204  45.8720093  77.3787689  35.1795616   9.7199230   0.2742000
  35.3242149   9.6964865   1.2201163  35.5061150   8.8764210  -0.0390061
  62.3846016  38.6167450  54.4164429  61.9875832  38.4953766  55.2789268
  63.0897827  39.2469864  54.5639267   6.1132565  69.5057373  72.4593430
   5.7703547  69.3878860  71.5734711   5.9468584  68.6692276  72.8938293
  46.8146706  47.9807663  19.0587997  47.3047028  47.2579689  19.4507942
  45.8959618  47.7429733  19.1839561  14.4674435  49.7831993  54.2234879
  14.6828585  50.3517838  53.4842072  15.0030146  50.1144066  54.9443893
  10.1090031   0.3199591   8.9034119   9.3236113   0.0752761   9.3928204
  10.8301096   0.1600463   9.5122347  34.5554504  42.0206566  12.0245714
  34.0803947  41.3415794  12.5035334  34.3548737  41.8495674  11.1043930
  44.1931839  16.1703262  31.7551079  44.2054825  17.1212788  31.8635979
  45.1044807  15.9377594  31.5771236   1.3445938  28.3120842   8.8239803
   0.7548157  28.9837723   8.4815931   2.1532898  28.4263916   8.3248053
  33.7669907  69.9178543   9.7530117  34.6236877  69.6690521  10.0999975
  33.3588409  69.0882721   9.5051575  81.8009262  45.9768257  72.9274597
  82.6277084  46.3388443  73.2462006  81.1908722  46.0958633  73.6554031
   2.8261580  42.6032639  71.5790558   2.8854399  43.4982147  71.9133835
   2.3973124  42.6934090  70.7280579  33.7088737   6.8699369  12.2241869
  33.3138962   7.5000076  12.8268785  34.6351776   7.1099372  12.1999483
  61.5825958   3.1952388  68.8963470  61.9201164   3.6714649  69.6549759
  62.2822075   3.2543917  68.2457504  56.1138878  45.5566368  12.9366732
  57.0524254  45.6558189  13.0964842  55.9253769  46.1714211  12.2276325
  12.7749119  10.1422644  53.3737450  12.2094021  10.9050837  53.4943199
  12.8772192  10.0675306  52.4249687  76.0189285  48.6762695  -0.0916019
  76.9111938  48.3327789  -0.1375039  75.8703156  48.8330612   0.8409016
  33.2418518  67.0214996  83.1650925  32.5465546  67.3073807  83.7576065
  33.9953766  67.5624084  83.4014206  78.9306870  60.5166550  82.5247803
  79.3791580  59.8326035  82.0276031  79.4792862  61.2929878  82.4126205
  28.7788029  17.9444103  68.0114441  28.6160793  17.0106030  68.1447067
  29.7230721  18.0047207  67.8667145  23.8824406  65.8598175  72.9971695
  23.2802887  66.5990829  73.0816498  23.6226902  65.4313278  72.1816025
  76.4362335  46.8146706  67.1238708  75.6050873  46.9909630  67.5647278
  76.5635071  47.5652466  66.5436401  66.7391052   6.9137135   2.0647869
  67.0768738   6.5991654   1.2262148  65.8363037   6.5969062   2.0933752
  79.8882599  35.9714317  21.9957771  79.9838333  35.7783546  21.0631351
  80.4573059  35.3368034  22.4312878   9.8206739  59.6104088  59.4721718
  10.1790857  58.7884521  59.8070793   8.9927063  59.3610344  59.0616646
  73.0972366  52.0331039  62.3243408  72.7670288  51.1996574  62.6598396
  73.7670135  51.7861214  61.6866646  24.0318737  56.3688087   6.4080558
  23.8209286  57.0837708   5.8075843  23.2217140  56.2181282   6.8950543
  15.2323132  63.7452126  37.1956978  15.2975130  63.4048119  38.0879478
  15.4162064  64.6805954  37.2821693  48.2753410  51.2548828  66.0419922
  48.9137230  51.5353928  65.3862381  47.5003395  51.0144119  65.5342712
  73.1012955   7.2933369  82.7418060  73.3278427   8.1746445  83.0388031
  73.9180374   6.7992673  82.8129883  53.1828384  39.3733368  61.9858246
  53.6537323  38.6837234  61.5179367  52.6759415  38.9081383  62.6513138
  69.4474564  13.6699514  17.6035938  69.9339676  12.9629421  17.1797104
  70.1208496  14.2905350  17.8822479  18.1779919  67.4556046  39.4523315
  18.3008118  68.2580185  38.9451065  17.4595566  67.0015182  39.0120049
  21.7021065  18.5078754  83.2477341  22.5565948  18.0985870  83.3839798
  21.0722408  17.8027802  83.3972092  17.2798195  70.5573883  82.4616852
  17.3775463  70.3247833  83.3850327  16.3409081  70.4786606  82.2929306
  85.3157120  66.2138824  34.8096123  84.5279846  65.7730865  34.4911728
  85.6863022  66.6328659  34.0328598  58.8781624  37.9980164  64.3910599
  59.2083817  37.8195038  63.5105362  59.2456131  37.2983170  64.9310837
  48.0711937  28.6385574  18.2972584  48.7146492  28.8481827  18.9742031
  47.8383293  27.7249966  18.4628296  34.1690407  45.3639641   7.3748741
  33.8792305  44.6943359   7.9944205  35.0781021  45.5384026   7.6186132
  21.6472263  70.1147232   0.2014587  21.2018604  69.2945328  -0.0110784
  20.9579926  70.7779465   0.1650304  41.4997978  68.2072296  57.1507416
  40.9836121  68.6999969  56.5127983  41.1948776  68.5235367  58.0011597
   6.5108123  29.1262398  18.2829113   6.0394721  28.3461151  18.5752754
   7.2946677  28.7851334  17.8522739  73.4181519  42.4877167  52.9616089
  73.8108063  41.8728485  52.3419342  73.3143463  43.2976494  52.4621506
  81.3789139  67.3702393  22.8685074  81.2746048  68.2547379  23.2192364
  80.5140228  66.9713135  22.9636555  65.3559036  42.2595482  43.1729736
  65.3166046  42.7109528  44.0161362  65.7341919  41.4041824  43.3766365
  85.0101395  47.3892174  43.7682915  85.2853546  48.2990112  43.6553116
  85.1786346  47.2009048  44.6915359  47.2899818  34.3796768  47.2044716
  48.0171890  34.8173790  47.6469803  47.5716743  34.3100586  46.2923126
  70.1014481  66.2900162  30.6430035  69.9745560  65.9486771  31.5282249
  69.2627563  66.1410904  30.2063675  43.6782188  22.7972660  35.6414642
  43.4819260  22.0586777  36.2178230  44.0828514  22.3988304  34.8709106
  30.8152485  51.1227188  80.8824692  30.9902534  51.3002586  81.8066406
  31.4521160  51.6594238  80.4106903   0.4414565   3.0889969  76.3028717
   1.3601419   3.0572655  76.0359573   0.3462982   2.3639209  76.9204788
  68.8225174  18.2114048  45.2067795  68.8867722  17.9073315  46.1121178
  68.7352982  17.4100475  44.6905899  78.6257553  33.1401215  36.9141769
  79.2196045  33.4297752  37.6067619  79.2005234  32.9303894  36.1780434
  20.9104614  14.1065159  88.2717667  21.2347775  13.2163086  88.1354446
  20.0194492  13.9889994  88.6011810   8.0851831  29.9953861  84.2577667
   7.6875567  30.3239861  83.4514465   7.3841853  29.5061016  84.6883850
  12.6636038  42.2879753  36.2182961  12.5606012  42.7919159  37.0255547
  13.5726852  41.9888916  36.2369995  27.2644444  47.5316391  63.2808685
  27.2357769  46.5792923  63.3728027  27.7564888  47.8313522  64.0452576
  73.5204773  71.3007812   2.6102855  73.4142303  72.1147308   2.1179171
  72.6389771  70.9302216   2.6535509  38.0146904  19.5604610  87.5941238
  38.2082901  20.1001453  88.3606033  38.3076172  18.6827164  87.8390579
  19.6964664  57.3456612  60.0305061  18.7473869  57.3682327  60.1528625
  19.9430599  56.4438629  60.2359009   1.3065236   4.5868912  89.1146088
   1.0726564   3.6617634  89.1899567   2.0312991   4.6005764  88.4895172
  16.4468384  17.2965641  70.4567566  16.9505482  17.3759937  71.2668152
  16.0388374  18.1549873  70.3432693  58.4119759  18.7367058  36.5877037
  58.0633583  17.8461304  36.6273727  58.4023895  18.9563923  35.6561050
  35.7966080  70.7548599   4.4134927  35.5599289  71.6796036   4.4847102
  36.5817032  70.6662674   4.9538689  25.6733646   1.2345486  64.4629135
  25.8289509   2.1497033  64.2294235  24.7775288   1.0623627  64.1729736
  68.9352112  25.1274586  37.8731308  68.1684418  25.1971035  38.4418488
  69.3120270  26.0073643  37.8702965  69.9535446   9.5247107  17.3065205
  69.6832886   8.7685671  16.7855225  70.6629944   9.1945171  17.8577728
  72.5826797  61.0168304  44.7392540  72.0028381  60.2676353  44.8760872
  73.3928680  60.7780418  45.1895943  79.5006256  39.0743103  81.8668060
  80.3689651  39.2221413  82.2414551  79.6634674  38.9288292  80.9348450
  15.0049438  45.3286095  71.0634613  14.8667946  46.1158371  71.5901718
  15.9104910  45.0759277  71.2433701  53.4003525  12.9550724  63.4639969
  52.4822083  12.6915159  63.5254593  53.7197571  12.5270052  62.6696587
  24.4556980  66.8814926  52.6025162  24.2054195  66.4139786  51.8056297
  23.9827042  66.4316864  53.3026505  78.4229202  49.7015076  29.1461525
  78.6998520  50.5882645  28.9155025  78.1866226  49.2993507  28.3102913
  86.0890732  51.7435760  43.2277832  87.0178375  51.8093033  43.4498634
  85.7323990  51.1288986  43.8690224  60.4192848   4.0731301  49.0671730
  60.1196785   4.0928807  48.1582832  60.7699814   3.1902671  49.1846275
  37.2126350  58.2456741  20.4446888  36.4608688  58.6996384  20.0639076
  37.2756424  57.4292336  19.9490166  70.2621994  17.9554100  60.0819778
  69.6047516  18.6342258  60.2342796  70.7621994  17.9189796  60.8973999
  49.6733131   5.4718428  87.0649719  49.0217972   6.1352777  86.8377914
  49.2597198   4.6405039  86.8324890  41.6261139   9.7787113  84.7592621
  41.6477127  10.0453138  85.6783295  42.2057762   9.0181713  84.7168045
  33.1682167  40.0591393  13.2983227  32.2123680  40.0666809  13.2480946
  33.3596916  39.7011795  14.1651764  43.3551292  53.5751419  84.9979782
  43.0182343  53.2345009  85.8266525  44.1208725  53.0325699  84.8095932
  37.4945450  61.6118889  51.4923897  38.3868408  61.7784920  51.7961731
  37.4983597  60.6909142  51.2315788  41.0236931   5.0149455  14.5463161
  40.1030350   4.7560863  14.5061264  41.4917870   4.3036752  14.1090355
  14.7690144  29.1693630  82.2607727  14.4880037  28.3479977  81.8575058
  15.6744967  29.2809010  81.9711304  37.3103104  17.7029591   7.0347772
  37.7098579  16.8524761   6.8523664  37.9623604  18.1660423   7.5607238
  76.3930054  32.6229782  85.1819763  76.6552734  33.4285202  84.7363815
  75.6877975  32.2684441  84.6404800  41.6934547   6.8580227  66.4158630
  40.8721619   6.4342322  66.1666336  42.2906799   6.6669173  65.6926575
  31.8116112  29.1560249  75.8792877  31.9382420  29.3859959  74.9587936
  31.2947826  29.8776684  76.2375412  50.1760406  34.7708969  64.9971924
  50.5928154  35.4814034  65.4847488  50.7914963  34.5712547  64.2917938
  53.2724457  34.7386055  37.2728043  53.0299225  33.9401093  36.8039589
  52.4391823  35.1048431  37.5690727   0.2966400  25.4589195  15.9684372
   0.4167129  24.7019024  16.5417957  -0.4367436  25.2170696  15.4028492
  58.7101479  18.2285194  85.1789246  59.6672020  18.2143822  85.1702499
  58.4642792  17.4732189  85.7130585  55.8341827  38.7849274  83.2149506
  56.4655647  38.9264450  83.9203339  55.0085182  39.1236572  83.5610275
  69.1329498  58.2825890  56.2681770  69.8537827  57.7086792  56.5275230
  68.4099045  57.6861610  56.0739861  65.1403427  53.7282715  84.4037704
  64.8670120  53.6634216  85.3188171  64.6775284  53.0148239  83.9644165
  68.1216202  23.6303539  44.5461082  67.3467102  23.5184402  45.0967674
  68.4314041  22.7391872  44.3845940  52.8481369  20.1430473  88.0228043
  52.8429260  19.1866093  88.0606613  53.6509285  20.3596077  87.5486145
  16.7284184  40.0201797   8.0598516  16.5271034  40.2596169   8.9644918
  16.7158203  40.8505363   7.5838447  47.6447334   1.9598104  84.0064163
  48.3542633   2.5755465  83.8229218  46.9844284   2.1497631  83.3399734
  24.4220676  63.2633095  68.3415070  24.0869865  62.7420235  69.0710373
  25.3521557  63.3780556  68.5364380  10.8462334  69.0920792  10.2162495
  10.7441931  68.6434021  11.0555992  11.3869133  69.8559723  10.4171772
  79.9972229  53.5029449  41.2402763  79.6844635  54.3901596  41.4170876
  80.6673965  53.3481255  41.9059601  72.3607178   5.5753412  33.1500740
  72.3563995   5.6132541  32.1936340  73.1519012   6.0499706  33.4050140
  52.5037956  14.3603859  49.9985924  52.4893799  13.4112816  49.8752022
  53.2925339  14.6496067  49.5398140  13.4179468  69.4403305  47.2166328
  12.5384483  69.0708694  47.2954330  13.3887444  69.9588776  46.4125900
   5.8561201  53.6569099  71.8405304   5.9476438  52.9722176  71.1779175
   6.6985722  53.6646461  72.2948914  78.1807938  67.1797867  50.0909920
  77.6202850  66.4229355  49.9200134  77.6309509  67.9361267  49.8863792
  59.0162735  13.2869177  42.4037666  58.2448502  13.7446165  42.7378998
  59.7412910  13.8909769  42.5640602  29.7687511  47.2501259  70.2658005
  30.4816380  47.3593864  70.8951569  28.9980545  47.0732384  70.8052216
  85.5392227  34.3767624  86.2943115  84.9606323  33.8025627  86.7960663
  85.9845123  33.7917328  85.6813736  51.4705925  45.5112648   4.9612904
  50.6026230  45.8617554   5.1613264  51.8249931  46.1099930   4.3039041
  63.6245041  46.5309906  83.3222427  62.8710289  45.9696503  83.1394806
  64.0480423  46.6477814  82.4718246  69.2734909  32.7277679  10.4418812
  69.3969574  32.2089462  11.2367477  70.1208725  32.6915436   9.9981890
  74.6258850  52.3351212  47.8274155  75.0908661  53.1316223  48.0835724
  73.8444214  52.6496696  47.3728790  54.6450729  41.0928421  54.9094200
  54.2718430  40.4088402  55.4653587  54.5970726  40.7340126  54.0233192
  47.1832047  61.2565422  84.8825302  46.7042046  61.3950500  84.0654602
  46.5010681  61.1166611  85.5392990   7.9203877  44.9104538  20.7563686
   7.1954942  45.1193886  20.1672115   8.4347754  45.7165947  20.7984924
  79.9435806  34.4992065  50.4618835  80.4522171  35.1417084  50.9565735
  79.3958664  34.0699348  51.1191254  83.5583878  69.5582504  65.0049973
  82.8987579  69.4337311  65.6873627  83.0668793  69.8931656  64.2550049
   0.9842455  30.4432621  85.5500259   1.0910025  30.4586239  86.5011368
   0.3030430  29.7886810  85.3960190  52.4808617   4.0013070  49.9084358
  51.9436035   3.6564441  49.1952324  53.1965981   3.3716831  49.9951706
  85.5470276  43.1625175  37.5079613  85.1162262  42.4458961  37.9738922
  86.0957336  43.5830307  38.1700134  85.2245712  41.7374878  20.9863167
  84.5399933  41.2617531  21.4566956  85.2010040  41.3769150  20.0999393
  80.0605545   2.2826033  54.3804741  79.3716660   2.6039889  54.9621811
  80.1291351   2.9507146  53.6984482  48.0191765  62.7377205  19.2951851
  47.4120445  62.9423561  20.0063419  48.8776779  62.9942703  19.6319084
  38.3509293  48.4675179  55.5568771  39.2293968  48.3546753  55.9199142
  37.9087944  47.6379623  55.7373848  36.6223450  66.1396408  10.8705740
  35.7222099  66.1517792  11.1959114  37.0466652  65.4391251  11.3660202
  40.1151581  69.3717651  68.0785522  40.4178696  68.4808273  68.2541275
  39.2319946  69.2597122  67.7268448  60.8579521  19.3037453  18.7807255
  60.1993332  19.4528961  18.1023426  60.8076630  18.3650436  18.9611187
  66.3582306   4.5371342  76.3624344  66.4938583   3.6262417  76.6234131
  65.6934509   4.8635812  76.9688416  66.6201248   2.1659114  29.1285667
  66.2227020   2.4855189  28.3185444  66.0482483   2.4950004  29.8220272
  74.7729797  39.1474648  10.0911093  73.8373260  39.2661781   9.9276934
  75.0248947  38.4195366   9.5228767  28.8010921  49.3512726   3.0253053
  29.7545662  49.2702217   3.0018992  28.6440544  50.2718430   3.2353449
  74.4938278  50.5319061  55.7441444  73.5487137  50.5395317  55.5927124
  74.6589127  51.3163185  56.2672882  68.4846497   1.0680779  67.6128616
  69.1261749   0.3646398  67.5135803  68.4583282   1.4911081  66.7546158
  33.9198227  36.8820076  -0.0016858  34.2286034  35.9780655   0.0597633
  34.6917038  37.4126930   0.1953019  64.3098068  24.3119717  82.5482407
  63.5094872  24.8160400  82.6953049  64.8288345  24.8544579  81.9544754
   4.9093246  58.4587517  60.7098923   4.9917665  59.2322845  60.1521416
   4.4835439  57.8065567  60.1534882  49.2511330  43.1666641  49.3397598
  49.1422653  42.5952797  48.5795631  49.8437119  42.6860199  49.9177437
  69.7966919  22.6965294   2.2270658  70.6500702  22.3012695   2.4052660
  69.1642227  22.0196533   2.4679916  16.9849987  31.9209347  82.7826691
  17.7199326  31.3085613  82.7494583  17.2763958  32.6128235  83.3764801
  17.3076458  66.8953629  23.3522854  18.0254860  66.7819901  22.7293224
  17.3257961  67.8269043  23.5716782  51.8495140  53.4692612   1.6293445
  50.9433327  53.1802788   1.5218496  52.2274284  52.8465462   2.2503433
  50.5279465  71.0779724  17.2593460  50.4594994  70.1232376  17.2539330
  50.7585869  71.2964478  18.1622906  29.9097328  59.6441650   8.8489456
  30.1119080  60.2091026   8.1031551  29.7991600  58.7735214   8.4668636
  17.0955906   5.2674465  55.6151352  17.3549328   4.7704616  56.3910103
  17.5735512   6.0934787  55.6889992   4.0733576  66.7312241  67.1290665
   4.9254026  66.7200012  66.6930313   3.8308103  67.6567612  67.1570663
  37.1534157  22.2123260  86.0626831  37.9070168  22.1561642  85.4751816
  37.0172005  21.3140755  86.3640518  70.3990479  12.6992874  34.1478996
  69.8483505  11.9269724  34.2763405  71.0383148  12.6586037  34.8591766
  70.9817200  38.9912109  64.3838959  71.0833664  39.4330139  63.5408592
  70.4061508  38.2494049  64.1976929  75.1065369  38.8282471  34.8819504
  74.8591766  38.7604828  35.8041496  75.3398209  37.9346809  34.6302567
  73.3747101  63.7828369  77.2676849  73.0502090  64.6567154  77.0502777
  73.6659851  63.4204865  76.4309692  20.3548317  57.5739708  42.0132103
  20.5771217  58.4358597  42.3652992  21.0753746  57.3649750  41.4187622
   7.9852133  29.8003120  14.0955391   7.5940485  30.5186005  13.5982628
   8.2737455  30.2047081  14.9137354  27.0455017  21.6711750   5.1038213
  26.3791332  21.3368340   4.5034866  27.3667259  20.8944168   5.5617471
  40.8042603  37.5385284  25.4361305  39.8586502  37.5850830  25.2950935
  41.0781364  38.4512329  25.5266666   6.7609243  70.7399673  67.9062347
   6.7253628  71.6920853  67.8143845   7.1723342  70.4364777  67.0969925
  79.6435623  14.4325867  13.6072283  79.9970474  14.2335310  12.7402477
  79.9879837  15.3017521  13.8125391  25.3364220  65.7088394  83.1412888
  24.4748440  65.9426727  83.4866028  25.9332924  65.8395309  83.8781052
  84.0521469  10.7602100  47.7170143  84.7980728  10.8491402  48.3102493
  83.9363403  11.6345673  47.3451004  44.0449944  66.4250412  25.2485561
  44.3566208  66.7643280  24.4095039  43.8807144  67.2062759  25.7766819
  73.2688293  32.8199387  63.4800072  73.4019928  32.8479271  64.4274826
  73.3922348  31.8995457  63.2478828   1.7705314  15.9750071  50.2608566
   2.2675126  15.7560501  49.4726295   1.0606378  16.5359001  49.9483109
  16.4173470  48.4557915  67.1078033  16.3694611  47.5195580  66.9144058
  15.8855162  48.8684425  66.4272842  58.9567833  34.1237946  43.6564407
  59.4952850  33.3949471  43.3481636  58.0569077  33.8455658  43.4860153
  49.8477592   4.8902807  36.1004448  49.4981346   5.7809310  36.0732918
  50.7890434   4.9982185  35.9641838  17.8185902  65.7682877  33.1039810
  17.6607952  65.3091049  32.2790680  18.6497231  66.2236481  32.9694443
  32.6605225   5.5913596  26.9914494  32.9345970   5.7375612  27.8968449
  33.0098648   4.7276392  26.7719555  48.1992264  37.7372513   1.0749005
  48.7831573  37.9120827   1.8129308  48.6913109  37.1341782   0.5177809
  28.0131912  17.0315342  78.9527512  27.8932800  17.8549557  79.4258575
  27.1283150  16.6793652  78.8568268  83.3820190  70.2372131  70.1196442
  82.7649384  69.7547379  69.5694962  82.8282623  70.7317352  70.7238159
  69.1025848  13.2790117  37.3993454  69.0849991  12.9541197  38.2995491
  69.9020767  12.9077139  37.0262794   3.8384902  60.3557091  41.9465256
   4.4049864  60.8748283  42.5173416   3.6934903  60.9130363  41.1819382
  78.6805954  66.1421661  30.8982430  77.9102173  66.6116943  31.2180710
  79.3263321  66.2363968  31.5985088   3.3582122  26.5211945  71.8706131
   3.9448502  26.7438431  72.5934601   3.4391739  27.2552509  71.2616425
  53.1204338   3.7030079  55.6851654  52.7977676   4.1557264  54.9059601
  52.7512932   2.8222206  55.6205139  73.5040359  30.3972740  40.4923706
  73.5653152  30.7674389  41.3729706  73.0095062  31.0472775  39.9932022
   7.1035900  60.1265373  20.4724789   7.3140206  60.7824020  21.1371555
   7.9230552  59.6505432  20.3378105  26.8670139  31.5570545  84.0739212
  26.4391117  30.7022724  84.1236801  26.1493568  32.1878586  84.1312485
  81.2435608  31.3930340  71.0749588  81.6634521  32.1288490  71.5204926
  81.5785980  30.6176376  71.5252228  26.1804733  65.6889267  43.2601624
  26.7076340  65.1840057  43.8793488  26.2508583  66.5928497  43.5670776
  26.7110767  11.8270721   9.3195877  27.0004292  11.8695803   8.4081602
  27.4706936  12.1152411   9.8257236   4.5612946  50.7163925  27.4487705
   5.1908793  50.6243057  28.1638756   4.3394976  49.8170090  27.2076302
  25.1579075  37.3035927   6.6174426  24.5425014  36.9292793   7.2478347
  25.4683838  36.5529366   6.1111317  67.6384735  20.6264267  27.7085190
  66.7443771  20.3195438  27.8590279  67.6539841  20.8750134  26.7842903
  16.6267147  67.7363129  73.6846924  15.8426905  67.2176666  73.8650894
  16.6783352  68.3540192  74.4140854   7.9244728  10.8143682  28.1332970
   7.9300413  11.7715311  28.1397038   8.7805290  10.5675240  28.4832497
   3.5266345  70.0620422  64.1681213   4.2829041  70.6350555  64.2944183
   2.9330990  70.5676880  63.6128960  28.9672699  41.2457809  82.6476746
  29.3003922  40.9324608  83.4885635  29.7525215  41.4176559  82.1279907
  25.9904728  23.7076492  55.1951714  26.8301811  23.7182903  54.7358131
  26.1220970  24.2837009  55.9482155   7.0189109  54.6651802   4.7487035
   6.0851235  54.8486290   4.6456523   7.0702615  54.1164818   5.5313416
  29.0911579  58.9049377  44.9528999  28.4408112  59.3111229  45.5258713
  28.5844746  58.5776978  44.2096519  55.4610748  39.9632225  39.6465416
  55.1955757  39.7840233  40.5485573  54.6421738  39.9611511  39.1509323
  60.7263794  58.4069290  11.4857368  59.9575882  58.9343262  11.7026281
  60.3873558  57.5167465  11.3915768  10.9073000  41.6485901  16.3709240
  10.6182308  42.4489899  15.9327126  10.1017609  41.2544556  16.7055855
   2.5487545  60.5774117  48.4046021   1.8372442  60.9650154  48.9142570
   2.1194878  59.9237709  47.8525925  47.5236702  69.6504898  59.7501106
  46.8972969  68.9564590  59.9555664  48.0551529  69.2908936  59.0398636
  77.5458527  41.8133659  35.6352081  76.6876831  41.4706573  35.3855400
  78.1325531  41.5215111  34.9374733  77.1941376  21.3584003  56.2247925
  77.9712601  21.5356083  55.6947784  76.6804810  20.7451344  55.6991615
  20.9226093  55.1696205  11.3237057  21.5009022  54.9086571  10.6069717
  21.4783993  55.6923904  11.9016705  38.3916473   4.3498821  21.8412170
  38.6730118   3.5385430  22.2640610  39.1658974   4.9122882  21.8629704
  74.8365402  42.6965675  81.7473679  75.1649323  43.5821037  81.9029999
  74.9272156  42.5700340  80.8029099  53.7922783  39.5605011  85.0125046
  52.9508400  39.1052704  84.9812393  54.3174286  39.0510521  85.6296768
  30.0687523   6.2792668  57.6296768  29.2579784   5.9443374  57.2466583
  30.3278275   6.9972029  57.0520287   6.7970819  11.0849838   4.4211450
   7.5403724  11.6859217   4.4723797   6.1052113  11.5164995   4.9224844
  29.0970039  14.1024122  82.8834381  28.5687885  13.4952927  82.3651505
  29.4758511  14.7004271  82.2391739  64.8940353  53.3580894  79.0841141
  64.3781815  53.3008575  79.8883820  64.5708618  52.6394653  78.5406342
  71.5316544  60.0570564  16.8789482  71.9464722  60.6914864  16.2944317
  70.9466934  60.5817451  17.4255352  32.2688484  63.8657303  15.4703865
  32.6873474  63.4459953  16.2219944  32.6047516  63.3883743  14.7117481
  52.6647644  61.2929840  28.0184574  52.6205559  61.9305115  27.3058319
  52.2118187  61.7168312  28.7474480  70.5151520   3.7700815  67.1245575
  70.4720230   3.1368575  66.4080353  70.1775894   4.5823302  66.7470169
  22.2355080  53.5885811  41.6279488  22.0145092  54.4710770  41.9255905
  22.8624191  53.7253494  40.9176598  80.1963730  59.5714378  49.9496841
  79.6807404  58.7781944  49.8043365  80.0254440  59.8043480  50.8622475
  29.2541199   7.1557083  53.7111130  29.9544907   7.6634107  54.1209335
  29.6103745   6.2701283  53.6399612  29.9696636  62.6295776   5.6790819
  30.5908699  63.1752319   5.1968021  29.5954037  62.0494652   5.0160351
  39.0124550  43.9459381  61.1552811  38.7832375  44.8359261  61.4228935
  38.1710701  43.4980850  61.0673447  28.8384914  65.9123230  77.5638199
  29.6015968  65.3475876  77.6862259  29.0842285  66.7399445  77.9772034
  24.7017555  17.6076584  88.5133896  25.0609398  17.7705765  87.6412201
  24.2019672  16.7967796  88.4189529  58.8219337  56.2889252  52.9370651
  58.1701698  56.9887085  52.9787598  59.3804779  56.5256424  52.1966438
  37.1664810  65.2012329  34.5220947  36.4424477  64.6156006  34.3006554
  37.0557899  65.9507523  33.9371109  56.5307770  45.4369469  50.3163261
  55.5852852  45.2962608  50.2664604  56.6228523  46.3318825  50.6431961
  26.7464809  51.5479889  13.3768101  27.2748833  52.0776062  12.7797127
  27.0949383  51.7471581  14.2457981  24.1316795  21.0790443  75.6506729
  23.7758255  21.4788151  74.8570786  24.9632397  21.5308361  75.7942734
  81.2184830  41.2346725  75.3978806  81.7374115  42.0265121  75.2567062
  81.4536819  40.9483490  76.2804489  27.7436485   8.0542803  34.0475769
  27.3408375   7.8207521  34.8839035  28.0322189   8.9593401  34.1651573
  55.7784576   4.9645462  12.0382442  56.0456123   4.8108549  11.1320219
  56.3298264   5.6902871  12.3306913  64.4534988  64.0985794  83.5393829
  63.9098015  64.6963043  84.0525513  64.4362946  63.2773857  84.0308914
  43.5839882  45.2587051  52.7908478  44.4124718  44.9257469  53.1357880
  43.3131523  44.6052628  52.1459541  21.7638474  54.8636169  23.8601418
  22.2320042  55.2650528  24.5921993  20.8700085  54.7474289  24.1823006
   9.4448919  11.6689796  17.7919827   9.5890265  11.6770830  18.7382336
   9.4111748  10.7402363  17.5627880  69.4911270  18.0907688  70.8275833
  70.1080856  17.5713100  70.3120728  69.1150055  18.7080822  70.2001419
  60.6664543  42.2065582  42.6350479  61.2947578  41.5034447  42.4704361
  60.3869781  42.0709114  43.5404358  11.5414696  47.6843452  65.5152969
  10.6032362  47.5307007  65.6264038  11.6526728  48.6198654  65.6846161
   6.3842731  28.1764488  23.2622719   6.5945158  28.4098759  24.1664524
   5.4307971  28.0927162  23.2520370  46.3562737  37.3974800  53.9740906
  45.7469597  37.5656929  53.2552910  47.2219162  37.5490074  53.5947037
  35.8274117   9.4499264   6.9388762  36.5414734   9.5650654   6.3119087
  35.6861763  10.3233681   7.3040943  51.1687698  52.1328697  38.0394478
  51.8363266  52.7320557  38.3734703  51.3371887  52.0872726  37.0982857
  79.0936508  58.1509247  37.8136864  79.9228897  58.0046120  38.2688522
  78.4441986  57.6905899  38.3452263  57.6911774  43.5585251  69.4937210
  57.6885757  44.5087433  69.6091003  57.6018715  43.2093391  70.3804703
  17.3993015  33.4563026  59.7846413  17.7657585  34.3400612  59.8147621
  17.9365921  32.9532394  60.3965912  62.0016518   4.2729788  24.3356628
  61.5320816   4.8701663  23.7533360  61.6516762   3.4075477  24.1240501
  31.4887314  28.7774830  66.8119659  31.1997261  28.3837624  65.9887390
  30.6867847  28.8748856  67.3254089  58.2052689  42.2893410  15.1076813
  58.7432671  41.5878143  14.7407379  57.4435539  41.8402634  15.4742174
  59.4445839  59.5676155  46.6986542  60.1501274  59.9471741  47.2224617
  59.4114838  60.1113358  45.9115677  62.8785667  33.7497787  76.7212830
  63.7720184  33.8518295  76.3933182  62.3271675  33.8291626  75.9428940
  51.0379410  40.3469200  13.4296379  51.6872101  40.2719841  12.7303076
  51.1346321  41.2432938  13.7511902  22.1435299  62.5775948  83.3655243
  22.6893063  62.2978668  82.6306076  22.6407070  62.3240738  84.1431961
  76.7347031  55.1584625  33.1536484  77.5578766  54.9048195  33.5711212
  76.4605484  55.9460220  33.6235619  48.8300438  14.0317841  70.2812653
  48.8006592  14.8019953  70.8488464  49.7577553  13.9240398  70.0715790
  33.6571083  34.8052902   2.6789041  34.4487114  34.5515785   2.2043252
  33.9771996  35.3135071   3.4242127  66.9327927  15.2201681  50.7225418
  66.4709702  15.5795326  49.9650421  66.3132935  14.6014509  51.1093674
  38.7176132  46.7701530  76.1343994  39.3341751  46.6545792  76.8573990
  37.8650017  46.5489388  76.5090256   2.2799387  67.4964905  21.7716274
   1.8588459  66.6400223  21.8449383   2.6347377  67.5136490  20.8827782
  80.0920410  49.9105110  32.8523827  80.3260345  49.1931534  33.4413490
  80.7001038  49.8255234  32.1180305   8.2628355  21.8448372   2.4908888
   8.9169827  22.2992706   3.0217497   8.3697939  22.2116241   1.6132445
  61.1369400  30.3529491  38.7631264  61.4523544  31.2349777  38.5662270
  60.9792442  30.3601742  39.7072220  68.8814850  45.3827438  61.5400658
  67.9337006  45.2960396  61.6421127  69.1725159  44.5151520  61.2593117
  52.0035515  61.2750664  12.7066402  52.3703651  62.0294113  12.2455082
  51.1714668  61.1057014  12.2648525  18.6429081  69.3894882  50.8996124
  18.4161682  70.0896530  51.5116501  19.5995960  69.3608170  50.9122429
  40.5966835  66.5635529  75.9204712  40.6180763  67.0013123  76.7714386
  41.4240761  66.0842285  75.8768311  63.6068535  43.8559875  41.5210228
  64.0668488  43.5815201  42.3143044  63.0379562  44.5699234  41.8089180
  19.9484806  65.7038879  40.7700157  19.4042873  66.3595581  40.3339157
  20.2711525  66.1447906  41.5559654  26.3844662  69.2647934  83.2756042
  25.6821194  69.9032288  83.3994675  26.1503143  68.8044510  82.4696960
  17.0644588  55.6975517  53.8035088  17.5130768  54.9592857  54.2157402
  17.4301186  56.4705048  54.2337036   1.3206120  26.8743343  68.2572403
   0.4722446  26.5737495  67.9314270   1.1235831  27.6856060  68.7254791
   4.4876738  13.3430023  47.6598434   4.5330873  12.4025984  47.8325043
   5.4006600  13.6124363  47.5593834  27.7947617  21.6756229  56.9503021
  27.0868073  21.0345154  57.0136757  28.2073917  21.6629410  57.8139000
  80.0316925  46.7162323  42.3020821  80.9821320  46.7995529  42.3791924
  79.8165741  47.1717453  41.4881630  79.6097488  10.5795183  84.0407562
  80.0892410   9.7529593  83.9849014  78.9392776  10.5138874  83.3607559
  64.3904114  66.6791611  69.5062866  63.5376587  66.6957855  69.0718079
  64.2037888  66.9337006  70.4099579  37.9506569  20.1448441   1.1539084
  38.0541039  19.6675224   1.9771309  37.2977180  20.8174763   1.3474700
  57.6911316  16.2966366  75.4520874  57.3818741  15.8698988  74.6530304
  58.6451149  16.2885818  75.3740845  80.1047668  19.2554207  23.7460117
  79.3751755  18.7989540  23.3270035  79.8093719  19.4054871  24.6440392
  10.1880770  26.3722095  56.1651611  10.3115387  27.2013206  55.7030296
   9.3348646  26.0567188  55.8672905  66.6263580  28.3628998  89.1415558
  67.1621017  28.9347305  89.6912994  67.2492065  27.9600449  88.5365753
  82.5034790   9.0360317  64.3502502  83.0692902   9.0704546  65.1215439
  82.5158234   9.9283772  64.0041275  28.4328785  20.0627270   0.3564988
  28.9913597  19.7921562   1.0852807  28.9582081  20.7034836  -0.1227618
  64.1373978  68.7619934  89.1327209  64.5150757  69.5965118  88.8549271
  63.1968956  68.8644485  88.9871292  21.6364174  52.6068230  59.1725311
  22.5021229  52.9340477  59.4168892  21.6855392  52.4842072  58.2244873
  52.5317116  17.8082886  22.5224361  53.1008835  17.3531017  23.1429844
  52.7921562  17.4697857  21.6658058  54.9186363  27.2336388   6.7213235
  55.5062370  27.8743420   6.3207526  54.8862114  27.4829788   7.6449084
  71.8918915   2.0243237  36.9657326  72.3373337   1.7359453  37.7623863
  71.7833481   2.9684124  37.0803947  58.9203644   9.1255941  31.3521042
  59.1166458   8.3218803  30.8707008  59.7733841   9.5383949  31.4869537
  83.2034073  47.8015213   2.5099847  82.4094315  48.2143631   2.1702864
  83.8562164  47.9364662   1.8230636  72.0931091  68.3085785  48.6756516
  71.9219131  68.2295380  47.7372055  71.6568985  69.1214294  48.9310532
  59.4869537  70.8272247  23.5849190  59.9792213  70.0073853  23.6268959
  58.6369591  70.5779190  23.2221661  12.3684464   9.3082600  65.6903458
  12.1347818   9.9535055  66.3576508  12.7218199   8.5690708  66.1852798
  46.0348473  70.3701935  22.4715157  45.3587608  70.3341293  21.7948799
  45.6477432  70.8993530  23.1689224  72.1992950   3.8299682  28.5967064
  71.6950989   4.4721222  29.0963707  71.5567627   3.1688569  28.3391743
  73.8199158  21.4919815   6.3431535  74.6115417  21.9249344   6.0236101
  73.3460617  21.2431622   5.5495667  23.7308350  38.2325592   9.9536476
  23.5948067  39.0492554   9.4732962  23.7890301  37.5615196   9.2735386
  19.9482040  60.2626991  73.9533768  19.4644165  60.8812370  74.5007248
  20.8631611  60.3825607  74.2077789  55.9577370  18.1146660  29.2856064
  55.4288101  18.8921909  29.1069393  55.4124031  17.5818100  29.8643169
  41.2330055  46.9999695  47.2420616  41.9900093  47.2192574  46.6988449
  41.5068817  46.2252617  47.7330284  72.0374222  31.7046986  55.2854309
  71.4109192  32.4053001  55.1040993  71.5050278  30.9937172  55.6422081
  37.8958778  68.4407959  15.9442730  36.9515648  68.4657593  15.7897453
  38.2552986  68.0196304  15.1634636   2.7865272  29.0420609  38.5415306
   2.4644299  29.9415112  38.6004753   3.7387617  29.1307964  38.5014420
  86.4291611  69.4362793  24.8805790  87.3154297  69.0746841  24.8826141
  86.5441513  70.3506927  24.6220207  25.7933216  66.2870331   4.4979901
  24.9077225  66.1822128   4.1501961  26.1592445  65.4025574   4.4919691
   7.5693960  38.6680145   5.6356297   6.8466244  38.7474747   6.2581396
   8.1816788  39.3583565   5.8901248  39.3909912  51.7774086  76.3928680
  38.8187790  52.5165749  76.5988770  39.0687828  51.0642090  76.9440079
  27.2638721  23.8036594  80.8326416  26.7600155  23.0869637  80.4470139
  26.8261890  23.9835606  81.6646881  71.6133270  35.1643028   6.3149152
  71.5442581  35.9155807   6.9040203  71.3239899  35.4983368   5.4658356
  46.3250351  19.0046406  32.3582382  45.5742226  18.7847748  31.8067207
  46.0063820  19.7039013  32.9289627   3.2799993  54.5886955  46.9349937
   3.4838786  55.4859428  47.1988335   3.4410651  54.5740013  45.9915543
  81.7877121  57.6379509  88.0680161  81.9546204  56.6974945  88.1306000
  80.8336792  57.7105560  88.0400696  51.1829147  59.7272224  78.2135773
  51.3087234  60.2187195  77.4018936  51.3357506  60.3682060  78.9078522
   8.2818995  67.0489883  42.1840782   8.0897608  67.2662888  43.0962715
   8.0355120  67.8334274  41.6939888  69.6280060  49.9388847  25.5061150
  70.4311447  50.3134003  25.8679771  68.9391098  50.5486145  25.7704754
  57.6908760  62.3252029  27.2070541  57.4069443  63.2197990  27.0191383
  58.0575676  62.3707924  28.0900555  49.5733757   2.6517427  38.9493828
  50.0766640   3.4004998  39.2692223  50.0203171   2.3888218  38.1448059
  43.2401314  63.3790779  58.8828545  43.7178993  63.1532898  58.0847397
  42.4778786  63.8694649  58.5750771  75.6096039  45.8246231  22.0068073
  76.1923676  45.8053703  21.2476959  76.1304932  45.4519463  22.7181549
  58.3610611  47.6004295   7.1173887  58.9610825  48.0710297   6.5388169
  58.9125862  46.9567451   7.5620489  21.5308018   2.1671977   8.5583286
  22.3272781   2.0268993   9.0703583  21.3912411   1.3382378   8.1005297
  25.2586079  51.9099541  63.4006805  24.9346790  52.7989273  63.2556610
  26.2116947  51.9956665  63.3780785  36.2447090  33.7450638  62.5633926
  36.3809052  32.8412437  62.2791595  35.3463783  33.7595177  62.8935814
  13.0319014  56.1626816  86.0515442  13.7649097  56.1031342  85.4388580
  12.4206705  56.7705002  85.6353912  76.5648727  68.5465927  38.2308693
  76.9975586  68.4768906  39.0818443  75.6927567  68.1792679  38.3748131
  43.0745697   7.2867861  58.7575073  42.8094444   8.0386677  58.2277756
  42.3015137   6.7226453  58.7764778  66.3223495  71.4475555  14.3329992
  66.4965286  71.7780762  15.2142773  66.8476562  70.6500092  14.2681513
  60.5068817  39.7370491   7.2792978  59.7709389  40.3020248   7.5147147
  60.2821083  38.8838310   7.6504130  38.9428024  35.5802917  10.5810242
  39.7734680  35.5770493  11.0566502  38.8752403  34.7000923  10.2110052
   0.8889968  55.5397301  43.8942184   1.8392532  55.4362144  43.8439293
   0.6608877  55.2339592  44.7721176  76.1715164   3.9867518  25.2052383
  76.2798996   4.9178391  25.0114365  75.3509827   3.7464633  24.7748680
   9.5621614   2.6191874  47.1688194  10.1274424   2.9354448  46.4640694
   8.9068823   2.0796418  46.7264023   2.2964880  66.3248901  28.2057571
   1.4930511  66.2473602  28.7202549   2.2365224  65.6205368  27.5603733
  84.7522430  16.6512184  10.0707798  84.9837418  17.5712032   9.9432230
  84.2381287  16.4239655   9.2960100  70.3237457  65.2005615  75.7364273
  70.5658035  65.3835678  76.6442566  71.0531311  64.6841888  75.3935089
  53.5419044  29.2074394  68.7942200  53.6943626  29.5824528  67.9268341
  52.6977310  28.7627239  68.7178802  84.2698288  11.5633516  54.1321068
  84.6048279  11.8658857  54.9761925  84.2700958  10.6087465  54.2025375
  55.2972946  31.3735619  37.5835266  55.7704849  30.6389561  37.1927872
  54.4517517  31.3796158  37.1349144  24.5197086  69.2812195  70.5071106
  25.2715073  69.7192535  70.1081619  24.6046448  68.3666611  70.2376633
  57.9643173  37.7977333  86.9772568  58.5322342  37.8262253  87.7472534
  57.2387772  37.2293625  87.2356720  56.5311584   2.7350390  45.8245735
  56.0157051   3.1071832  46.5401497  56.9536400   3.4903879  45.4156876
  20.7590637  52.1578331  21.6714783  20.4705868  51.5939026  22.3891087
  21.2776356  52.8406372  22.0970306   1.2566378  25.8670845  45.3537788
   1.4249637  26.0218430  44.4242897   1.7902331  25.1023140  45.5697289
  70.7360153  28.7758141  74.1860962  70.9155884  28.7524891  75.1260147
  71.3411560  29.4332676  73.8428802  62.5892906   9.9195585  15.5522623
  62.5960159   9.0360365  15.1840563  62.9349403  10.4734030  14.8522530
  59.0880165  24.3734264   9.0231676  58.7676926  25.0425301   8.4182501
  58.5410385  24.4733334   9.8023119  28.3515072  53.5502090  73.1125259
  27.9818554  53.9862785  73.8802643  27.6996880  52.8908577  72.8745728
  40.7369766  69.9966507  73.2652206  39.9229164  69.4997177  73.3463974
  40.5073814  70.8808212  73.5511551  55.2117424  49.2748566  89.1693115
  55.5888023  48.4174347  89.3664856  54.3749733  49.0774879  88.7484741
  57.2826233  65.0214233  27.1946087  56.7681541  64.9488449  27.9985294
  58.0081978  65.6012344  27.4261074  18.8466587  59.2130165  80.0690613
  18.5374546  59.0544014  79.1771774  18.1722431  59.7675858  80.4612961
  51.8895721  12.9012833  61.1571121  51.4729309  13.7281666  61.3998184
  51.3765564  12.5836325  60.4140472  61.9820328  58.1354179  77.5593719
  62.2360992  57.4737968  78.2027512  62.1282425  57.7143478  76.7122879
  84.4954758  27.0063286  29.0843105  84.4879227  27.9634666  29.0763702
  85.3894119  26.7759590  29.3373814   0.5790874  38.3865433  85.0507278
  -0.2265883  38.8079414  85.3499603   0.6044687  37.5549316  85.5240250
  32.4245872  52.0357361  69.2415695  33.0013466  52.2298279  68.5027161
  32.5610924  51.1040840  69.4136810   0.5807054  47.5851707  74.7319946
   1.3078932  48.1348114  75.0240936  -0.1989978  48.0089989  75.0906982
  17.2392330  21.8560600  12.7402582  17.6880875  22.5267467  12.2255354
  17.9385490  21.4195633  13.2267323  72.0148315  38.3789177  10.6839075
  72.0946503  38.2325287  11.6264734  71.2317810  38.9215736  10.5912657
  58.1337090  12.1035233  82.2272339  57.4853020  12.6979218  81.8497543
  58.9092255  12.2145319  81.6772461  30.9071598  31.8263283   2.5981488
  31.8347683  31.6222935   2.4792228  30.5528660  31.0682850   3.0629909
   2.1812842  37.1650124  34.2550087   2.4734249  37.4309273  35.1268883
   1.7204376  37.9310265  33.9128456  61.3369064  45.2957497  12.7270365
  61.6036148  44.3901100  12.8848763  60.5011597  45.3826790  13.1855192
  67.8107224  13.4179029  78.7549591  67.3618393  12.6542797  79.1177444
  68.4376602  13.0529175  78.1304855  23.7677536  12.4200153   7.3339710
  24.6851177  12.4669466   7.0647645  23.7777901  11.8827915   8.1261339
  38.0441322  38.4252434  64.2042542  38.9573517  38.5989189  63.9760056
  37.6066513  38.2990112  63.3622856  72.1321411  69.1429062  54.5847321
  72.0217209  69.3392181  53.6544075  71.4565659  68.4917221  54.7739372
  81.2647324  52.2664146  71.4849625  81.9068298  51.9106941  70.8706284
  81.7394104  52.3374786  72.3131256  60.5822830  53.3353310  75.4035645
  59.9072914  53.6028557  76.0272980  60.3212051  52.4557686  75.1307220
  20.5611305  46.3430290  54.0619469  20.4796124  46.7711830  54.9141579
  20.8884258  45.4666328  54.2645416  40.1703033  56.7561798  70.7647629
  40.0224571  56.8516312  69.8238754  40.3777809  55.8290939  70.8817749
  75.6224823  65.2498245  37.1109924  74.9922943  64.8620758  36.5037460
  75.2406769  65.1056595  37.9768257  77.0367737  55.7064095  51.5111198
  76.5554123  56.5312729  51.5752945  77.0899200  55.3893394  52.4127159
  76.0941391   6.8133397  82.4425659  76.4942780   7.6821756  82.4073486
  76.7560196   6.2615275  82.8592758  59.4193726  19.4496632  40.7454491
  60.2506638  19.1902752  40.3480797  58.8680115  19.7014236  40.0046043
  34.2307930   6.7441897  74.4655304  34.5780220   6.0151300  73.9515915
  33.4574966   7.0322676  73.9804993   8.5833712   6.4344778  12.4677992
   9.3260794   7.0375414  12.4372778   7.9661007   6.8451633  13.0732288
  12.0970278   5.6500683  81.2905350  12.2461758   5.3230429  82.1776886
  12.0984039   6.6027837  81.3830795  72.5768356   9.0337210  44.3586121
  71.6941528   8.6999044  44.5187988  72.9442520   8.4363651  43.7071495
  18.6859398  39.6381073   0.4836328  19.1894035  39.0182190  -0.0440917
  17.7729740  39.4559441   0.2610497  53.6558113  47.4269829  33.7028313
  52.9829788  46.7516594  33.7892494  53.5957756  47.7094994  32.7902451
  66.0494003  28.6585865  11.8385229  66.0462418  29.5627117  11.5242281
  66.9662476  28.3891354  11.7836237  31.9580727  69.9139557  46.3286095
  31.7348194  69.0130920  46.5627708  32.2046394  69.8672409  45.4048882
  53.9389839  63.8642464  25.4149723  53.8461266  63.7822456  26.3641224
  54.6151466  63.2271156  25.1845379   9.4709320  56.0680618  53.8427505
   8.7746639  55.7419014  54.4128952   9.1371641  55.9331093  52.9558372
  32.9780426  67.5983047  66.5542221  32.2358627  68.0129013  66.1143188
  32.8002167  67.7169647  67.4872437  11.7065840  63.6038818  84.9852295
  11.2836657  64.4479065  84.8271408  12.4206171  63.8034325  85.5906754
   1.7195489  20.2554455  53.1002235   1.2920418  20.7480431  53.8008041
   2.5002620  19.8837166  53.5107574  83.7280655  17.9751987  50.6825523
  83.5623474  18.9008026  50.5035934  82.8976593  17.6451817  51.0256882
  81.3917999   7.0533524  46.2633743  82.1200104   7.5015483  45.8331795
  81.3741913   6.1847553  45.8615494  18.5922165  59.6242409   1.8475671
  18.3323116  58.7164001   1.6910055  17.8533306  60.0066872   2.3208687
  75.2316437  19.6255188  22.4164238  75.3715439  19.4734116  23.3510475
  75.8431549  19.0303707  21.9827328  73.7923431   4.0090227  71.6731567
  73.2777328   3.2291832  71.8811493  73.4826126   4.2766137  70.8078842
  50.3446350  14.3472519  16.6586781  49.5960503  14.5478058  16.0968628
  50.9942741  13.9690027  16.0661182  18.8604679  59.4033966  71.6292343
  19.1199455  59.5208092  72.5430832  19.6217766  58.9978485  71.2142944
  75.7200241  45.6609573  56.8434067  76.5100403  45.7181740  56.3059654
  75.2800598  46.5009422  56.7126846  23.6207142  68.0818100  18.4856167
  22.9385586  68.1150970  17.8149548  23.7108974  67.1509399  18.6895275
  59.2800827   0.1604784  60.7177353  59.0728111  -0.1175384  59.8255577
  60.1651535   0.5199234  60.6570740  22.3122902   2.1883888  62.0429153
  21.9493523   2.7173967  62.7533073  22.8050117   1.4977715  62.4862022
  38.9455376  26.6923065  66.7148666  38.5581551  25.8202248  66.6397858
  39.3650742  26.6947651  67.5752182  69.9756393   2.9436469  59.0691566
  69.6207504   3.4157002  59.8224487  69.5558090   2.0842009  59.1055984
  65.6840973  52.7802467   3.2555726  66.1505966  52.1767426   3.8338418
  64.8748016  52.9838181   3.7244334  44.4452705  42.9596062  88.6627808
  43.8214340  42.7423286  89.3554916  44.9270134  42.1465797  88.5106430
  26.7832642  66.2112885  85.4171600  27.0421162  67.0666656  85.7600174
  27.5033016  65.6286163  85.6585464  56.3624229  33.1026306  34.9837761
  56.3452034  32.8995781  35.9190331  56.8787575  32.3966637  34.5948792
  73.1540680  58.3078232   1.1646173  72.2227020  58.0980721   1.0953499
  73.5960770  57.5855713   0.7182904  83.2885742  33.9341698  62.3038101
  84.1488266  34.3449173  62.3903542  83.3193665  33.4900780  61.4564209
  38.3396683   4.1976843  72.1344604  39.0996056   4.1169953  71.5580826
  37.6416893   3.7281997  71.6776886  54.7054062  14.7451315  21.7646770
  55.3961067  15.1181440  21.2169266  54.9681358  14.9587383  22.6599846
  37.1858635  56.0375175   6.8344979  37.9157944  56.2843513   6.2666016
  36.5037956  56.6806297   6.6410503  47.4941940   5.9734745  30.1267128
  46.8779869   6.4498258  29.5702839  47.6087914   5.1297116  29.6894913
  63.3503036  40.1177254  14.0970192  63.4067993  39.5736427  13.3115168
  62.8606644  39.5843506  14.7231150  10.8216162  28.4287891  82.1328278
  10.3897352  27.8778286  82.7856369  10.1033888  28.8056526  81.6245422
  13.7954636  67.3897247  54.1518288  13.8624582  66.9055862  54.9748459
  12.8546019  67.5008926  54.0152512  74.4092407  65.3288879  54.3044167
  74.8522263  66.0834885  53.9163628  73.9614334  65.6830521  55.0727081
   1.2788743   7.1865067  57.1260262   1.3587898   7.2986360  56.1787834
   2.0222893   6.6330318  57.3652573  21.9771729  64.4503708   4.6397424
  22.4836388  64.5770950   3.8374536  21.1554604  64.0579147   4.3447866
  35.1956253   0.2104739  19.7732334  34.2984581   0.4813233  19.5783978
  35.6924934   0.4463128  18.9898205  54.4524345  27.0014248  20.1862640
  54.6473770  27.6373596  19.4979210  54.2681274  27.5345097  20.9596233
  57.6073227  17.4813423  41.6967087  58.1735764  18.2149239  41.9363861
  58.1085854  16.9959869  41.0414238  71.4288940  62.2268982  34.6082687
  71.2175217  61.9863434  33.7062225  71.1850128  61.4585876  35.1244621
  78.9527588  40.7491837  63.7106209  78.6650620  39.8389435  63.6404190
  79.9012375  40.7107506  63.5875664  86.6070328  39.5213013  64.4648361
  87.4590302  39.1944008  64.7537537  86.2020874  39.8693352  65.2592697
   7.5293212   3.3301201  59.9584503   8.3641205   3.2322705  59.5004463
   6.8787189   2.9853508  59.3468285  71.5989685  28.2706966  31.8366928
  72.0561829  27.8527489  32.5664215  71.4716415  27.5676975  31.1996593
   6.9811301  13.8151531  21.8303471   7.3647194  13.1247463  22.3711147
   6.0733113  13.5409613  21.7002831  25.0098343  37.0946922  73.9412537
  25.7380409  37.4553490  73.4354172  24.4351635  36.6996803  73.2855453
  78.4956512  33.9173851  77.2969131  79.0811157  34.5568275  76.8912277
  77.6508865  34.3646126  77.3478317  37.8522034  46.7442589  20.5029469
  37.1307106  47.3106308  20.2292652  37.4390640  45.8994865  20.6815643
  14.2878962  68.6029968  69.0293427  13.9165792  67.9177170  68.4736938
  15.1951962  68.6843033  68.7353592  57.0861168  28.7935410  63.3287468
  56.4464226  28.5466270  63.9966202  57.9345512  28.6885185  63.7592812
  46.0641556  20.8538475  66.7798462  46.4278107  21.6160603  67.2304230
  46.2653618  21.0031796  65.8560257  52.9251633  52.7014046  57.0987396
  53.7151031  53.2022171  56.8952332  52.9033127  52.6666908  58.0550613
  36.8528633  64.1858749  42.1699638  37.6277351  63.8582649  42.6265564
  36.9041710  63.7927551  41.2987213  59.4700470  55.2230492  41.9341927
  59.9547729  56.0314827  41.7677193  58.5496254  55.4808846  41.8834381
  67.0793762  66.8201752   3.9217408  66.3468628  66.2543716   3.6777854
  66.9591064  66.9772873   4.8582673   5.4163318  70.7697067  53.8620911
   5.3513560  69.9038544  54.2649689   6.3476038  70.9860992  53.9083061
  75.4294739  33.1359634  35.4609070  76.2336731  32.6993752  35.1800499
  75.1449127  32.6421928  36.2299614  10.6157274  56.1405296  65.1233826
  10.1555014  56.9157753  64.8018036  10.8170042  55.6370697  64.3345566
  58.2274742  51.5495071  68.8641205  59.1764755  51.5125122  68.7446976
  58.0910568  52.2731438  69.4756546  39.5787582  38.8213615  14.0616341
  40.2326851  39.4677048  13.7954597  39.7536774  38.6723442  14.9908428
  60.9162178  68.2111053  83.4218369  61.7392921  68.2865829  82.9390564
  60.2466011  68.1308517  82.7425690  63.0505981   2.7189062  45.8563194
  62.4213562   2.4670179  45.1804199  62.7839203   3.6010544  46.1150284
  57.9525070   1.6744523  28.6726799  57.4747849   1.1253437  29.2943668
  57.6567688   1.3756564  27.8127422  40.3950272  29.4327431  69.4478073
  41.0401726  30.1196613  69.2799835  40.0097809  29.6670856  70.2921371
  32.7259827  20.1700935  74.7818451  31.8588104  20.5743389  74.8106842
  33.1974182  20.5618210  75.5170517   4.8758307  51.2681351   1.8101287
   4.5585141  50.7666321   2.5611539   5.5678492  50.7241783   1.4340223
  80.4441223  69.8992081   2.9525893  80.7989731  69.1718521   2.4414468
  80.0245819  70.4651337   2.3045533  65.1453018  18.9899158  82.9418869
  66.0496445  18.7859612  83.1802216  65.1272049  19.9438477  82.8649597
  16.0972004  24.2154694  10.1271496  16.0986862  23.6840229   9.3310375
  16.9548283  24.0578537  10.5219431  20.2642765  31.5049591   9.8866673
  20.8833809  30.8543739   9.5554876  19.6150150  30.9936523  10.3696337
  14.8395958   4.2027197  33.7475090  14.5301514   4.9001179  33.1694832
  14.0585852   3.6814439  33.9333191  24.3692646  70.7675018  23.2071781
  23.7536564  70.4253235  22.5589714  25.0108833  71.2574463  22.6928749
  50.6476860   9.0511961  83.7359390  51.1087379   9.8121758  83.3829880
  51.0568199   8.8969784  84.5874405  35.2502480  37.7510910  74.7349777
  35.1050797  36.8052063  74.7563934  36.1849976  37.8540497  74.9135056
  65.5231934  71.2695618   0.5651532  66.3197250  71.7969971   0.6250528
  65.1208954  71.3441620   1.4304984  83.6793289  25.7364788  25.2558918
  83.8615494  26.6760139  25.2384453  83.2861786  25.5528717  24.4026928
  41.9204445  27.9360619  85.9424515  41.9992638  28.8618240  86.1726303
  41.3353119  27.9265652  85.1849823  40.9921227  12.5488243  36.1655884
  40.2948685  12.1762590  35.6259003  41.4695778  11.7888021  36.4982033
  83.2313614  21.0262051  20.7497711  82.9698181  21.8731308  20.3884583
  84.0893860  21.1878338  21.1420631  43.2541351  71.6521225  72.4611282
  44.0220032  71.1368332  72.2139664  42.5162315  71.0539017  72.3434143
  11.1514711  50.8412018  88.5425262  10.6434250  51.2120590  89.2640457
  11.8435154  50.3374825  88.9709854  82.1912689  33.6183014   1.2544072
  82.9101181  34.2267838   1.4253848  82.3731003  33.2722168   0.3806830
  45.3990860  65.3775177  30.7040501  44.4781761  65.4197617  30.9616737
  45.4401321  65.8645020  29.8810101  50.1884079  48.6966667  34.3159218
  49.2862549  48.4314232  34.4948006  50.6851997  47.8785515  34.3266830
  69.2751999  12.6954212  69.2204285  68.8468704  13.3304710  68.6464233
  70.1817703  12.6692276  68.9143677  62.2105446  33.7982521  32.8770523
  61.9860840  32.8698082  32.9390602  62.8386345  33.8451920  32.1562691
  51.0683784  50.3953743  41.5722351  51.2381363  49.8042679  42.3057251
  50.1579475  50.2234535  41.3318367  48.2264938  41.4898911  55.8221893
  47.6113014  42.1451607  56.1514168  48.5315170  41.0326462  56.6058464
  15.8287239   1.9768214  31.4251442  14.9534273   2.3636212  31.4033928
  15.7015276   1.1190729  31.8305092  34.2477722  57.6694679  53.7594109
  33.6837769  57.8913422  53.0185242  34.9273758  58.3435135  53.7533684
  61.3784370  12.6386671  88.4355774  61.7856789  13.1451225  87.7328033
  61.9939728  12.7041636  89.1656876  46.6446609  30.0155468  37.9680557
  46.7180634  30.8425350  38.4444313  47.1718025  29.3988914  38.4760857
  17.8290195   8.1870260  70.5140610  18.5711555   7.6161413  70.7129517
  18.1633987   9.0726604  70.6557465  82.9170914  30.3047810  37.8886337
  82.4568787  30.8930874  38.4872437  82.5076294  30.4607201  37.0376015
  30.1070137  40.7057076  16.1776142  30.6951847  41.1172981  16.8107662
  29.4708138  40.2326851  16.7140198  51.7599945  43.4534760  24.4712734
  51.5237389  42.5395889  24.3124428  51.1080017  43.7636719  25.0996952
  41.4455528  34.9893837   0.6908545  42.2451324  35.4321442   0.4064849
  40.8825188  34.9911919  -0.0832400  47.4049988  41.3857765  11.0721111
  46.4781227  41.1644630  11.1624060  47.4239807  42.0686302  10.4016027
  12.2968616  35.7891693  67.8806152  12.3132954  36.3021812  68.6885605
  12.2837572  34.8785591  68.1753235  11.3579712   1.3941195  30.9789162
  11.2930603   0.6891533  31.6231518  11.8128147   0.9981436  30.2355766
  78.4932632  14.3372335  30.6676311  79.0697556  15.0524864  30.3987522
  78.4843140  14.3833132  31.6236801  11.9720640  48.7503929  61.7600975
  11.2942066  49.4242516  61.8116035  11.5667038  48.0404663  61.2621841
  74.6406860  43.5190964  45.3043671  75.5040894  43.1199875  45.1971664
  74.3234482  43.1821823  46.1422691  49.5550346  35.8865852  46.9499168
  50.1577606  35.1919937  46.6844063  49.7681541  36.6214409  46.3747635
   4.4493170  34.8270798  48.7103271   4.1418629  35.0543518  47.8328018
   5.2368960  35.3571014  48.8329163  32.4015350  42.4782448  58.6188965
  32.5731735  41.5486603  58.4683952  33.2350159  42.9093513  58.4299812
  37.0591507  68.4852600   9.2421398  36.5832367  67.9788742   8.5838737
  37.1991081  67.8703690   9.9622469  83.6512680  13.9449692   6.2546334
  84.4400253  13.4139071   6.1447735  82.9306412  13.3170900   6.2027583
  84.8978653   5.1138878  68.3775330  84.6060181   5.8836818  68.8658676
  84.3186340   5.0794034  67.6162567  63.1729736  53.7395363  47.6010513
  62.9833565  52.8305092  47.3687859  64.1271744  53.7756996  47.6675797
  42.9478951  25.2717171   6.5128632  42.0430298  25.3518581   6.2111545
  43.4235725  24.9305782   5.7555070   3.3715775  54.8786964  37.6424904
   3.2291934  54.4190178  38.4699287   2.5797901  54.7058563  37.1331482
   0.5871166  59.2130623  14.4177332   0.2394672  58.4092636  14.0313683
   1.4324586  59.3397369  13.9869404  72.9048691  20.2412186  18.7322197
  72.6294785  20.7949142  19.4628448  72.2199936  19.5759487  18.6644535
  71.3004303   3.1934478  21.8635902  71.6736221   3.5377123  21.0521469
  70.4010315   2.9602127  21.6335335  79.6739960  39.2151108  60.8854713
  80.3472366  39.8931503  60.8285484  79.7391815  38.8875771  61.7825241
  22.4178638  17.8056412  11.8452759  22.5558224  18.7502441  11.7751064
  22.0310040  17.6838417  12.7123032  74.2608795  51.6426506  85.9115372
  73.3934784  51.4054070  85.5835724  74.2352448  52.5964127  85.9884415
  23.3874741   3.1940174  59.7987442  22.7868748   3.2744141  59.0577660
  22.8758812   2.7493079  60.4745674  25.9166298  48.9228668  13.5389929
  25.0320072  48.7265320  13.2305603  25.9774475  49.8773460  13.5002947
  78.0844193  16.0684872  87.5205765  78.5282440  16.2707291  88.3442001
  77.3597717  16.6925259  87.4794769   9.9890823   3.3125708  85.8985977
  10.2309036   4.2197833  86.0849304   9.8263626   3.2969470  84.9554596
  49.7443314  42.0506020  81.9424057  49.4916191  42.8555260  81.4902267
  50.7009621  42.0476494  81.9095230  55.5896339  19.3718681   9.0896778
  55.9767494  19.9845467   9.7149734  54.6472244  19.5260849   9.1553707
  24.2825603  43.8702011  76.3777313  25.0000629  44.3949738  76.7327423
  24.7016220  43.0639343  76.0767975  22.1646461  58.6989746  31.9861450
  21.7076969  58.0523834  32.5240555  21.5648384  59.4438438  31.9457779
  62.3670921  10.5349493  59.6094933  61.5997505  10.1564455  60.0386238
  62.5610962  11.3229065  60.1171532  35.2582436  60.4764214  48.4105988
  35.9464302  59.8268623  48.2667046  35.1046486  60.4573822  49.3552017
  64.1681824  61.1963615  57.4095421  64.5466843  60.6711731  56.7044563
  64.4891739  60.7861061  58.2125893  45.2547455  20.3256149  86.0270309
  44.7744484  21.1527309  86.0647507  45.7769356  20.3150826  86.8291779
   0.4529589  65.4194641  54.7889099  -0.3688322  65.8036118  55.0943909
   0.9383128  65.2236328  55.5903549  33.3809662   4.0550294  73.8651047
  32.7713737   4.2976751  74.5620651  33.3593216   3.0981874  73.8503571
  85.0009003  50.3906784  48.8540573  84.5789566  49.7098160  49.3781013
  84.3023682  50.7292519  48.2940178  63.1768303  49.4231567  23.2483978
  62.7551384  50.2422943  22.9887409  64.0779343  49.6722679  23.4537735
   4.5144882  41.0359993  87.9890594   4.9398723  41.5796700  87.3259583
   4.7025833  41.4773636  88.8173447  55.1457481  30.9075432  75.2192383
  55.1688232  30.0517082  74.7911682  55.9407043  31.3475018  74.9180603
  80.5621719  12.7588215  29.1242199  80.6129608  13.0028973  28.2000561
  79.7943115  13.2259579  29.4534664  15.9379740   1.8855373   6.3897185
  15.1663456   2.4509547   6.3561931  16.3558197   2.0997593   7.2238321
  17.4076462  43.7307510  71.3720627  18.2168484  43.2896080  71.6305542
  16.7208672  43.2768517  71.8604736  10.9082823  10.0170679  61.9599571
  10.6523085   9.4501743  62.6875153  10.3040152   9.7880526  61.2538071
  37.0631027  27.7183189  73.6809235  37.9563637  27.3807678  73.6147766
  36.9211578  28.1834488  72.8564606  76.2311401  17.2605972  83.2375183
  75.6219559  17.9984398  83.2108536  75.7239685  16.5449944  83.6208191
  41.4834900   2.8168099  61.8603134  41.6308136   2.8337097  62.8059578
  42.1367569   2.2016370  61.5270958  27.6846333  41.3851967   4.7972655
  26.9981518  41.8272781   5.2968035  27.3878880  41.4327202   3.8884664
  68.4610138  57.3443489  51.6109123  69.0783997  58.0322456  51.8596344
  68.8521729  56.9400139  50.8364830  64.7436447  28.6858120  41.7286873
  65.0313797  28.0111904  42.3437691  65.2307281  28.5012093  40.9256287
  68.2456131  45.4191780  55.9366455  69.0180588  45.5373650  55.3838387
  68.0348511  44.4887924  55.8579521  64.4549866  57.8727646  41.9702301
  64.6570892  57.4792633  41.1213837  64.6493149  57.1839828  42.6058807
  53.0743599   0.9439966  29.3291206  53.6391907   1.4705808  28.7635174
  52.2087364   1.0028480  28.9248104  34.7465096  47.5178452   9.9437628
  33.8261681  47.2888031   9.8143873  34.9775772  48.0285797   9.1678829
   3.7896774   6.1672492  75.2505569   4.2180839   6.0596509  76.0997467
   3.7651281   7.1141882  75.1129532  70.7765808  17.7776108  27.3485432
  70.8744125  17.6907845  28.2967625  71.2688751  17.0399170  26.9884224
  20.5601425  66.4069366  31.7517338  20.9394588  66.8738174  32.4962959
  21.0768242  66.6957550  30.9994984  55.2365227   4.2555838  59.1808586
  55.1699333   4.0215507  60.1066170  54.3663406   4.5831451  58.9534302
  71.1591187  61.7900963  81.3530350  71.2865906  62.2407761  80.5182495
  70.2108688  61.7914429  81.4836044  63.7369499   1.7024587  17.4992981
  64.3771820   2.4074426  17.5958786  64.2097549   0.9121330  17.7602005
   1.5764478  44.4564514  75.6398773   2.3907728  44.9039497  75.4099731
   1.4028797  44.7236938  76.5424728  62.7199669  54.0317574  39.1420174
  62.8424187  54.1745529  40.0805511  62.6157761  54.9107208  38.7776031
  27.1774120  27.2602119  83.2009201  27.7739105  27.5470200  83.8924103
  27.3540077  27.8536243  82.4709091  69.5035248  -0.1395845  76.8363571
  69.8301468   0.3089723  77.6163254  68.5548706  -0.0161554  76.8686981
  37.1021423  35.5931282  14.1445389  37.2457008  35.5521774  15.0900249
  37.9341850  35.9057159  13.7892637  71.5342712  54.6274910   1.3717611
  71.7195969  55.1477661   2.1535552  71.4891586  55.2686920   0.6624963
  60.9250259  64.7640152  63.8002586  61.3075905  63.9345131  63.5142365
  60.8036232  65.2629471  62.9924507  47.4969406  12.5765085  55.6870995
  46.6059494  12.8598442  55.8922501  47.5002899  12.4663496  54.7362633
   9.1195021  65.4470978  48.8341446   8.6191006  65.9113998  48.1631355
   9.6074715  66.1345062  49.2875595  22.1508541  60.4481239  55.4091835
  21.8133698  60.3628540  56.3008461  22.8960743  59.8482704  55.3767624
  65.4952087   6.6754971  27.1897945  65.8773956   7.4847488  26.8502674
  64.8211365   6.4426675  26.5513229  60.8369942  19.1679897  27.9909782
  59.8807831  19.1509857  28.0309677  61.0878677  18.2525463  27.8674469
  45.7384529  57.5339470  86.9285431  46.4196777  57.0508728  86.4607773
  45.7517662  57.1701126  87.8137970  47.5793037  49.8716850  17.1434231
  48.4731979  49.6418533  16.8897171  47.3491287  49.2310905  17.8163929
   2.2553728  39.7803955  55.2558632   1.6922524  39.1289749  54.8377953
   3.1433790  39.4467087  55.1280746  58.1148262  65.6085434  58.5771866
  59.0369186  65.3637695  58.4993362  57.6735764  65.0990982  57.8974800
  75.9048843  67.9051514  61.7200813  74.9824524  68.1071320  61.8767738
  75.9457245  66.9488754  61.7299957  38.4504738  60.7813034  27.9953499
  37.6255684  60.9917374  27.5577641  38.8859558  61.6266403  28.1048546
  83.6380844  31.6185417  50.6232376  82.7901459  31.4274502  51.0241356
  83.9313583  30.7781734  50.2710953  50.8855324  37.0513878  60.2074242
  51.1009789  37.7202454  59.5574684  50.1837387  36.5414925  59.8027992
   0.6631439  52.5488892  30.6428127   0.3133738  53.3642044  31.0021935
   1.4275630  52.8197517  30.1343575   4.1921630  21.3030376  82.6110382
   4.1834064  21.9411964  83.3244171   3.3141906  21.3541470  82.2331696
  65.5908203  25.9861050  77.5337296  65.4972763  26.6693840  76.8699417
  65.6220245  26.4614220  78.3639908  80.6339035  17.5475044  75.2691498
  81.0495758  17.0847816  74.5415955  81.3010330  17.5632515  75.9553986
  62.5217438  46.9476891  24.2408772  62.7941589  47.6708794  23.6760559
  63.0369606  47.0604744  25.0396671  68.1490860  71.4236603   1.9161150
  68.8518295  70.9895325   2.3997734  67.9085541  72.1715851   2.4629126
  64.3513184   8.2496805  50.4200821  64.5016403   8.0099220  51.3344955
  63.8713531   7.5070424  50.0535469  52.6142578   9.6124344   9.4354839
  52.7794647  10.5420742   9.2782955  52.0058250   9.5988703  10.1743050
  48.1737823  55.3054771  40.4325676  48.5318298  54.6188126  39.8699608
  47.5142593  54.8598442  40.9642372  77.3209152  57.5592766  58.6507874
  76.4090271  57.7455482  58.8743706  77.7706680  57.5172691  59.4947014
  28.4071865   7.0586681  27.0920029  27.4972172   6.9760518  26.8067627
  28.6351089   7.9693089  26.9048767  83.1219177   3.6325285   3.5441620
  83.2275848   3.6457562   4.4954200  83.8794861   3.1416287   3.2258284
  26.5587673  53.7244377  67.5672531  26.6565475  53.6012344  66.6230621
  27.3012028  54.2754517  67.8150482  47.7963219  54.9756660  58.6559753
  47.8029900  55.0554886  57.7021332  47.7441330  55.8778687  58.9714661
   2.8885713  21.6380043   6.6988406   3.5716574  22.1423817   7.1406884
   3.3507793  21.1617241   6.0090933  63.3746605  10.0980797  34.6002617
  63.4005051   9.1523199  34.7455330  62.4435806  10.3012857  34.5106659
  79.1847153   9.2448263  52.5047913  80.1104736   9.0025101  52.5267525
  79.1807022  10.1895800  52.6585960  86.0128403  33.6413994  26.3599720
  85.9479065  33.7459259  27.3092289  85.9987030  32.6943321  26.2217751
  39.7333069  22.8296165   2.6480701  39.0969505  22.1293163   2.7925045
  40.5846100  22.3968906   2.7133782  38.9783859  61.8722038  34.6792793
  39.2350235  62.6867905  35.1115036  39.4936104  61.8563957  33.8727303
  28.7454262  69.8230515  84.3767090  27.9123096  69.4060822  84.1569595
  28.6464577  70.7274323  84.0791702  52.8792839  55.3582535  43.6273880
  52.8845825  55.2369080  42.6779251  52.3032112  56.1093407  43.7696457
  74.7351913  32.1264687  38.2558632  75.0126877  32.5464821  39.0699959
  74.7645721  31.1891689  38.4477997  71.6306839   8.2271528  22.5875397
  71.6579971   7.2742543  22.6739769  71.2976303   8.5346718  23.4305935
  65.5502014  31.0714245  38.5386353  66.5048828  31.0808582  38.4698944
  65.3319550  30.1566982  38.7171669  46.1918373   2.9002440  19.2087021
  46.7592468   2.1302648  19.1711330  46.3144264   3.3296409  18.3620491
  55.9349480  33.7998238  45.6217003  55.9482956  34.1441917  44.7286911
  55.0145340  33.5942039  45.7853813  50.9247742  20.7103271  60.8517761
  50.4855652  19.9147549  61.1524315  51.7629204  20.4046917  60.5048904
  24.0438728  20.0145359   6.6472249  23.5372105  19.9998550   5.8352451
  23.4013519  19.8353539   7.3337331   8.5397434  53.7533379  46.2412872
   7.9019113  53.3616943  46.8379593   9.2641830  54.0206604  46.8069344
  38.9557495  38.8484192  82.2835236  38.0184784  39.0166626  82.3807373
  39.1962585  38.3679123  83.0756760  80.5261154  28.6585274   9.0283308
  79.7941513  29.0941944   9.4649725  80.5122299  27.7650585   9.3714828
  27.4231815   4.7759128  21.7273560  26.9360580   4.1639962  22.2791729
  27.9196453   5.3125515  22.3452339  68.8788300  55.6548691  86.9111938
  68.9209518  54.7258606  86.6844788  69.6288071  56.0451775  86.4623947
  76.4831772  25.4916935  36.2172890  76.3220062  26.3723736  35.8786774
  77.1362839  25.1223660  35.6229172  57.5550232  38.8766060  56.2720528
  57.0543251  38.9823723  57.0809708  57.6492500  37.9294548  56.1707993
  49.1468239  67.6581573  82.0920639  49.3174706  67.1390076  81.3061905
  49.9938889  68.0462646  82.3113403  24.6360149  48.2670975  80.3277817
  23.7756615  48.6823540  80.2678909  25.2574177  48.9901390  80.2423477
  85.5801773  33.0057220  52.3920135  85.2883453  32.9883270  51.4805527
  84.9180145  33.5272903  52.8456001  79.4353333   2.9815464  80.4179535
  78.6287308   3.1217341  79.9219971  80.0670395   2.6766424  79.7666397
  54.4206085  29.8063374  29.1364346  55.3149605  30.1383572  29.0581493
  54.4084854  29.0198650  28.5909576  18.7418861  68.5832443  16.8903999
  19.6281643  68.8355560  17.1493950  18.2242565  68.6713104  17.6907349
  59.8030701  67.8310089  12.8486223  60.4028435  67.9104843  12.1068754
  59.0389214  68.3488235  12.5952988  75.8263016  30.2273636  25.6644230
  75.2746048  30.7938156  25.1249866  76.1174393  29.5378990  25.0676746
  28.2098827  47.7622604  12.1059341  28.8645267  47.8316002  12.8008194
  27.4135933  48.1297112  12.4895163  62.6175156  62.6631737  16.4349384
  63.3799171  62.9468613  15.9304628  62.8714905  61.8136253  16.7954865
   0.6674777   9.4805355  80.0170441   0.3434766   9.2337217  80.8832703
   0.2494598  10.3223639  79.8358917  34.2801018  51.8914108  83.8991165
  33.5601807  52.4687996  84.1532135  33.9236412  51.0081406  83.9939804
  51.7313156  20.7318039  72.0403748  51.3851318  20.3675213  72.8550415
  52.4661331  20.1609192  71.8159409  50.0822296  36.1430054  88.7265625
  50.9464874  35.8466568  89.0120010  50.1532440  37.0971718  88.6989975
  44.9724770  22.9392281  77.5216904  44.9649658  22.0337639  77.8320312
  45.8966103  23.1884174  77.5323639  80.8399963  67.3443222  64.1280594
  81.1196365  66.9128113  64.9354248  79.9115295  67.1255112  64.0487366
  46.3341179  67.7401581  80.7736206  46.0938110  67.8331070  79.8517532
  46.2879410  68.6297150  81.1240387  29.6054268  11.8455629   5.8576488
  30.5464344  11.9743013   5.9766483  29.2652111  12.7212238   5.6740603
  40.1569633  43.0962334  64.2719040  39.9203987  43.0683861  65.1989899
  39.3237343  43.0069542  63.8093147  52.5717430  53.7152252  36.0171356
  52.3672371  54.4078865  35.3889389  52.7629128  54.1796875  36.8319740
  71.8363266  66.7120895  63.0833359  72.5156784  67.3615417  62.9018860
  72.2355957  66.1193237  63.7200813  22.3149834  54.6811066  86.8711853
  22.8421059  54.0404205  87.3485718  21.6622391  54.1564713  86.4076004
  38.5560112  60.5783653  73.0993805  38.0710030  61.2120972  72.5708084
  38.3406830  59.7295151  72.7129669  65.6046600  37.2974815  14.6139631
  65.3016663  36.5877647  14.0476322  66.0549088  37.9003830  14.0223446
  45.6576920  61.5228844  26.4569664  45.3728485  61.7418022  27.3441925
  46.2481499  60.7783089  26.5718517  77.2851028  52.5616226  56.0138779
  77.2584763  51.6048050  56.0089417  78.1355591  52.7755852  56.3975105
  69.5571976  66.1634521  65.0266876  68.6269608  66.2138062  64.8068008
  69.7806168  67.0447845  65.3259506   7.9002690  58.4021149  40.6112518
   7.8452120  59.1743202  40.0483170   7.0994649  57.9120941  40.4246483
  51.4988670  30.0327168  78.5004501  52.3668327  29.6553192  78.3574829
  51.5912666  30.5494843  79.3008575  55.6629982  63.2250023  18.0550327
  56.3761444  63.3141479  18.6872578  55.8476562  62.4033928  17.5999584
  66.3583908  45.6290398  62.2770081  65.7872543  44.9035721  62.0245476
  66.2581100  45.6934967  63.2267570  73.7794724  25.9565353  74.1177444
  72.9947586  25.8089561  74.6456375  73.5290451  26.6473541  73.5043182
  21.9198456  51.8804741  62.1307755  21.4418221  51.0513229  62.1154518
  22.1831913  52.0219574  61.2214546  11.6570625  30.1878624  73.1224823
  12.2120571  30.3729229  73.8800888  10.9146824  30.7845078  73.2179718
  51.1844902  47.1412163  77.8016052  51.6515007  47.7286186  78.3958206
  51.6955757  46.3319740  77.8140793  84.9312515  42.8200912  32.0179214
  85.4223251  42.8028793  32.8393745  84.3557358  42.0567932  32.0668869
  26.5155392   7.8166327  16.9117832  27.2248154   7.2041144  16.7168941
  25.8647594   7.2897658  17.3756027  62.9423637  16.3702164   9.0596046
  62.6406631  17.1047707   9.5940542  62.5136719  16.4977703   8.2133274
  13.7845631  26.4674168   6.3799272  14.2786474  25.6573219   6.2539845
  14.4520626  27.1527977   6.4104023  44.7904129  40.9575691  59.3284035
  44.0217934  41.2074699  59.8412437  44.5244293  41.0895195  58.4184189
  77.7409515   4.6015205  33.2956810  77.7528229   3.6599219  33.1239738
  77.4386139   4.9908152  32.4751434  50.9060898  51.8436089  10.0044355
  51.0030365  52.7185364  10.3803873  50.3029480  51.3940659  10.5963478
  42.6713943  27.8612461  68.0375366  42.2270584  27.0363483  67.8417358
  42.1355667  28.2658710  68.7197342  39.8950653  43.1010094  66.8976822
  39.8797150  43.1788483  67.8515854  39.1941032  42.4809532  66.6966553
  46.8661499  56.3603134  52.7233467  46.1611938  56.2388649  53.3593636
  46.8940659  55.5366173  52.2365417  69.7277298  56.6270599  21.2547379
  68.7806168  56.6517830  21.3911037  69.8717422  57.1650391  20.4762325
  33.2108002  37.7256088  60.1850624  32.4860420  37.1931458  59.8572807
  33.9483948  37.1180649  60.2405205  55.3796005  14.7287474  12.5022030
  56.1557350  14.3172855  12.8823957  55.3556976  15.6021242  12.8931942
  50.7241859   0.6301988  28.5547466  50.4198303   0.1530081  27.7828083
  50.4356117   1.5310881  28.4086132  42.1690788  65.4206696   5.1831779
  42.2948227  66.0265656   5.9134579  41.4571381  65.8058319   4.6722693
  13.4626961  67.1206207  85.5562973  13.9221601  66.3642273  85.9209824
  13.1039591  67.5737076  86.3193512  22.5975895  34.9725990  88.7154083
  23.2136745  35.6986885  88.6180954  22.6998520  34.4624100  87.9119873
  46.2364120  12.1106148  72.7118073  45.5426292  11.9015026  72.0863724
  46.0556030  13.0122585  72.9774780  45.0486641  20.5781059  78.7230682
  44.7143288  19.7084522  78.5036316  45.7455559  20.4135323  79.3582764
  62.6306190  45.9407654  71.2378235  62.2565689  45.8110008  72.1093063
  63.4913635  45.5243721  71.2821960  85.8070602   5.9423766  33.8294754
  86.5147476   6.5529137  34.0360222  85.4006119   6.3043718  33.0420837
   1.2495884  63.0873337  74.9545822   1.8500915  62.4259758  74.6107330
   1.7988995  63.8578911  75.0985565  30.5751305  40.5553169  67.6112595
  29.9808807  41.3001442  67.7025375  31.1148872  40.7713432  66.8508453
  17.1999073  58.1581917  49.3649673  16.4721928  58.5179062  49.8721848
  17.9328423  58.7461586  49.5475426  72.9565735  32.5965881  27.6175709
  73.9032059  32.7364197  27.5937767  72.7367935  32.6033974  28.5491734
  67.0702057  48.9464798   1.3970544  67.0316467  49.5750847   2.1178885
  66.1845093  48.9436836   1.0340637  11.8921356  37.9721756  64.9526825
  11.1495438  37.4207458  65.1990814  12.6598883  37.4940186  65.2659760
  49.2758522  24.7468109  81.4406128  49.2368889  25.6326942  81.8010559
  49.9473991  24.3058243  81.9609833  16.2933235  11.7956305  86.3319702
  15.9848967  12.0606012  87.1985092  17.1769085  11.4605370  86.4843597
  35.5120010   9.6559410   3.2689483  34.5582466   9.6203051   3.1960540
  35.7108765  10.5881758   3.3562276  57.1224518  67.8533630  79.7370529
  56.8886986  68.0951767  78.8408890  56.3372803  67.4292297  80.0832367
  12.5563984  59.3178406   0.6096885  13.2495699  58.7175827   0.8843412
  12.9537554  59.8396378  -0.0874964  68.6875916  20.1752033  54.3664398
  68.6933365  20.1851177  53.4093056  69.3373260  19.5133095  54.6030121
  20.0771446  53.2987900  70.9421844  19.2521553  53.2234497  70.4626541
  19.9574566  52.7444382  71.7132874  76.3647385  39.0697937  77.8349915
  75.7453690  39.7871132  77.7005768  77.1078796  39.4755173  78.2815018
  33.8028908  54.0982895  17.0058689  34.3106194  53.3612633  16.6664047
  33.2154045  53.7068901  17.6523190  74.4694748  54.4073906  24.5613537
  74.4178619  53.5190315  24.2086773  74.9968185  54.3196106  25.3553543
  53.1930771   1.5475968  37.6196556  53.7442017   0.7664490  37.5716782
  52.6620064   1.4181403  38.4054260  67.9889145  52.4185486  37.1068153
  67.6839371  53.2039833  36.6525993  67.2132797  51.8610077  37.1682358
  54.8155632  45.4507408  76.7500534  55.3922882  44.7670097  76.4092712
  54.1483574  45.5609055  76.0726089  16.4690590  45.6529732   1.6493330
  17.2275906  46.1523361   1.9518220  15.9194307  46.2981873   1.2045397
   1.0684240  56.5662956  50.3666000   0.5691896  55.7630615  50.2189064
   0.5218821  57.2594757  49.9964294  73.3363419  54.8502960   7.4105077
  72.9932709  54.3923798   6.6431484  74.2123642  54.4853096   7.5354195
  24.3664398  38.5680351  18.4048748  24.6022472  39.0010719  17.5844460
  23.7468529  39.1665573  18.8221436  68.2525330  53.6006432  44.0621719
  69.0003433  54.1889992  44.1663551  68.0317154  53.3336411  44.9544601
  53.7219162  18.3564987  72.3411713  53.4758492  17.4368725  72.2413254
  54.4870567  18.4624424  71.7758713  75.9778519  49.3278961  12.3879852
  75.9456482  49.4375534  13.3383379  75.3357849  48.6422081  12.2041092
   5.7498879  52.5334549  62.3231087   5.2659750  52.3278351  61.5232468
   5.0762172  52.6022224  62.9996223   2.1129487  15.2230129  26.0664978
   1.8716093  15.4365139  26.9678326   2.9968007  14.8618565  26.1343479
  39.5530167  60.5832748  58.3059654  39.3337135  59.6786690  58.0827599
  38.8095322  60.8887024  58.8257523  69.5286102  18.9922104   7.7706790
  69.0664902  18.1657028   7.6308155  69.0630112  19.6228733   7.2213907
  58.9380150  42.2910156  29.1098957  58.1723366  42.7068825  29.5061569
  58.6494522  41.4010048  28.9077988   7.5788960  66.8657990  75.3387756
   7.7795329  65.9839478  75.6523132   7.8078423  67.4382095  76.0710068
  60.4825668   4.1119518  39.9391441  60.1981544   3.4065909  40.5203552
  59.7766762   4.1931210  39.2977715  14.8925810  58.7481766  38.0094757
  14.8071051  57.7952995  37.9786377  15.2621775  58.9276428  38.8740120
  74.4381638  16.0035934   8.5830307  73.5305099  15.7010422   8.5537472
  74.3827133  16.8941822   8.9294548  46.8653336  68.0189438  33.7592201
  46.9519577  67.6929169  34.6550064  47.3478241  67.3867416  33.2265396
  47.3755760   3.5427532  59.0678787  47.4411736   2.6694343  59.4541969
  46.5775795   3.5118916  58.5401649  73.2936172   3.9623172  84.2166061
  74.0338440   4.1533027  84.7926407  72.7344055   4.7365451  84.2805176
  46.1835823  14.4539127  74.4558945  46.6515274  13.6322870  74.6048660
  46.2432556  14.9183044  75.2907639  13.0578661   1.5900090  47.0125999
  12.6710014   2.1634841  46.3510170  12.4390793   0.8640030  47.0916557
   6.8890786  33.9165802  40.2227440   6.7430868  32.9896164  40.0339088
   6.4302001  34.0678482  41.0490494  43.2287445  31.4648228  57.7186012
  42.4432259  30.9180565  57.7030449  43.1274223  32.0074425  58.5006065
   6.7264991  59.2977409  57.8286552   6.8091307  59.2569389  56.8759003
   7.2023072  60.0904312  58.0766029  85.3875351  37.6543617  13.2193594
  85.6613235  37.3172798  14.0723810  85.1296310  38.5599976  13.3912477
   4.9249592  33.2820816  34.0027084   5.6962094  33.5595207  33.5083084
   4.6178994  32.4980583  33.5474548  74.8799438  22.0957451  42.1820908
  74.3929749  22.7336750  41.6604195  75.4860992  22.6238899  42.7015762
  62.5238686  27.4274731  86.0435028  62.5779152  28.0333061  86.7826080
  63.1024704  26.7038975  86.2841110  86.4959869  58.2634430  26.8742714
  86.1470871  57.6957321  27.5614414  85.7433853  58.4507294  26.3132458
  26.7029495  51.6615067  30.4042740  27.1018848  52.3008766  29.8141155
  26.6415100  50.8606644  29.8835907  62.7842445  36.1157379  86.9089890
  62.3567047  35.6156807  87.6042480  62.6861000  37.0296326  87.1762009
  46.7339478  37.6750870  63.5079002  46.7901611  37.9597321  62.5957336
  47.0481682  36.7710037  63.4964752   7.3367820  55.3596573  35.4403839
   7.1093287  54.5851746  34.9259224   7.7237029  55.0091209  36.2426605
  78.7876129   2.9798346  25.1753559  77.8341217   3.0118217  25.2532578
  79.0205841   2.0924239  25.4482307  64.9513779  49.4362297  32.3130188
  65.2489700  49.6171150  31.4214191  65.6256943  49.8205910  32.8731995
  52.9045181   4.8344884  29.5801926  52.8560905   4.3817887  28.7382011
  53.0913048   5.7451591  29.3521080  69.1622467  32.8543892   5.0187397
  68.4054031  33.1884613   5.5002060  69.6365204  33.6390152   4.7436738
  58.7637596  44.6440811  13.7868443  58.5356636  45.3276291  14.4168959
  58.6151543  43.8244514  14.2583923  42.3562889  67.7140884  37.3877869
  42.3800926  68.6706848  37.4120865  41.8305702  67.4681778  38.1489563
  30.4734344  62.6137085  10.1855726  30.2458248  62.9368095   9.3137751
  29.9653091  63.1612244  10.7841263  60.2161903  65.2264175  30.5454044
  59.4730949  65.6771164  30.9465370  60.9632645  65.8011780  30.7120380
  26.2790546  42.4025116  54.8489571  25.5482140  42.1568375  54.2817307
  26.4797421  43.3056488  54.6033936   8.1666670  20.5726986  74.1265945
   7.2212029  20.5641022  74.2757797   8.4524145  19.6868134  74.3497314
  47.7141304  64.5598907  56.0480042  48.3718834  65.2183456  55.8243332
  47.1196518  65.0095444  56.6485329  83.5776672  62.0065880  48.8917732
  84.2896652  62.5523262  49.2256355  83.6473083  62.0780296  47.9397888
   5.8676276   4.9926500   4.6308293   6.5412240   5.5787354   4.9757991
   5.5925069   5.4008675   3.8099155  52.4141121  65.6223221  82.1763229
  52.4127693  65.8837967  83.0971146  53.2371368  65.1467667  82.0635834
  80.7237625  53.9867058  82.1453323  81.3203888  54.7285500  82.0456696
  80.0534363  54.2984581  82.7533722  79.1746140  40.3237762  30.7133770
  78.5545502  40.7357254  30.1116734  78.6346817  40.0208092  31.4433861
   7.9413309  66.4416733  46.6998749   8.3846722  66.9285049  46.0051308
   7.0175643  66.4545898  46.4494362  32.8055725  33.6337471  87.8526840
  32.3080826  32.9448547  87.4120407  32.1890640  34.3617935  87.9307938
  52.0039673   1.7391181  20.8379745  52.8311920   1.2803247  20.9843998
  51.4762001   1.1245137  20.3281155  36.8823318  67.4875183  51.3593864
  36.1677322  66.9003754  51.1127243  36.4446449  68.2784348  51.6742020
   9.2135410  43.2912560  82.3561478   9.7735691  43.6277351  81.6565933
   8.5771494  42.7350311  81.9068756  79.2823944  39.3508034  57.9818535
  78.9434662  38.4778404  57.7836227  79.5654984  39.2962456  58.8945999
  18.1933823  34.1730080   9.9960604  17.6709061  34.1111984   9.1964169
  18.7560253  33.3989143   9.9749775  43.7092133  57.5797310  37.8823471
  44.2285995  57.4077263  38.6677666  44.3317566  57.9585876  37.2617455
  43.2187042  57.7955856  63.6683846  43.5937309  57.7040710  62.7924767
  43.9689369  57.7253571  64.2586823  37.7471733  64.8863068   5.4950519
  37.5335426  64.3319702   6.2455883  37.8702278  64.2722931   4.7711172
  56.6228523  26.3830853  37.0152435  55.7260056  26.2903328  37.3366318
  57.1587677  26.4183674  37.8075714  36.3864288  -0.1555628  49.3976555
  36.2283630  -0.2475985  50.3372192  36.0557861   0.7168114  49.1834793
  39.4985580  53.3683090   8.2324209  39.5176430  53.2250252   7.2861981
  38.5940857  53.6205406   8.4182749  68.0405655  10.3675346  12.3686180
  67.7696228   9.4515991  12.3063192  68.7000122  10.3755760  13.0623779
  56.1342392  22.0943222  20.6878929  55.7812996  22.9060326  21.0523014
  56.0618324  22.2059498  19.7399864  35.6927567  26.1281605  67.4401321
  36.0161705  25.8395195  66.5867157  35.4180412  25.3221416  67.8772736
  13.2726679  67.2332840  66.8348312  12.8897905  66.9846191  65.9935226
  14.2037792  67.0310593  66.7433624  45.0883293  38.8068657  23.9020290
  44.4395561  38.1033783  23.8813534  45.6233559  38.6622772  23.1215992
  32.7058067  47.8699913  43.4148865  33.6183243  48.1452522  43.3267326
  32.2094536  48.6882553  43.4326286  76.6041641  30.4397278  80.9052200
  75.7480011  30.4837265  80.4794540  77.2309647  30.4265003  80.1819077
  13.5398092  49.5981827  89.0080032  13.9635181  50.4272499  89.2301559
  13.8262186  49.4150467  88.1132050  50.8959656  33.8244896  15.1537094
  50.9117584  32.8917732  15.3682241  51.3074875  34.2502251  15.9057951
  13.7972383  58.0557137  26.0578175  13.0430040  58.4954147  25.6653557
  13.4925556  57.1646309  26.2291813  44.9455833  48.5467377  87.8283463
  44.6156120  48.8347054  86.9772110  45.8609085  48.3187790  87.6657181
  15.9117575  39.4471550  71.4041519  16.0233345  38.5309525  71.1504745
  16.4665852  39.9337425  70.7945328  39.3136139  58.0524940  56.8457909
  40.2319527  58.0229836  57.1141510  39.3289528  57.8311539  55.9146614
  61.0586319  22.3341942   5.5700312  60.8113594  21.5957222   5.0134802
  60.9385948  22.0116768   6.4632311  13.7546616  18.7333488  84.1322479
  13.5065212  19.4001789  83.4919434  13.2658796  17.9539261  83.8680115
  62.9787140  15.8153620  19.7747383  63.3408852  16.6566429  20.0527821
  62.2556000  16.0467968  19.1918373  15.3140430  51.6520615  52.2226601
  15.6960812  52.1379318  52.9535522  14.7702618  52.2941856  51.7663612
  65.7281189  48.3477478  61.0434914  65.6371078  49.2710457  61.2790031
  65.8901749  47.9031754  61.8755493   8.9231606  56.2808113   2.7775347
   8.0402384  56.2672806   3.1469913   8.9502420  57.0797081   2.2509766
  51.7504272  42.9553108  46.3556252  51.0483818  42.4374008  45.9617615
  52.3912086  42.3070869  46.6479187  63.6719437   2.1216471  11.2941980
  63.8698769   1.2920399  11.7287159  64.0288544   2.7896984  11.8794775
  58.1170578  48.5831947  46.4462929  57.5781517  48.0118637  45.8991241
  57.9412537  48.2930756  47.3413658  71.3049927  24.5106583  77.8465195
  71.2212677  23.6951122  78.3405914  71.6918793  25.1281033  78.4672546
   5.9006300   0.2318033  64.6540680   6.1148281   0.9001474  65.3049622
   6.1470175   0.6251141  63.8169060  50.1796150  39.3892860  87.9586487
  49.6839752  39.8243103  88.6524200  50.0643768  39.9520569  87.1929855
  57.3302155  37.1924896  32.7509499  56.9780655  36.5665474  32.1181641
  57.8316269  37.8122635  32.2211418   3.6531668  60.7554703  79.7942352
   3.1485813  61.5550957  79.6451492   3.0130484  60.0489273  79.7089462
  42.9725494  44.8292198  86.7327957  43.5110016  44.2885361  87.3106918
  43.1906357  45.7292404  86.9749527  59.8949318  21.9700222  30.4219303
  59.0896721  21.5153236  30.1748810  59.6008072  22.8262348  30.7327671
   3.4272609  45.3983269  62.2682419   2.6868358  45.4128227  62.8746986
   3.9916508  46.1133766  62.5621796  49.3882217  37.7509079  76.9321976
  49.3354454  37.2295227  76.1311951  50.2504349  38.1647072  76.8922577
  62.1281433  58.6175117  15.0879135  61.7488556  59.2924500  14.5250349
  61.4794579  58.4907112  15.7802734  52.1324005  51.2612762  44.8063354
  51.7185173  50.7263489  45.4836731  51.4657784  51.9061966  44.5698509
  52.5598679   1.2815738   0.1643585  53.0600166   1.2247204   0.9785150
  52.6418190   2.1968226  -0.1036633   3.2536335  29.2947102  14.7510443
   2.3749118  29.0085602  15.0004377   3.7513168  29.2800961  15.5685587
  75.7614059  19.1916771  78.7576065  75.0829773  19.2259083  79.4319916
  76.2949219  18.4325790  78.9929047   6.8692012  61.1980782  29.5828800
   5.9209743  61.1653671  29.7094803   7.2322202  60.8744698  30.4073334
  86.7365875  23.5303040  11.3410273  86.2446060  24.0532646  11.9740334
  86.7874680  24.0833969  10.5614557  48.6322021  56.1503639  88.5790176
  49.2256279  55.5755043  89.0623474  48.7966347  55.9450989  87.6586609
  63.0200768  32.4171753  38.8201752  63.8094749  31.9560738  38.5365067
  63.3112602  33.3150368  38.9792137  65.1114960   1.2474599  62.1005363
  64.9588852   2.1088486  62.4890594  65.8907318   1.3644788  61.5570984
  27.3398132  55.8140221  47.2210579  27.3466396  56.4911575  47.8975754
  28.1973515  55.8856277  46.8018532  12.6571083   3.1833818  43.0902405
  13.5631666   2.9427137  42.8969345  12.1329012   2.6184905  42.5224953
  75.1787262  38.8836021  27.8356056  74.8115234  39.0255966  26.9631195
  74.8025818  39.5826683  28.3704491  24.9602432  58.4305611  79.6526184
  25.3170929  58.0032539  78.8739700  25.7215614  58.8212547  80.0815582
  67.9525681   7.4937415  47.9147377  68.7685471   6.9949346  47.8747063
  68.2040787   8.3340273  48.2980080  15.3998528  40.5429878  85.1859131
  15.2984076  40.3747025  84.2490997  14.5631933  40.9237556  85.4528427
  20.6507473  49.2378197   0.2052865  19.9788761  49.3703194   0.8740636
  20.1956596  48.7856789  -0.5051347  35.5920639  55.6261406  34.3543892
  36.3640862  55.0602913  34.3490448  35.0379333  55.2818832  33.6539192
  51.1446114  63.0869102  85.8600006  50.3579826  63.5610809  86.1294632
  51.8172150  63.7634964  85.7821045   4.6140165  10.4657688  21.2551689
   4.3681064  11.3906822  21.2379665   3.7836916   9.9988794  21.3490124
  73.3521652  48.7679710  30.1980457  73.2000504  49.2515907  31.0099602
  72.8494339  47.9601669  30.3026562   4.0511842  46.4590874  71.1704407
   3.4058654  47.1240082  70.9302826   4.1085086  46.5144463  72.1243134
  81.7633896  46.3790817  77.2657318  81.7560806  46.8091812  78.1208344
  80.9563446  46.6727180  76.8430328  84.9052124  43.5540237  51.3106422
  84.9227448  43.3744392  52.2506790  84.1659088  43.0420265  50.9827347
  28.4672203  31.2733250  82.0438004  27.8560600  31.5153866  82.7395935
  28.8968754  30.4814606  82.3671875  74.7694778  66.9722290  76.6350784
  74.4713211  67.8069229  76.2736664  74.2130051  66.8303757  77.4008789
  10.6229353   3.1369262  17.4918270  11.0910254   2.6506486  16.8131104
  10.3439112   2.4676540  18.1166897  61.9197922  44.1067619  75.2793427
  62.0811272  44.9019012  75.7872391  62.7070236  43.5773506  75.4067078
  17.0334034  43.0442657  75.1372223  17.9300594  42.8157578  75.3822174
  16.9291039  42.6910439  74.2537155  31.1941738  69.2734375  81.3142014
  30.7491627  69.9360886  81.8424988  32.1051064  69.5655670  81.2811432
  47.3756561  31.9475689  39.6094055  48.0956383  32.4690285  39.9642830
  46.8910370  31.6524124  40.3802872  69.1990051  25.9143829  85.1207504
  69.7261276  25.1431923  85.3296509  68.9572830  26.2772713  85.9728699
  84.6518936  37.6648102  25.5629158  83.7735138  37.9851913  25.7679214
  84.7350616  37.7827301  24.6166534  41.6023178   5.7015982  69.1793060
  41.6280746   6.3496366  68.4753113  42.3891792   5.1728425  69.0470276
  44.9830132   3.1316736  61.8257637  45.0412941   3.8656211  61.2140808
  44.5199890   2.4500957  61.3386383  27.3764534  36.1439743  82.3323746
  26.8939266  36.9704323  82.3513870  28.1316757  36.2944298  82.9009094
  74.5856781  70.1268768  78.0639954  73.7958221  69.7353973  77.6910248
  74.2754593  70.9171066  78.5061798  23.5390339  34.1731148  12.8593073
  23.1497154  33.4465790  12.3726768  23.6788006  33.8241539  13.7396040
  74.2394638  26.6239834  51.5824738  75.0500259  26.8840179  51.1447372
  73.9665451  27.4045830  52.0645638  32.7483673   0.4775949  18.9517307
  32.3910675   1.2119454  18.4524345  32.0254288   0.1942177  19.5114536
  68.7653885  64.8011322   3.3463953  68.2703247  65.6180191   3.4082832
  69.6619110  65.0781326   3.1573391  48.6824532  68.9310379  12.1647091
  47.7775040  68.7303772  11.9258909  49.1695404  68.1364212  11.9466152
  86.4796906  64.1687241  72.5916748  86.9085846  63.8957253  73.4026947
  86.6186142  63.4377708  71.9894791  21.2463665  33.1480904   1.6365925
  21.6161461  33.4361115   0.8020028  20.4731693  33.6989594   1.7588191
  62.6625595  52.3621330  50.2926903  62.9036217  52.9655762  50.9955254
  61.7310715  52.1916618  50.4323502  46.1288261  65.2398148  74.5789948
  45.5103683  65.8242188  75.0174179  46.4611320  65.7521667  73.8419037
  43.1145515  53.9368668  28.4532642  43.5265923  54.7550392  28.1756897
  43.6751900  53.2511749  28.0903034   0.7439319  66.4015121  76.0952225
   1.4839013  66.4935150  75.4950485   0.1438613  65.8061600  75.6461105
  10.3074923  67.8118286  15.2931318  11.0811672  67.3546295  15.6227188
  10.2680969  68.6177826  15.8080244  45.7466011  70.8080444  87.9710770
  44.8411026  70.9007645  88.2672272  45.8695679  71.5246887  87.3485489
  47.1581955  33.9628372  74.1574554  47.7467232  34.0693398  74.9048004
  46.3430748  34.3823547  74.4328003  83.2222366  38.3760872   0.1034763
  83.5397491  39.2571564  -0.0943602  82.4414749  38.5174675   0.6388739
  74.2299423   0.5451496  37.7854309  75.0673676   0.8464845  38.1377754
  74.3454437   0.5739083  36.8356590  10.6937056  23.2770023  88.1192093
  10.9066410  22.4288883  88.5085678  11.2305021  23.9043884  88.6034317
  26.0672359  63.0343132  48.0219955  26.9528809  63.3176003  47.7948112
  25.5706272  63.1254158  47.2087860  34.2679482  25.4406548  15.0977602
  35.2055511  25.5991859  14.9882097  33.8491936  26.2227249  14.7382536
  74.6740341  13.3963861  66.5682678  74.7136688  13.0957060  67.4761505
  75.3247910  14.0966263  66.5192413  85.7461243  53.3125916  48.6004982
  85.9842453  52.3937607  48.7241173  84.7994919  53.3356094  48.7404327
  60.4924469  13.7218208  83.2200470  60.8187523  14.5873814  83.4661407
  59.5946999  13.8786211  82.9273148  86.4082718  28.5801086   0.1151640
  85.6790848  27.9626503   0.0579831  86.4416809  28.8263512   1.0395448
   4.3841524  36.9251518  11.5458565   5.0501275  36.7481689  10.8814878
   4.5497799  36.2763023  12.2298126  55.3896027  55.6541214  36.7195396
  54.6761894  55.7636108  37.3482552  55.8625298  54.8804932  37.0262527
  51.7694931   7.9683042  26.3540592  51.1139679   7.8145208  25.6737156
  52.2122574   8.7723818  26.0826721  69.7030563  61.7898026  76.2602081
  69.5128784  61.8314247  75.3230133  69.0840225  62.4022255  76.6576538
   8.2826290  44.1920433  53.6163177   7.9042645  43.3448792  53.8516579
   7.5276699  44.7716980  53.5149879  60.7812424  62.3144531   8.6769991
  60.2797089  62.5513420   9.4571142  61.3130150  61.5675049   8.9518127
  40.1732712   2.8475699  59.2908783  40.7741394   2.9326684  60.0311127
  39.6430130   3.6439428  59.3200340  44.2436371  11.4552879  71.1083374
  43.9682922  10.6997128  70.5891800  43.5079422  12.0651064  71.0526047
  54.8757210  53.7445488  69.2436905  53.9348259  53.5718536  69.2100983
  55.0611610  54.2193451  68.4334946  25.1412868  59.8380852  25.7974949
  25.3114548  60.3494835  26.5885372  24.5145493  60.3650742  25.3018036
  86.8151779  23.3317184  30.1662064  86.6287231  22.6454144  29.5255413
  86.6569519  22.9170628  31.0142975  71.5469437  38.8521576  21.0609818
  72.1851883  38.5455475  20.4168816  70.8637009  39.2733154  20.5394077
  56.7927284  66.7709732  14.6265287  56.8587303  66.6789246  15.5770044
  56.8252869  67.7154617  14.4745245  29.7200603  35.3126335  11.6874733
  30.4808655  34.7570152  11.8568687  29.9909668  35.8749580  10.9617767
  79.8926620  56.0531921  80.2856674  79.1936798  55.7981949  80.8878555
  79.9416046  55.3331604  79.6568680  12.6300888  50.8553963  23.2104568
  13.3297300  50.3320198  22.8195438  12.7571373  50.7583733  24.1542130
  44.2071190   9.2152739  65.8770065  44.4312096   9.9483624  65.3037720
  43.9353867   8.5184793  65.2796249  41.2609901  10.9140472  64.1615524
  41.5886383  10.2593565  64.7782059  41.9129181  10.9305286  63.4608765
  60.5431900   3.6854415   5.9638362  61.1115875   4.4554543   5.9484863
  60.3659744   3.5001364   5.0416169  16.3658733   0.6309776  49.0107613
  15.6528196   0.7945060  49.6280479  16.4343166  -0.3229494  48.9711342
  54.9612732  54.8035355  76.7530670  55.4167976  54.5805016  75.9412842
  55.5913544  55.3308258  77.2441788  62.2798767  16.0663700  60.5736198
  61.8117676  15.4876947  61.1754837  63.1861458  16.0493736  60.8812218
   9.0237017  36.3523865  77.6347885   9.9403057  36.5894241  77.7757874
   8.9951124  36.0320549  76.7332306  27.1830997  66.1185303  34.4877052
  26.6311169  65.4802856  34.0358315  27.7933102  65.5876083  34.9995613
  11.9623556  11.9328327   0.2041252  11.8130789  12.1992970   1.1112884
  11.9675655  12.7533636  -0.2887574  34.5536728  38.5114174  63.4851494
  34.3176765  38.3231239  64.3934937  33.7163658  38.6619911  63.0464287
  36.0397606  71.2573547   1.4408245  35.3896255  71.9408417   1.2783521
  35.8135948  70.9120941   2.3044662  27.6350956  63.9828339  37.9126663
  26.7053871  64.0679398  37.7014046  27.9851360  64.8682632  37.8141212
  59.4758530  41.5896683  68.4726944  58.8803482  42.2044144  68.9012833
  59.8179893  41.0508423  69.1860275  61.2083931  33.4030838  68.2323761
  60.8344269  34.1799622  68.6481171  62.1459732  33.4608727  68.4163055
  69.7953644  13.3553715  59.8530617  69.0911636  13.5477486  60.4721985
  70.4561615  14.0259495  60.0259895  50.1691322  11.5401039   3.2953897
  49.7653427  10.6741543   3.2377901  50.0145264  11.8168707   4.1985669
  69.4892273  50.7743797   2.3056457  69.1045074  50.5986481   3.1643317
  68.9306030  50.2985878   1.6910006  12.8369560  23.6839218  84.1017609
  12.2842903  23.3362408  84.8016968  13.3968754  22.9490795  83.8513107
  43.4428902  56.1974297  85.2446060  43.4331779  55.2410889  85.2052536
  44.3646278  56.4322090  85.1373367  58.4163628  18.0704918  22.7353649
  58.3893433  19.0192890  22.8590069  58.0108261  17.7142963  23.5258713
  69.6348495  47.8495827   0.2872804  70.0006638  48.6689529  -0.0459537
  68.7418671  48.0746422   0.5483631  85.4075089  26.3789120  20.8149014
  85.9531479  25.6866570  21.1881199  84.5176620  26.1561165  21.0883293
  69.9956360  52.3860817  56.9955826  69.5678329  52.8114243  57.7387543
  69.6768570  51.4838524  57.0199699  53.9321175  16.8538361  38.1449623
  53.0503044  17.0827866  38.4385872  54.5094719  17.4216576  38.6553268
  18.1305199  65.0885773  36.0380096  18.8751068  65.5303421  35.6297607
  18.3652649  65.0298004  36.9641151   8.0112009  40.2690239  38.0721283
   8.4697456  40.1624947  38.9055672   8.0856905  41.2028275  37.8754234
  78.7074127  56.5129585  64.6137238  78.0574646  55.8603973  64.3530426
  79.4145813  56.0024185  65.0080566  68.6392441  20.8353157   4.1316533
  68.5153046  21.0824280   5.0480628  69.5418243  20.5195179   4.0887027
  16.2044754  27.1492558  73.6726074  15.8764219  27.3455238  74.5501556
  17.1348457  26.9641342  73.8005600  62.3983498  21.0806103  84.2296066
  62.5078964  21.3893089  85.1290131  63.2761078  21.1296387  83.8509674
  79.7795715  52.2546043  11.6587105  79.8738785  53.0021515  11.0683575
  79.0563431  51.7476921  11.2896357  18.7103443  32.7871552  75.3544159
  18.1874428  33.4895325  75.7410278  18.9137459  33.0977936  74.4721680
   6.6123471  46.2159882  56.1926270   6.4354463  45.8082771  55.3448601
   7.0752349  45.5421524  56.6905289  75.6928787  59.0103188  43.9169312
  76.2928772  58.4055099  44.3533211  75.3033066  59.5170288  44.6294708
  77.4287720   8.1992741  62.1321259  77.6465836   8.9572830  62.6745377
  77.7335739   7.4466052  62.6388931   9.6776609  55.7244682  88.6197281
  10.6118422  55.7345390  88.8281479   9.4823732  54.8049011  88.4394836
  61.5208359  14.4150953  22.2682819  60.7092590  14.9220676  22.2446957
  61.8179474  14.3961849  21.3585567   3.2558618  47.6772766   0.1413192
   2.9833627  47.6942711   1.0587543   2.6003020  48.2064095  -0.3130925
  60.8363152   8.3944483  18.7744465  59.9941750   8.8196869  18.6125679
  61.3528671   9.0543575  19.2369709  36.4805870  17.4543095  79.6439514
  36.3035431  17.3469982  80.5784988  35.6282463  17.3389359  79.2239151
  33.4823112  68.4253922  60.0534439  33.9254341  68.8106766  60.8093758
  33.0442924  69.1639557  59.6304893  25.3990860  64.6548843  16.3646183
  25.3121929  65.1578903  15.5548868  25.4766960  63.7459259  16.0747757
  15.2494793  42.5025063  25.4415894  14.6330118  41.8645515  25.8010502
  15.9603043  42.5357170  26.0817909  73.7258530  65.7894287  61.0416679
  74.3586197  66.0685806  61.7034149  73.5348511  64.8778229  61.2624168
  34.9949837  44.0568314  58.0913467  34.9596252  43.4856415  57.3240623
  34.7457466  44.9193840  57.7595139   1.1645197   0.4521239  51.6964035
   1.2078811   1.3487738  52.0286217   1.0179337   0.5520382  50.7557831
  81.7241211  57.6441917  68.4480057  81.9154892  56.8749199  68.9845047
  80.9970398  57.3711433  67.8885117   5.3517904  41.8667679  78.8217010
   5.5667424  41.7807922  77.8929214   4.4718390  42.2433929  78.8300247
  23.0213966  59.7304535  74.3777618  23.7883148  60.2736588  74.1961212
  22.9602375  59.7141266  75.3328705  70.2453461  66.3651276  69.6438370
  69.4621964  66.0603333  69.1855698  70.1003799  67.3031006  69.7680130
  51.7066231  30.4331799  55.9439583  51.0013657  29.8634872  55.6368866
  52.4377823  29.8391132  56.1134300  12.4847441   2.9892764  34.4941101
  12.4227867   2.8899136  35.4441223  12.5742464   2.0948730  34.1650772
  83.3145065  67.3486938  26.4959278  84.1136169  66.9966354  26.1038685
  82.6276093  66.7377167  26.2292690  49.0460243  42.1564598  87.6535645
  48.3157692  41.5556030  87.5054703  48.6300316  43.0012627  87.8253021
  68.9188690  67.6715851  20.0947857  68.7970886  68.5256195  20.5095615
  69.0156479  67.0617294  20.8261795  11.9164333   2.3774309  12.4980965
  11.1144924   2.1052620  12.0519505  11.8599415   3.3323979  12.5309362
  58.7475243  69.7852249  36.4524078  59.2406464  70.4277878  36.9624825
  59.3516273  69.5132599  35.7615204  49.2709961  15.9040146   4.1668944
  50.0366020  15.4530115   3.8109787  48.5238533  15.4073458   3.8332329
  73.3986588  38.2171021  65.2840729  73.3375549  37.2877846  65.0630188
  72.6220398  38.6096992  64.8853836  21.4901047  67.4012375  70.5267639
  22.1196518  66.8028412  70.1244888  21.9771309  67.8194046  71.2368164
  81.2322617  27.6917992  24.2748966  81.1786346  27.9132004  25.2045937
  80.4903336  27.1058655  24.1250381  67.0609283  35.1142769  43.8324471
  68.0122833  35.1645050  43.7395096  66.7628326  34.6988220  43.0232697
  62.0605583  13.4861650  80.9319687  61.6951485  13.2217007  80.0877151
  61.2997398  13.5689125  81.5068970  10.3686943  49.5549545  71.6865234
  10.9603004  49.1902657  71.0283127   9.7317066  48.8589478  71.8479309
  12.3107538  48.1226540  39.1337395  11.3966026  48.1354828  38.8502007
  12.7032595  47.3998375  38.6441383  55.8611908   7.5912108  29.8616371
  56.1322937   6.6964831  30.0670605  54.9258652   7.5202627  29.6709442
  51.4183388  62.7149124   1.5188258  51.0515137  62.6633797   0.6362071
  50.8436089  63.3244400   1.9818510  54.9156036   5.1464009  46.7637367
  55.3430405   5.8868604  46.3333321  54.0363235   5.4638968  46.9693947
  35.8215675   7.4003100  76.5733261  35.2469254   7.1882544  75.8377609
  35.2591629   7.3299131  77.3446732  43.6837616  25.2064476  19.2189713
  43.4537582  24.6086578  18.5076504  44.1585045  24.6610146  19.8461475
  42.0251389  52.3133278   6.6359744  42.2397346  51.9354057   5.7831230
  42.7443848  52.9182053   6.8177304  11.7681570  36.9122276  89.2044296
  10.9404459  36.8634872  88.7261505  12.2122335  37.6766167  88.8373642
  59.3524933  45.2784615   2.6148183  58.5528145  45.5027962   3.0906532
  59.9197464  44.8793564   3.2744913  79.5730362  63.5918274  61.3318634
  79.8056030  62.7449455  61.7125702  80.4038544  64.0632477  61.2708054
   4.1943688  17.2694550  46.7632637   4.8699632  16.9051914  46.1913223
   4.4799953  18.1678257  46.9293365  60.6358604  56.4785309  81.8453522
  60.8151588  56.4777946  82.7856064  60.2636909  57.3434448  81.6731720
  75.8102188   7.5754261  68.6589661  75.9571533   6.7343612  68.2262421
  76.6568985   7.7962775  69.0470123  45.1899223  53.5239677  31.8458061
  45.3875732  53.5174637  32.7823563  44.3319893  53.1047516  31.7791615
  43.8594627  69.3545685  49.5454216  44.5316772  69.9695969  49.2519760
  43.9675522  68.5922928  48.9766655  70.4126205  56.9533806  78.2258682
  70.2678604  57.8970871  78.2943649  71.3376236  56.8366051  78.4425888
  46.6399117  64.5176620  34.6656685  47.1155167  64.1358719  33.9279251
  47.2338028  64.4197922  35.4099464  28.8595753  21.5468197  59.4021912
  28.5608444  21.4411449  60.3054199  29.6434460  22.0917892  59.4713821
   4.7062793  38.7047501  54.4756317   5.1890326  37.8807602  54.4106407
   4.3597808  38.8494225  53.5951538   8.2473049   6.5561862  15.9516697
   7.7626905   7.1712170  15.4011078   9.0128555   6.3183880  15.4285860
  82.5843353  39.5636749  17.8872051  82.4824295  40.4684105  17.5917397
  82.3263245  39.0346870  17.1323280  18.4480152   0.3797377  16.4068890
  17.5687771   0.0999270  16.6616058  18.6579323   1.0907092  17.0124340
  65.2906494  39.1149254   8.1645279  64.7497635  39.7385254   8.6490812
  65.4838486  38.4231834   8.7972984  76.5067291  20.9192791  86.6585312
  76.9800186  20.8092270  85.8338394  75.7012482  20.4155617  86.5414886
  28.7131329  70.4927292  54.5821037  28.6279583  69.9981003  55.3971596
  27.8873482  70.3409958  54.1224442  25.7651615  68.9155197  14.1187563
  26.6380424  68.5237045  14.1468210  25.5150185  69.0092163  15.0379305
  45.9802933   9.6436663  48.7551575  46.0124359   9.0115595  48.0370750
  45.2313042  10.2027979  48.5487137   0.8724950  59.4201622  24.4797001
   1.4916956  58.8648262  24.0059681   0.6731400  58.9301872  25.2774563
   0.1174253  33.7381821  49.1079750   0.0166706  32.8801422  48.6958466
   0.5794910  34.2645035  48.4555092  20.1030331  27.7442436  70.2907028
  20.1217918  28.2748890  71.0871277  20.4662895  28.3152847  69.6138077
  34.9927902  21.6524734  72.1123886  35.1518402  21.7854729  73.0468674
  35.2885590  20.7578144  71.9440460  16.8687916  62.9654770  34.3582802
  17.2591553  63.8174133  34.5533524  17.6129322  62.3648148  34.3171730
  57.5084877  41.6826897  77.9813919  57.3355446  41.1948624  77.1761932
  57.5589676  41.0114632  78.6619339  53.5082283  34.8771820  81.5575409
  53.5877991  35.7650795  81.2089157  52.6068687  34.8245468  81.8753738
  30.5970345  59.7884216  63.7511063  30.3558235  59.8557587  64.6749649
  29.7939548  59.5053101  63.3139076  60.8508072   3.0784125  44.2350655
  60.3220825   2.6944356  43.5356064  61.5218048   3.5850172  43.7775192
  72.5657806  69.2014084  76.5645523  71.9449921  68.4731445  76.5424194
  72.3574677  69.7174454  75.7857437  19.2334576  45.1520157  63.1994858
  18.8520927  45.7283134  63.8618088  18.6650524  45.2551994  62.4362717
  58.2847328  13.8561716  86.8634949  58.7997513  13.9430952  87.6656342
  58.5485916  13.0109615  86.4998627  11.7632475  24.5222740  68.6415100
  12.0549278  25.2415771  69.2016525  11.7671518  24.8901196  67.7578201
  45.7475967   5.7226992   4.8673792  45.5955467   6.4850993   5.4258223
  46.4675293   5.2552810   5.2909913  68.8105927   9.2028437  39.8210716
  68.6639633   8.5051527  39.1823540  68.3068619   8.9339962  40.5893211
  72.0717010  54.1895828  50.1986656  71.6181870  54.5246239  49.4251671
  72.9736710  54.4938164  50.0979996   1.9636270  67.0601501  10.5979586
   2.2323096  67.6462708  11.3054190   2.7698238  66.6155014  10.3360987
  18.3648434  47.7075310  75.0774765  17.7879429  47.1424980  74.5635147
  18.9708996  47.1038208  75.5069656  79.3511658  66.0967865  58.3848114
  78.4201202  65.8782578  58.4252129  79.4194870  66.9382095  58.8359947
   7.2433343  22.9212570  58.9722939   6.8533716  22.3199005  59.6067467
   7.9874697  22.4392738  58.6114807   7.8169785  31.0135880  57.6180763
   7.3848224  30.3303261  58.1305466   7.7842307  31.7895203  58.1776199
  58.4062233  33.2567749  63.4846306  57.8275146  32.5053978  63.6141014
  59.1411591  33.0979156  64.0769730  82.5330963   5.9505677  50.2542801
  82.7415771   6.4771762  49.4826241  81.8949051   6.4756079  50.7372704
   4.6873364  22.7968750   8.2733269   5.2164083  22.1129017   8.6838083
   4.2426491  23.2265778   9.0039711  73.9390640  43.4032784  35.6985588
  73.1893997  43.9056358  35.3793793  74.5451584  44.0641441  36.0334358
   8.0832367  45.8428612  23.9302502   7.7040787  46.3698883  24.6336098
   8.3287859  46.4798965  23.2593365   7.0954485  30.8184853  53.1647339
   7.8309536  31.4093533  53.0030632   7.2465525  30.4843025  54.0488815
  81.4467697  22.2857685  36.6528816  81.3425522  21.3357849  36.7067642
  81.5384521  22.4639549  35.7168922   8.6592302  45.5738029  26.9165668
   8.2070379  45.6804008  27.7534599   9.5763865  45.7637482  27.1139889
  26.6829777  41.2695618   2.2151608  26.6218643  40.6395683   1.4971031
  25.7734356  41.4715538   2.4346290  81.5559540  19.0070190   1.2022275
  82.4496460  19.3163662   1.0543985  81.4039383  18.3710365   0.5031950
  72.3853531  55.5827484  87.9820862  72.4416275  54.9272499  87.2868271
  73.2777710  55.9180946  88.0678940  71.5859604  28.0597324  62.4263115
  70.8404846  28.3629951  62.9445114  71.7322998  27.1607094  62.7205467
  43.7141495  25.8378391  32.4792175  43.3944473  25.4251156  33.2815170
  43.4229469  26.7472725  32.5452576  56.8935852  67.9559021  76.7965317
  57.7847900  68.0617218  76.4636765  56.3890686  67.6577530  76.0396957
  18.4118214  18.3322239  13.9092636  17.6113396  18.2565441  14.4286222
  18.6471310  19.2583466  13.9654675  61.6178741  27.1778259  10.0888519
  62.2841949  27.2448845  10.7727757  62.0626411  27.4666862   9.2919989
   9.9975433  10.9815960  13.4316540  10.2498913  11.6457825  14.0730658
   9.0583248  11.1157799  13.3047867  21.5280113  69.0118866   5.5554910
  21.5503120  68.5737152   6.4062185  21.7554493  68.3266068   4.9270821
  65.5776672  35.8709679  79.5891800  65.5930176  36.4054489  80.3831100
  66.4855423  35.8664474  79.2859116   0.3540973  44.1867485  62.2393112
  -0.0078310  44.8409348  61.6415825   1.0595248  43.7724838  61.7423325
  86.0445251   8.6698656  49.7262802  86.1120453   9.6246777  49.7237167
  86.5231094   8.3980141  50.5094070  57.7200356   4.9541159  44.3672028
  58.1977806   5.1927958  43.5728340  57.2096481   5.7345161  44.5833397
  47.5819855  62.0032883  53.5470505  48.0894203  62.8012695  53.3988495
  48.2398148  61.3126297  53.6275635  34.0932236  17.5444183  78.5384750
  34.0248833  17.4586029  77.5875854  33.6584778  18.3740139  78.7359543
  50.8682594   3.8807268  72.0049210  50.7841797   4.3523707  72.8336029
  50.8653870   4.5668321  71.3374786  -0.1571832  13.7674723  14.4579258
  -0.1692570  14.3697214  13.7140293   0.3819507  13.0335217  14.1631680
  41.8840904  23.1961346  80.2898560  42.6409378  22.8696518  80.7764969
  42.2005424  23.2931824  79.3917007  17.3952694  48.7077866  57.5780220
  17.3669605  49.0618896  58.4668655  18.1898518  48.1744347  57.5578766
  85.2426224  17.2720547  81.4215164  84.5644989  17.9267197  81.2547913
  84.7801590  16.5520649  81.8504410  56.6890755  27.7994728  60.7543564
  57.4955101  27.6328945  60.2663536  56.9778900  27.9265537  61.6580505
  58.5068817  39.5901527  25.3094559  58.2434731  40.5100479  25.2840691
  59.4244308  39.6111717  25.5812874  84.8999481  62.0192108  28.1648998
  84.7286224  61.8385925  27.2406406  85.7190399  62.5145073  28.1643295
  84.4329147  55.9643326  50.5203514  84.6842651  56.8605766  50.7435150
  83.4798965  55.9965515  50.4370270  43.6135674  17.7367420  72.7256622
  42.9174919  17.6170235  72.0796127  44.1339226  18.4643707  72.3850403
  64.4222794   6.7657318  73.1853943  64.1734390   7.2254853  72.3835602
  64.0258865   7.2796106  73.8889771  18.2748146  13.7781610  89.0542374
  17.8251076  13.0542641  88.6183777  17.6716557  14.5171957  88.9751282
  26.9914570   5.5659947   3.7250588  26.9925518   5.1132970   2.8816757
  26.1097393   5.9309797   3.7998388  52.9516296  69.6257324  58.6929054
  52.9534302  70.5828552  58.6807785  53.1914215  69.3971252  59.5909462
  22.3468170  62.8091850  18.9471207  22.9103699  63.5759964  18.8439674
  21.6942768  62.8963013  18.2522564   3.4703884   5.1640177  56.9408607
   4.4190407   5.0573225  57.0109062   3.2293153   4.6593437  56.1640587
  54.4907646  30.1772881  71.2431335  54.1967659  29.6354771  70.5108566
  54.8383904  30.9683666  70.8313293  39.8763733  70.4449310  21.1142941
  40.0269966  70.1020889  20.2333832  39.0555038  70.9323044  21.0445118
  11.3021202  25.6409664  65.9639511  11.9359636  26.2430286  66.3538132
  10.4498119  26.0281963  66.1635895  15.8450680  62.3381424  39.6189461
  15.9776192  61.9097404  40.4646034  16.7141476  62.3506851  39.2179756
  72.9683838  60.8610992   1.5471970  73.0913162  59.9449730   1.2985463
  73.1188660  61.3509712   0.7387344  18.4008808  51.7651100  54.3701019
  18.6707478  52.6355743  54.6628456  17.6154366  51.5729675  54.8823433
  42.3825912  34.1510925  18.5616188  42.5027084  34.2951126  17.6229687
  42.7147522  33.2661552  18.7125912   0.4935704  35.0274315  31.8012981
   0.3391777  34.2889328  32.3903809   1.4064063  35.2704086  31.9559708
   7.6205363  64.3300552  87.9335251   7.5258989  64.9748688  87.2324677
   8.0774584  63.5957031  87.5234299  68.2295227  60.9294472  56.9739380
  67.6823654  60.8461876  57.7549095  68.7837219  60.1490898  56.9854660
  58.1284180   3.0797143  61.3879013  58.1101875   2.1298459  61.5047302
  57.2072067   3.3396266  61.3949966  22.1671333  46.0059013  36.7993393
  21.4081230  45.8768044  37.3680801  21.9920082  46.8328705  36.3502426
  25.5735569  56.5418320  58.5273590  26.2692261  56.3301506  59.1498299
  25.4411011  57.4845009  58.6276512  69.2869797  19.0060883  12.7895327
  70.2348099  19.0070801  12.6559620  69.1294403  18.2714462  13.3825912
  46.1179848  16.1371937   9.5115261  46.8247528  16.7613430   9.3467627
  45.4561310  16.3452511   8.8520584   8.3758307  18.0588322   0.0358039
   8.4154024  18.1362324   0.9890483   8.3261118  17.1167412  -0.1261424
  42.0900154  38.7352448   1.7661345  42.6543655  38.3323784   2.4260116
  41.2178116  38.7282906   2.1604013  35.9171638  55.7165184  60.6216774
  35.9665833  55.7334976  59.6659050  34.9795151  55.6924629  60.8126373
  38.3261108   6.1218829  77.3172455  37.4403992   6.4471364  77.1561356
  38.4157906   5.3707204  76.7307816  47.5455513  18.3991604  72.8295670
  47.8724136  19.1332836  73.3496170  47.3387871  18.7826843  71.9772797
  51.9193726  68.0881958  29.6778851  51.4005203  68.8847046  29.5656281
  52.8265572  68.3775711  29.5803795  50.6727982  63.6505661  12.2229967
  50.7783775  63.7162437  13.1720867  51.5588341  63.7534943  11.8757515
   3.6176574   8.4089231  72.5967255   3.6289494   8.6552229  73.5216217
   2.7712040   7.9792871  72.4735947  49.2758675  36.8395042  52.3612595
  49.8192215  37.5956154  52.1392212  48.8049545  36.6372910  51.5528183
  40.1429977  44.2696304  69.4566269  39.9404678  45.1885796  69.2812881
  39.5657539  44.0313416  70.1820526  27.7841206  12.2792921  14.6742659
  28.0445499  13.1750021  14.4595289  27.3439331  11.9622564  13.8856239
  78.0171967  53.1168022  29.4123573  77.9236908  53.9606934  29.8543224
  78.9030304  53.1330299  29.0500565   5.6038446  26.3588562  43.9691010
   6.1335382  27.0848770  44.2985687   5.5579128  26.5053444  43.0242920
  13.9183750  32.1382713  60.6865501  14.0394831  31.5487804  61.4309044
  13.4847059  31.6009903  60.0236092   7.2015123  62.6166496  50.3425446
   7.1221037  62.0097961  51.0785179   7.1065602  63.4840584  50.7360229
  23.4051170  65.1478424  42.4694061  24.1566734  64.7596283  42.9173851
  23.3824596  66.0529633  42.7800140  38.6743050  13.9703350  60.9421730
  37.7992249  13.6725111  60.6936455  38.5232277  14.7872038  61.4177055
   9.8259716  22.2365227  10.0334902  10.0970039  23.1473732  10.1480494
   9.3128519  22.0389614  10.8170137  48.9521255  26.5633526  62.8787804
  49.5949173  26.0343552  63.3512344  48.2789955  25.9383450  62.6095314
  82.2322464  13.7664185  68.9118347  83.0182495  13.9901876  68.4134827
  81.9367142  12.9381552  68.5338516  10.7028017  40.4733047  89.0750809
  10.6159573  41.4147034  88.9252090  11.6389046  40.3398056  89.2238083
  57.0708656  67.0253601   0.1184589  56.7476425  67.8952560   0.3530564
  57.9812698  67.0203705   0.4140459  71.5770950  35.1425705  48.7993164
  70.7719040  35.2381706  48.2906380  71.2777481  35.0059319  49.6981773
  31.6698132  27.2678719  83.7173538  31.9104347  26.9250450  84.5780563
  31.1379242  26.5760021  83.3241119   8.3857126  29.5401325  70.5958405
   7.4791636  29.4096260  70.3176880   8.7175436  28.6562042  70.7532959
  76.7442169   9.7097273  30.7576065  76.7186279  10.6203394  31.0514812
  77.3857422   9.2908258  31.3313656  74.8175201  53.4695854  77.5401306
  73.9569092  53.7952309  77.8038330  75.1827774  54.1693306  76.9986725
  27.8556175  42.3942146  78.8877411  28.2760754  42.3735046  78.0280762
  26.9193172  42.4445267  78.6952744  43.3229713  71.2835999  88.9471817
  42.6513557  71.4347076  89.6122665  42.8322220  71.1636124  88.1341629
   1.2645935  34.8172951  51.2677383   0.6803690  34.4445114  50.6074791
   0.7444993  34.8241692  52.0712852   5.0521402  35.0592384  13.4676008
   4.5240483  35.2354698  14.2462502   5.9563041  35.0837288  13.7808428
  32.2883911  68.3135681  16.7709236  32.7021790  67.7708511  16.0997562
  31.6602383  68.8521729  16.2897148  28.0169926   4.3221965  74.4993668
  27.4826794   4.6346197  73.7692108  27.3817863   4.0474725  75.1606369
  83.0709381  28.6856022   7.2279520  82.3783493  29.2269363   6.8491268
  82.9052658  28.7096500   8.1703987   3.4851985  33.9913673  30.2718143
   2.9610152  33.6321716  29.5559635   2.9911158  34.7547150  30.5708447
  15.4340162  36.9283218  70.4371796  15.5949411  36.0241776  70.7070999
  15.3896122  36.8887711  69.4818268   3.3389900  22.5353374  52.0830917
   2.4459851  22.4593906  51.7469292   3.2382677  22.5252628  53.0349236
  68.2417068  69.3729477  22.2385674  68.0623093  69.9412308  21.4894981
  69.0537491  69.7166977  22.6109390   2.6047802  66.6903610  46.5886841
   2.8684924  66.2845993  47.4145470   1.7117676  66.9966125  46.7467041
  28.1760597  20.7621059  11.4476280  27.4296188  21.1256008  10.9712543
  28.8635483  21.4216480  11.3549070  35.6308861  13.0881004  84.7119904
  34.7756920  13.3647079  84.3828049  35.4300690  12.5480986  85.4763870
  23.8843651  47.5312843  25.1008434  22.9490166  47.3454514  25.1834393
  24.1416035  47.8540802  25.9644775  77.0753403  69.1466599  11.4433565
  77.0218506  68.9247284  10.5137768  77.9634094  68.8967590  11.6985426
  11.9740696  51.1129951  58.6553001  12.5879164  50.3959122  58.4965019
  11.3186893  50.7409859  59.2454834  39.8281326  60.5958748  13.0090179
  40.5200653  60.6588936  13.6674147  40.0446968  59.8092270  12.5085020
  29.1145630   0.3021038  72.4277573  29.5886917   0.7879518  73.1025772
  29.3046551  -0.6169240  72.6161270  78.0336151  50.0950699  56.7682648
  78.9259109  49.9995956  56.4352188  77.5199051  49.4671021  56.2603378
  36.7860641  48.3874397   7.6280603  36.8194160  48.4330940   6.6725316
  36.8600273  49.2979088   7.9140759  65.2287674  47.1221733  17.4195786
  64.7838516  47.4868507  18.1846237  64.5468750  46.6376038  16.9543362
  80.3817978  37.1810150  76.7416458  79.6383133  37.6260834  76.3349762
  80.9112930  36.8768806  76.0045090  76.3164825  28.4185181  73.0487366
  75.9967957  27.6740952  72.5389709  77.2683487  28.3175697  73.0489502
   7.6671710  43.4613609  25.6014576   7.6627197  43.4055176  24.6458988
   7.7707424  44.3948097  25.7863464  33.1349869  67.7619324   1.3708024
  34.0269356  67.9825058   1.1024549  32.6000404  68.4836044   1.0402570
  65.3241959  19.2220592  51.3765717  65.7262268  19.6966305  50.6489792
  64.8424072  18.5077686  50.9595604  62.7512665  45.6923141  34.8239403
  62.6884766  45.1937599  34.0092430  63.3657150  46.3989525  34.6255608
  53.8422737  20.1103897  46.9271278  54.0739059  20.5116177  47.7647400
  52.9025879  20.2689781  46.8373108  26.8610706  49.9837761  79.7150192
  27.5005188  50.2850494  79.0695953  26.7291393  50.7368011  80.2910156
  51.1254654  23.2302589  13.1356525  51.9931412  23.5784760  12.9304314
  50.7111435  23.1014290  12.2824402  27.0600967  51.1432991  18.7767105
  27.6790161  51.7706909  19.1502762  26.4077606  51.6854935  18.3331871
  54.1693573  22.1820850  62.1146393  54.4051743  21.8844261  61.2359924
  54.5521431  21.5283699  62.6997566   4.1756334  21.0756283  76.7712936
   4.6517582  21.8514919  76.4753647   4.4969506  20.9218235  77.6597366
   6.0024700   3.2717161  20.4271336   5.6344752   3.2376835  19.5441551
   5.3167901   3.6784809  20.9568672  77.5766144  17.9315224  63.8173790
  77.9864120  17.3838196  63.1478157  78.1143875  17.7982635  64.5979309
  28.7588959  14.6351175   6.3873162  28.8934231  14.6316013   7.3350091
  29.0546761  15.5011196   6.1066284  70.7089920  11.2292271  50.7950401
  69.8307495  11.3393412  51.1594543  71.2814484  11.6945839  51.4049339
  13.1525192  51.4573326  63.2855225  13.4051409  52.1143799  62.6369095
  12.2242575  51.2973175  63.1153526  73.1062622  14.9324799  38.2442665
  72.2141495  14.9816818  38.5877037  73.0308228  15.2311249  37.3379822
  65.8561630  45.0838242   6.6560688  66.3131332  44.7247353   5.8954964
  66.2746353  45.9310188   6.8089442   1.5874300  55.9449081   3.1956146
   0.6360703  56.0001945   3.2855599   1.7684039  56.3167419   2.3323536
  43.8878059  61.2264709   4.5408454  43.0290718  60.8038521   4.5552082
  43.7661018  62.0332489   5.0413742  45.2262115  16.9206219  83.3236542
  46.0796318  17.3528328  83.3567886  44.7823677  17.2053280  84.1225128
  62.7730827  25.3697033  27.3863010  62.1904144  25.2283859  28.1324635
  62.6266785  24.6112137  26.8210678  80.0595551  70.6657715  45.9301872
  80.5548706  70.5488586  45.1194916  79.1760254  70.3659286  45.7164040
  50.9022942   1.2055155  57.7283592  50.8936119   1.1548420  56.7725410
  51.8306427   1.1862514  57.9608040  24.1069031  53.0771904  24.0401821
  24.5138741  52.3918457  23.5101776  23.6075211  53.6001778  23.4130173
  77.9832382  54.0994530  60.1721764  77.9857101  54.6002083  59.3564148
  77.9191589  53.1862793  59.8924713  68.0075455  38.7344093  81.4024429
  68.6440430  38.0453339  81.2119751  67.8020325  39.1134949  80.5478668
  36.8810387   9.7166433  78.5508881  36.2379494   9.0328264  78.3636475
  37.6182823   9.5165052  77.9741287  67.7601242  28.0725861  84.0932388
  66.9253082  27.9257565  84.5379333  68.2992325  27.3217182  84.3418274
  70.9751511  15.7969351  13.8169804  70.7363815  15.4902859  12.9422293
  70.1457596  15.8305969  14.2936506   5.7984314  40.2328835  71.7156982
   4.9026423  40.3009644  71.3853073   6.1099138  39.3880272  71.3909988
  38.3177452  25.4258881   8.7011833  38.6302757  26.1444759   8.1514692
  38.1860085  25.8228035   9.5621910  80.4384995  42.8407173  22.5749226
  81.1714935  43.4102135  22.3412189  80.7196350  42.4068909  23.3805199
  62.6560059  42.7120781   6.3502631  63.0749588  42.2230949   5.6420217
  62.1844826  43.4178391   5.9077721  61.2427902  19.0023556  37.1663551
  61.5555992  18.8600483  36.2729721  60.2950287  19.1009007  37.0754280
  40.2003708  47.3702240  81.9962006  39.8690186  46.5572815  81.6146774
  39.5463791  47.6108170  82.6524353  81.5070267  50.9311943  26.5515347
  82.0040131  51.4784698  27.1595840  81.8195496  50.0421333  26.7192535
  25.6418552  22.0092983  83.0169296  26.1542377  21.4157658  83.5659409
  25.7857647  22.8744621  83.4003525  64.8620148  43.0625725   7.7734208
  64.0424118  42.9448013   7.2931948  65.2706375  43.8263512   7.3661098
  14.6526155  63.3586273  19.3229313  14.6805553  63.8372536  20.1514053
  15.2434349  63.8431320  18.7463722  26.9484596  54.3755913  75.7860565
  26.3098927  53.7828369  75.3896866  26.9048729  55.1675911  75.2502747
  67.4968414  12.6753902  13.5819616  68.4519043  12.7171288  13.5335522
  67.2601089  11.9415951  13.0147448  30.4480991  57.1978149  54.5903397
  30.0435085  57.5657349  53.8047371  30.1028481  56.3065796  54.6425858
  53.9787254  55.6612701   2.1002975  54.5660324  55.0085106   1.7192311
  53.1062698  55.3989525   1.8066322  71.2111053  27.6915569  39.9555550
  71.5664749  26.8957462  40.3513222  71.1166992  28.3013840  40.6872864
  55.4308205  14.5542812  70.2660980  55.1400452  13.6751537  70.5086136
  54.9196663  15.1385975  70.8260269  80.6989517   4.6800137  45.0472565
  81.1489868   4.0454288  44.4895744  79.8628540   4.8346696  44.6076622
  62.3771858   4.3390298  31.4688530  62.1099586   3.7401350  30.7716103
  61.5589943   4.7298203  31.7755737  30.9489841  69.1590118  33.3392487
  31.3559647  69.5499344  32.5660858  31.3750305  68.3065720  33.4290276
  36.5736122  64.8649292  58.3220329  36.3934059  64.2374954  59.0220947
  37.0493813  65.5748062  58.7532463   2.2766621  13.6117535  70.2431641
   1.5510728  14.2355165  70.2172699   1.8574816  12.7623196  70.3809357
  51.0688248  33.3299332  83.1096268  50.8384857  34.2305756  83.3377151
  51.4084740  32.9563026  83.9228134  33.5576439  40.7586517  74.7458191
  34.5092888  40.7915840  74.6482544  33.2243805  40.7693634  73.8485718
  55.9284477  37.8231773   9.8466349  55.9870987  38.7764664   9.7831430
  55.3021736  37.5759048   9.1662912  20.3694744  63.1056824  29.6206627
  19.4472237  63.0471268  29.3711491  20.6096134  64.0142212  29.4386749
   4.7304745  28.1421261  46.3431473   4.2742705  28.7511559  46.9238281
   5.2978334  28.6989975  45.8100166  17.8622894  60.4695244  66.5715179
  17.3661804  59.7006187  66.8523941  18.5321007  60.1206741  65.9833908
  29.0271397  65.9257050   5.7708268  28.8996220  65.5723267   4.8904328
  29.9441051  66.1997452   5.7884231   7.2701464   9.2494841  48.2037163
   8.1059523   9.2347097  48.6700249   7.1203971  10.1747952  48.0097923
  81.3497086  63.4820900  38.1813354  81.7119064  62.6812172  38.5603447
  80.5400391  63.2006073  37.7553940  18.2579536  48.0727806  30.3295650
  18.3905945  47.3214607  29.7515049  18.6380863  48.8111877  29.8536606
   7.6917515  15.5711565  88.2657318   6.9928594  15.2061148  87.7230301
   8.1120920  14.8072500  88.6606903  61.1575050  63.4763412  57.1526299
  60.7219582  63.7882767  56.3593903  61.0835609  64.2050858  57.7688217
  24.5952759  12.4929914  11.1552620  24.6840878  13.3350773  10.7089033
  24.2718601  11.8968220  10.4798241  19.6358624  45.1618996  11.9031239
  19.2572823  44.2834663  11.8675747  19.4833832  45.5239258  11.0302439
  48.7831993  34.1906624  76.4218674  49.0885468  35.0479889  76.1252365
  49.5807228  33.7284737  76.6798782   2.2176874   8.8236866  24.7659550
   2.5426471   8.6092653  23.8915081   1.3099161   8.5200710  24.7652378
  48.0043907  37.5552139  71.5617294  47.1211510  37.5115700  71.9280853
  47.8727989  37.8132858  70.6494217  65.1392212  36.3863068  45.2648544
  65.3438492  36.3704491  46.1997910  65.8959351  35.9751358  44.8470497
  39.0837746   3.0947785  63.8757706  38.7783775   3.4873338  63.0579300
  39.7339592   2.4475577  63.6026459  20.3586311  35.7545319  77.3753357
  19.4769306  35.3820343  77.3661957  20.8182659  35.2653046  78.0577011
  13.1953049  25.7660885  70.8107376  13.0303879  26.6480083  71.1442871
  13.9749289  25.4734154  71.2827148  18.3378220  53.0725517  49.9677429
  18.0381413  53.9502182  50.2046471  18.8649273  52.7896233  50.7149658
  12.8902359  38.5109138  12.1988363  12.6572027  37.6352234  12.5072088
  13.6135979  38.3654900  11.5890570  73.6184540  27.4497509  87.5308609
  73.1807098  26.8551579  88.1400146  74.4219055  27.7070808  87.9830551
   5.2788343  15.6248274   5.3335199   5.5991602  15.8415689   6.2091036
   4.4119811  15.2471256   5.4823103   0.2592214   8.5654545  37.4191399
   0.2930036   7.9781895  38.1742630   0.6384682   9.3851833  37.7360764
  27.6507301  46.3227234  71.8857727  26.8980312  46.9121933  71.8388290
  27.2724571  45.4668083  72.0871429   5.3042793  62.8058548   7.0178394
   5.4209132  62.0149422   6.4914517   4.6911483  63.3408127   6.5137324
  82.6972733  17.1428413  61.4353371  82.2311935  17.3694782  62.2400932
  82.2232971  16.3868504  61.0888481  62.2521896  28.2093449  15.8905468
  62.2380219  27.4817772  16.5123806  62.8280678  28.8584995  16.2945194
  75.8373566  23.4048786  28.3281326  75.7009430  22.4717979  28.4923897
  74.9994965  23.8118744  28.5485153  84.9492950  70.9864273  88.7239151
  84.9320984  71.1009293  87.7737503  85.4504318  70.1821976  88.8592148
  31.6693516  42.3657913  75.4990005  32.0109138  42.7797966  76.2915726
  32.2860146  41.6574631  75.3139877  84.5027008  62.9500313  43.4763451
  85.3675537  62.9373207  43.0663452  83.9694290  63.4909363  42.8938751
  19.5262794  63.1266365  41.9640236  18.9364738  63.2608719  42.7058754
  19.8197250  64.0069122  41.7290039  26.2466087  48.1344452  52.4483376
  26.5968838  47.2750397  52.6827660  25.5167046  48.2686272  53.0528755
  17.3621330   8.0593233  10.9439917  16.5816765   7.6301637  10.5933599
  17.4701633   8.8404150  10.4013538  71.7240829  54.0489578  52.9559364
  72.3012695  54.8089905  52.8821487  71.3659821  53.9338074  52.0757484
  34.6927338   8.1575937  58.4350204  33.7928047   8.3854399  58.6683540
  34.7051811   7.2004747  58.4351006  83.2875366  41.3369522  88.7741776
  82.8952942  40.8598175  88.0429306  83.3905792  42.2312698  88.4488831
  29.2538795   9.7394571   4.0267396  29.0722046  10.1699791   3.1913495
  29.4539852  10.4572306   4.6275649  50.7634392  55.1654854  72.0984650
  50.6679993  55.1612282  73.0508881  49.9294472  55.5068245  71.7757034
  47.1301079  31.3305473  59.7537651  47.6071701  30.5009251  59.7345467
  46.6332626  31.3401394  58.9356651  55.7105713  60.8590660  69.5482330
  55.7516479  60.3609352  70.3645706  55.0049667  60.4457703  69.0506973
  63.4006310  35.4248505   5.0577588  64.1905060  35.9640770   5.0972934
  63.4029312  35.0612335   4.1723161  55.1162987   4.5773549  64.5306854
  54.4519844   4.5696182  65.2197800  54.6387901   4.3425493  63.7350197
  69.3979492  44.3045540  38.7584572  69.0310287  43.7470856  39.4446297
  70.3098602  44.4354362  39.0183067  53.4521332  18.7454681  75.0416183
  54.3493958  18.5121250  75.2797394  53.4859657  18.8936749  74.0965652
  21.8802986  19.9748306   1.3192729  21.0974827  19.5120392   1.6180297
  21.9522495  19.7497158   0.3917071  33.5448952  25.9125443  77.2628937
  33.0611687  25.1134243  77.0539780  34.0302582  26.1147423  76.4630356
  23.8160496  42.7219391  72.9277573  24.0686703  43.6249275  72.7353287
  23.6236610  42.3394394  72.0716553  70.1988220  24.5566883  25.4651394
  69.3035049  24.2181263  25.4631367  70.6781082  23.9629822  26.0430965
  80.3856583  21.2132359  52.2499542  80.0827408  20.3495884  51.9696274
  80.1243820  21.8005428  51.5406990  45.8488960  55.6449013   6.5822930
  45.9995117  55.8204765   5.6534667  45.7829514  54.6916122   6.6382260
  67.2208481  13.6827135  55.4414558  66.4778748  14.2859373  55.4602318
  67.8282471  14.0703754  54.8113632  49.4802361   8.5790081  57.5513306
  48.7683525   9.2188148  57.5615425  49.8901291   8.6630096  58.4122391
  32.6172180  37.3916931  65.2894287  32.1771202  38.1700935  65.6309509
  32.1370354  37.1764946  64.4898376  23.9101925  56.8871422  42.8522644
  23.3291435  57.0035591  42.1005592  24.6930656  57.3911362  42.6301651
   3.4010544  69.3928833  27.2082958   2.8436732  69.1057358  26.4850330
   3.8680420  68.6024628  27.4791985  57.7567024  38.9445152   5.3772807
  57.2207375  38.3067894   5.8487473  57.8388329  39.6819992   5.9819312
  74.1958694  69.0768280  71.1529770  73.3279266  69.4643860  71.0402832
  74.2608643  68.9039307  72.0921860   6.2990184  50.1461754  50.2751884
   7.1790729  49.7713280  50.2401543   6.1646819  50.5236435  49.4058762
  59.0104980   0.2638694  14.1323347  59.9107819   0.1694131  14.4434538
  59.0842400   0.2507622  13.1780701   1.6872840  39.3604393  58.9448204
   2.6137960  39.3350945  58.7057266   1.3980958  40.2366600  58.6901741
  67.2531509  68.2566757  33.5901642  67.7726440  69.0605392  33.6030083
  67.0023804  68.1481934  32.6727867   8.1547499  11.4254284  61.6819763
   8.4864368  10.7724762  61.0656433   7.4166207  11.8309727  61.2270813
  46.1060104  35.2147179  79.6355972  46.3559799  34.4451561  79.1242065
  46.1029930  35.9324799  79.0023193  81.0696106  17.2523861  56.8207245
  81.7204514  17.3093281  57.5202942  81.4972382  17.6508999  56.0627327
  70.7079315  25.3796387  69.2738647  70.1470642  25.6050129  70.0160675
  71.5533676  25.1661263  69.6686859  78.6017761  55.2352371  72.8908310
  78.6887054  54.5944748  73.5965881  78.0955505  55.9498749  73.2771683
  62.4523125  29.1271667  19.6134377  62.6948051  28.2113857  19.7504692
  61.5427475  29.1805649  19.9068127  65.2581329  55.1696014  51.3481407
  64.4516449  55.2182236  50.8348732  65.5999908  54.2925415  51.1745644
  62.4509468  43.1040649  20.7964706  62.5863724  42.1584473  20.8572941
  61.9578629  43.3266869  21.5861149  49.3975220  22.5856476  20.9228325
  50.2334442  22.2969761  21.2890739  48.8168259  22.6591797  21.6802082
  51.8347359  58.0379372  44.0316887  51.4656067  58.5462608  43.3094826
  51.8787727  58.6557579  44.7614784  81.4845352   2.7212424  17.8051624
  81.8275299   2.0066307  17.2685890  81.1771698   2.2941482  18.6047573
  74.4796524  19.3148441  31.6932430  75.2362366  19.8474274  31.9385529
  74.2648773  18.8241043  32.4865112  31.2780552   9.7647753  19.7984142
  30.8572464   8.9508057  20.0751915  30.8682442  10.4415112  20.3372211
  29.9987545  20.7448444  75.0941238  29.1285648  20.3479862  75.1329117
  30.2212753  20.9238949  76.0077209  87.1135025  71.5862732  39.2147903
  86.4749451  70.9149094  38.9744835  86.6049500  72.2394485  39.6953773
   7.3805261  13.7468700  43.4742050   8.1769438  14.0599575  43.9030724
   7.0675273  13.0391273  44.0375557   5.6936970   1.9797872  69.3328934
   5.1251459   2.7350607  69.4830399   6.1038966   1.8162023  70.1821365
  20.4865932  67.7304764  24.9305401  21.3749561  67.6370392  24.5865765
  20.0874958  66.8703003  24.7999783  68.4775162  60.0564842  15.5651073
  67.5961227  60.0082664  15.1949129  68.3375092  60.1140976  16.5102577
   7.2893200  18.8128910   5.8409352   8.0940742  18.3905525   6.1413207
   6.7394571  18.8640537   6.6227694  50.1776161  34.9204979  68.8973694
  50.4624138  35.5735474  68.2581100  49.2746124  34.7212524  68.6501541
  38.5728302  63.6123390  83.4032822  37.7308693  63.4385262  82.9824219
  38.7808533  62.8011436  83.8668747  32.8467674  36.5929680  83.6926270
  32.5690231  37.4315796  84.0611572  32.6706200  35.9566765  84.3856888
  30.7413349  48.1522560  28.1147213  31.1502972  47.9733505  27.2679787
  29.8136845  48.2729797  27.9119320  51.3384399  35.7645302  38.8189240
  50.9055519  36.5452194  38.4734383  50.6666069  35.3313446  39.3454399
  64.8329010  59.3042679   4.5204406  63.9789467  59.5008545   4.9056020
  65.4252625  59.9470940   4.9104528  46.4310341  37.5292778  32.5280266
  46.0921478  36.7324104  32.1201134  46.0996513  37.4984932  33.4255066
   4.8376231  42.0379715  40.8022461   5.3060760  41.8098259  39.9992943
   5.3794293  42.7121582  41.2123070   0.8750812   3.6882312  64.2629700
   1.0577128   3.8223140  63.3329735   0.4062650   4.4784312  64.5313492
  21.4176998   2.4638009  16.5654659  22.3262787   2.6966889  16.3744621
  20.9865284   3.3012400  16.7358112  84.6495667  25.3080692   4.4511480
  84.9526596  24.4923439   4.0524521  84.9234543  25.2437096   5.3660660
  39.5046921  35.8984451  50.7573700  38.7707329  36.1394386  50.1921654
  40.0130730  36.7045670  50.8465385  83.1392136   2.2827623  46.1803856
  82.8085022   2.4001219  45.2898293  84.0337143   2.6221597  46.1503677
  51.6205978  17.9046440  62.7304878  50.8194084  18.0590115  62.2299881
  51.5944481  18.5560780  63.4313316   9.3210382  12.9811182  67.3674927
  10.2203894  13.1102438  67.0662842   9.1853514  12.0348854  67.3178482
  84.7133408  30.0291023  21.4127274  85.0222626  29.2055244  21.0352097
  84.1920471  29.7645111  22.1706657   4.8049154  36.0736122  78.5678635
   4.9866214  36.1328430  79.5057907   4.1856518  36.7835999  78.3985672
  66.9873657  36.4380836  56.6457291  66.3855896  36.8358917  57.2748947
  66.5162888  35.6736526  56.3141136  38.7541809  70.2843323  13.1739540
  38.5015450  71.0038452  12.5954151  38.4552574  70.5580063  14.0411215
  51.0355835  12.3080616  64.8283463  51.0768013  12.7732134  65.6639099
  50.1591377  11.9236345  64.8112106  45.6469574  45.1047363  14.8828316
  46.4177132  45.6185188  15.1240673  44.9157333  45.5588951  15.3015022
  70.5063171  22.1836948  74.6386871  69.6912384  22.2636604  75.1341553
  70.3497314  21.4570026  74.0356674  21.4383297  12.1574287  54.6665268
  21.7511101  11.4471045  55.2267418  22.0730171  12.1953487  53.9510117
  77.5189896  56.3259163   1.3943518  77.9591064  55.5027084   1.6061448
  78.1004791  56.7535477   0.7656711  35.0132370  53.7483330  42.7367020
  34.8635941  53.4671936  41.8340416  34.8838234  54.6965370  42.7168121
  16.4778996  32.9090195   8.3340149  16.6428070  32.2980499   7.6158552
  15.9606934  33.6103020   7.9378724  77.8355255  30.1955109  85.6921844
  77.7999725  29.8301392  84.8081741  77.4098969  31.0494556  85.6156998
  47.6311302  35.8476601  10.9463758  47.1104164  36.3443222  10.3151751
  47.7082138  36.4286613  11.7031622  55.0943794  62.6445465   4.1989765
  55.5286255  62.7739296   3.3558154  54.6280708  61.8141060   4.1032915
   1.0951283  40.1600647  42.3064842   0.4937964  40.4247589  41.6103745
   0.7974310  40.6438065  43.0769386  52.7776756  34.0378799  28.3988228
  52.3039703  34.8597031  28.2706127  53.5919685  34.1518250  27.9087467
  74.5543518  31.6052876   8.8235245  74.3577652  32.4678040   8.4579401
  75.4883728  31.4809494   8.6550331  65.0122757  51.4291725  44.6630211
  64.4103088  51.4664688  45.4063110  64.5501556  50.9079857  44.0064812
  24.1414871  52.8575401  82.2270584  23.2826672  53.0283127  81.8404083
  24.0001278  52.1051788  82.8016891  79.8470001  64.1608276  25.4596233
  79.2115402  64.4720993  26.1042404  80.6911850  64.4729385  25.7854576
  25.1609421  60.1899719  15.9202261  24.3895302  59.7939911  16.3256302
  24.8285656  60.5977287  15.1205444  76.2832260  46.4656715  44.1762619
  76.0401535  45.9420433  43.4127426  76.2040939  47.3723869  43.8798866
  67.4006577  24.6720829  19.2816715  67.1942902  23.7387390  19.2315254
  68.3387833  24.7201767  19.0977211  51.4489059  43.8903770  19.6521339
  50.7554665  43.3045311  19.3485622  52.1281700  43.3045578  19.9862671
  78.8669205  17.9123287  42.7014198  78.4968033  17.8710022  41.8196373
  79.7547073  17.5677147  42.6049309  66.9767456  59.1686020  20.3713322
  66.4146957  58.4418373  20.1027336  66.7402954  59.3292961  21.2848454
  34.8114471  22.7938309  83.2079010  35.7169495  22.6648006  82.9256821
  34.8646622  22.8584595  84.1614304   9.8809767  10.9914465   4.1953940
  10.1366339  11.5908508   4.8965259   9.7429647  10.1528044   4.6356936
  53.8140030   7.2563629  16.5921001  54.2062416   7.3660941  15.7258797
  53.5569115   6.3348737  16.6236210  67.8642044  38.3876953  36.4416084
  68.4504089  38.0259094  37.1062202  67.1014328  37.8095627  36.4547310
  26.1955757  61.8915977  44.1579933  26.6793671  61.1548080  43.7847404
  26.6534920  62.6673698  43.8343887  24.8513603  27.5139484  77.1437759
  25.6185436  28.0845013  77.1899185  24.6984138  27.3935680  76.2065735
  25.0930748  24.1661053  64.1507645  24.1492271  24.2069454  64.3047638
  25.4610424  23.8905983  64.9903641  16.2448406  52.1750183  80.4460220
  15.9630222  52.9908180  80.0321579  17.1574478  52.0723381  80.1761398
  82.0070724   2.6124325  36.8525429  81.3678665   2.4330914  36.1629868
  82.7733002   2.9482462  36.3874054  44.3666420  35.3219376  20.4060211
  43.6602402  34.9484596  19.8790112  45.1589127  35.1599808  19.8938599
  20.1784534  26.0333939  78.1156540  19.7911873  26.6509247  78.7360611
  20.6343975  25.3959503  78.6652069   2.5370309  67.8026352  33.9357948
   3.0409610  67.9232788  33.1309776   2.9004300  67.0093231  34.3292732
  84.7962952  48.2081757  65.8083801  84.6046829  47.4458923  65.2620773
  84.0316162  48.2930107  66.3778610  48.3097725  14.9752531  14.5637293
  48.4130859  15.9265108  14.5895433  48.7629013  14.7067213  13.7644815
  44.6363144  58.2154350  31.1796627  45.3299904  57.9457664  30.5777321
  43.9066238  57.6280441  30.9827824  56.3299522  11.2609777  45.4030838
  55.9636078  12.1014128  45.1279526  55.5654449  10.7117672  45.5766563
  15.7999992   2.5389545  16.1275158  15.0966311   3.0781536  16.4891357
  15.8020382   1.7514795  16.6716766  49.2816353  56.5125618  63.1800461
  49.6916351  56.2528954  64.0050964  49.5026207  55.8082390  62.5706825
   7.3452444  50.2454948   0.9917096   8.2237425  50.5206833   1.2539004
   7.4346933  49.3126488   0.7966912  44.2595139  25.7975883  57.7955551
  44.5473289  25.4490776  58.6393166  44.8771172  25.4320278  57.1621780
  29.7679329  48.1588326  55.7091713  30.6447220  48.5278702  55.8154068
  29.3130093  48.3848953  56.5204506  67.8367920  31.8651409  23.8617744
  67.5533066  32.2535896  24.6894112  68.0486679  30.9582729  24.0829754
  85.0851822  11.7439880  33.8859444  85.2438049  11.4516172  32.9883995
  85.8327942  12.3056240  34.0905533  45.7389183  13.0751190  20.8636951
  45.5647964  13.6080742  21.6394997  46.1378326  12.2755814  21.2069759
   6.4588141  23.4673958  13.5350037   5.7772317  22.9519920  13.1036854
   7.1929169  22.8607407  13.6314096  41.1187859   3.1561723  22.9009285
  40.3981781   2.6813493  23.3150539  41.3107147   3.8740075  23.5043430
  55.7524261   4.4940901  88.2767563  56.0407600   4.1129537  89.1061172
  55.9858818   5.4198999  88.3446274   2.3268752  23.8897076  71.1318512
   1.4263966  23.9890347  71.4408875   2.7545457  24.7117062  71.3719482
   6.6695690  57.7788200   5.7431035   7.2764163  57.0708084   5.9591751
   6.0111618  57.7501564   6.4373007   6.1334724  17.9464073  84.1554108
   6.1201081  17.0705299  83.7695465   6.1996417  18.5375366  83.4054642
  51.1134491  42.0003166  31.7522469  50.7870369  42.7385292  32.2667618
  50.7103424  41.2310333  32.1546669  55.9303398  22.4185886  18.0888157
  55.4718742  21.9780083  17.3733234  56.8585358  22.3051701  17.8843212
  10.1782513  40.6156311  44.9814301  10.5480576  40.3288422  44.1464272
  10.9262533  40.9611740  45.4685898  58.3809891  67.6330566  24.9159775
  59.0134544  68.0409470  24.3245029  58.3368263  66.7213821  24.6276531
   9.8728352   3.5950980   3.7578826   9.9209881   4.1552048   2.9831610
   9.4029322   4.1211638   4.4049363  49.5267754  50.3364983   7.2780828
  49.8472023  49.4574509   7.4801497  49.8748398  50.8856621   7.9805803
  27.8974743   0.4715088  44.3553429  27.8091240   1.4232792  44.3047523
  27.0040932   0.1547907  44.4887314  59.2742653  27.6963577   5.5302691
  60.1613007  28.0085049   5.3514748  58.7223244  28.1769981   4.9133620
  59.8953934  13.6104603  34.4559479  58.9816017  13.5072126  34.7215691
  59.8725090  13.5734730  33.4997368  62.8998108  49.8984756  68.9579391
  62.8186226  50.7065163  69.4646072  63.7361183  49.5246811  69.2356033
  59.3466034  38.4024086  77.8178940  59.2362022  38.0844078  76.9218369
  58.5629692  38.1007042  78.2773743  12.8913479  33.2103310  68.5799332
  12.7336006  33.0835190  67.6443787  13.6607676  32.6729088  68.7680969
   4.8363285  66.2996979  80.8043976   5.2954841  66.0776596  79.9943924
   3.9373198  66.4786911  80.5287552   2.6696265  68.1535110  71.7581787
   2.6012409  68.9396820  71.2164307   1.7636172  67.8748932  71.8914032
  74.0485306  30.3788738  79.8649750  73.2026215  30.8262634  79.8876419
  73.9150467  29.5875969  80.3867874   4.3314357  45.3927078  65.5796051
   5.2102537  45.3835907  65.2003632   3.9043534  46.1484642  65.1762924
   9.1567411   9.8977690  67.2716064   9.3763094   9.2010622  66.6530457
   8.4295149   9.5433826  67.7832565   8.1108198  53.5412025  81.2579422
   7.4538136  53.5448265  81.9540482   8.6158924  52.7423439  81.4094543
  45.4773331  71.1783295  28.1519547  45.1718636  71.3149414  29.0487595
  45.6486778  70.2381439  28.0978947  62.4148178  19.0159302   6.8652711
  62.0164604  18.1500568   6.7769074  62.9252548  19.1277122   6.0632806
  77.3500595   1.4732618  40.0782394  77.8038559   1.5510321  40.9174347
  76.5141220   1.0605646  40.2953262   2.3929458  22.4188461  87.4283905
   1.5626740  21.9438496  87.3929214   2.5955632  22.4776211  88.3620529
  26.4818954  27.4819431   8.8137674  27.4185467  27.4677200   8.6170120
  26.0604477  27.2352200   7.9905162  42.0857124  43.2431221  51.6120720
  41.9485893  43.5214005  50.7065392  41.5423012  42.4608841  51.7071495
  61.9031830  66.0243835  19.3026714  61.8769493  65.3646774  18.6096058
  61.8012924  65.5248489  20.1128063  13.4780741  70.8505859   5.9456792
  13.6914854  71.6618500   6.4066968  14.3029957  70.3657532   5.9196887
  44.4858246   2.4361751  43.8443680  45.1189995   3.0218410  44.2594833
  45.0004120   1.9391080  43.2084770  66.7461929   1.7015306  77.2343674
  66.1477890   1.2656550  76.6276093  66.5615311   1.2994616  78.0831680
  57.9590416  52.0790825  83.0954437  58.4399033  51.7696609  82.3278122
  58.3533440  51.6094360  83.8304138  80.0573959  60.9270210  62.3466759
  79.4224014  60.3906097  62.8213120  80.9074020  60.5518913  62.5768814
   2.4728053  21.7968426   2.8373280   1.9182001  21.0395107   2.6499896
   2.9053328  21.5786037   3.6628728  57.3740578  70.7857361  65.9025574
  57.6166344  70.1496658  66.5754623  57.5418015  70.3347549  65.0750885
  16.7453785  64.2413788  84.0441132  16.5473461  63.3204536  84.2141342
  15.9975758  64.5575180  83.5370865  53.1009369  64.3264923  67.0664291
  52.6739235  63.4698219  67.0638199  53.7710915  64.2621460  66.3859940
  44.7683716  11.3040009  64.2767181  45.0876961  12.2060862  64.2542572
  44.2177887  11.2253542  63.4976768  52.0184822   9.3327503  31.1090164
  51.4352074   9.7186432  31.7625523  52.6231308  10.0388689  30.8809166
  80.6399002   6.0504632  64.2261734  80.1218796   5.4805236  63.6577950
  81.2594681   6.4787121  63.6354408  24.5723419  59.6155434  41.9866753
  24.6781406  60.4525871  41.5345726  24.9823570  59.7512131  42.8409081
  31.6049290  31.0727215  13.2412062  32.1635437  30.4619026  12.7604990
  32.0266609  31.1610794  14.0959377  84.1001587  52.4967155  51.6071739
  83.4842682  52.9535332  51.0342674  84.2091980  51.6356544  51.2035446
  22.3348961  39.1117783  22.6764393  22.2899075  38.2545853  22.2528458
  22.9077511  38.9761848  23.4312134  57.5265312  59.8468094  73.5978241
  58.4486732  59.9362335  73.3572235  57.5328712  59.2672119  74.3595657
  85.0366364  62.0848198  67.2285156  84.7147064  61.3978119  67.8121414
  85.2256241  62.8225708  67.8083725  64.1863403   2.6291625  86.1173172
  63.6429443   3.2319643  85.6097946  64.7504120   3.1982200  86.6409912
   6.1636891  40.3455467  74.5018692   5.8908434  41.0634727  75.0731583
   5.8699150  40.6086082  73.6296768  59.2989655  67.8343430  85.4863586
  59.5851212  66.9222794  85.5363007  59.8934517  68.2375793  84.8537292
  21.8565807  38.4456291  67.6294098  22.3638420  37.6542244  67.8099518
  21.4129963  38.6393814  68.4551926   9.9009371   2.9053299  82.9583359
  10.8462048   3.0474472  83.0083771   9.7704744   2.4534366  82.1246643
  18.2301846  50.3090439  75.1625366  18.3176365  49.3564110  75.1952820
  17.2858334  50.4618874  75.1298294   4.5392928  69.6331863  60.9667435
   4.3626323  68.8327560  61.4610519   4.7614155  69.3274765  60.0872917
  26.6571541  47.8295326  15.8716669  26.4537373  48.3035164  15.0653210
  27.5733566  48.0419159  16.0496998  41.9425583  25.9846306  13.5027628
  42.2489471  25.2381649  12.9878359  42.3176765  26.7482758  13.0641708
  37.3259544  54.7242432  40.1130829  38.1992188  54.7799339  39.7250938
  36.7757339  55.2609444  39.5426102   5.2423387  49.1124115  19.9169407
   6.0007048  49.4635620  19.4502449   4.6173506  48.8915367  19.2264080
  30.9082756  48.8858147  63.1568718  30.5395813  48.8256149  62.2755814
  31.6453457  48.2751465  63.1503716  48.8243141  33.7797852  50.8131676
  48.5336533  32.8739586  50.7072449  49.6197281  33.8395271  50.2840424
  17.6452351  67.3132477  42.0453224  17.9195328  67.2976456  41.1283989
  16.7878189  67.7385483  42.0316238  24.5144272  49.8470764  64.7568436
  24.9726696  50.6309166  64.4538040  23.6154900  49.9608269  64.4482880
  12.4265785  66.9080429   3.7944796  12.0803137  66.0657425   4.0891881
  11.8387489  67.1745605   3.0876131  14.0603151  26.5781250  24.3137074
  14.5968485  26.5330677  23.5222950  13.9016676  27.5132446  24.4425983
  50.1722794  41.8489914   9.8346663  50.8853836  42.0095940  10.4526644
  49.5477486  41.3131332  10.3235893  41.5245628   3.1739802  12.3802233
  41.8909416   2.3653555  12.0222797  40.7703171   3.3628821  11.8219519
  75.2575378  46.8138504  31.3128071  75.0066681  46.6648521  32.2244492
  74.9147949  47.6840897  31.1092377  42.5728989  62.5220146  78.0457993
  42.2660942  63.4172134  78.1897507  42.3042068  62.3178635  77.1500549
  41.9912109  54.7831421   8.5368319  41.2018738  54.2431946   8.4963865
  42.1448021  55.0510750   7.6308222  49.1960373   8.6220274  38.9960022
  48.6005592   8.6515579  38.2471581  50.0643616   8.7585649  38.6170502
  20.9721565  25.1688023   9.9545956  21.8329258  25.5464516  10.1354027
  20.3525715  25.7933254  10.3318453  85.0436707  38.1398773  39.9250832
  85.6352463  38.8907356  39.8753242  85.3524551  37.5459251  39.2408981
  52.0163116  70.2982330  38.9964218  51.5092697  69.5802689  38.6173820
  51.4163895  70.7144852  39.6153374   6.9760528  59.0569344  11.0067759
   6.7705560  59.0345993  10.0721607   7.3473153  59.9275589  11.1496363
  76.0637054  46.2790871   6.0233431  76.0123520  45.6933899   6.7786937
  75.1542969  46.3955917   5.7483320  52.9079514   7.0212121  32.4121933
  52.1001816   6.5254455  32.5461845  52.7112312   7.6064911  31.6807690
   3.4816976  63.6821442  80.3033524   4.2589760  64.2333374  80.3942261
   3.2306852  63.4718819  81.2028046  78.0319443  40.9598083  14.0810642
  78.8924255  41.1016960  13.6865139  77.5031662  40.5878716  13.3751650
  15.4120770  30.3803120  84.7275009  15.7876158  31.1031361  84.2247849
  15.2017975  29.7159691  84.0712509   4.4876218  13.6234016  61.8929977
   4.1719398  14.4778299  61.5988426   4.2910466  13.6049051  62.8296127
  60.1107674  14.1048346  37.9786530  60.0639000  13.1802502  38.2219200
  61.0438652  14.2698851  37.8433037  59.6665001  21.4005928  15.6473217
  59.0662422  21.6691971  16.3428631  59.4557571  20.4800014  15.4913492
  48.2375412  70.5885468  89.3271027  48.9233551  70.5608521  88.6599274
  47.4201469  70.6116028  88.8295441  42.8024979  49.2276154  12.5389156
  42.8267822  50.1486130  12.7985487  43.6238289  49.0900764  12.0669708
  64.7651291   1.1531565  53.7415352  64.5021286   0.7928425  54.5884361
  65.0650787   0.3943085  53.2411270  49.4465179   7.7818809   7.7364850
  48.9893608   6.9592924   7.9113755  49.9524002   7.6105566   6.9421539
  64.6982651  59.8444138  53.0662994  65.0146103  59.4390831  53.8736763
  64.4374924  59.1071205  52.5143700  78.3600082   7.9733858  43.4433479
  78.8857117   8.4293642  44.1005745  77.8675156   8.6681976  43.0063972
  35.1627426  47.4824715  20.6635551  34.5825958  48.2345161  20.5448456
  35.0736961  47.2550201  21.5890656  30.4732590  69.0957031  58.7228012
  30.6106453  68.2046051  59.0441933  29.5307713  69.1507416  58.5649452
  54.8941307  60.1125298   0.1833376  54.6413422  59.2940140   0.6103755
  55.1706772  59.8492699  -0.6944153  18.3887463  43.4584007  17.6498470
  19.1285057  44.0600510  17.5661392  18.3515739  43.2530251  18.5840149
  84.4493103  26.3115883  45.5449524  83.5164871  26.1019497  45.5910873
  84.6155319  26.4607277  44.6141663  69.1512756  12.4232721  72.3327179
  68.2242508  12.4528751  72.5693130  69.1722946  12.6876497  71.4129944
  53.6273041  15.9713106  24.2699966  53.5981979  16.2498875  25.1853008
  54.1698456  15.1827459  24.2767792  25.2008553  52.6811371  17.6898823
  25.0053253  53.5994720  17.8760567  24.4246578  52.3591423  17.2315502
  66.4280777  21.9783993   0.1977026  65.7853394  22.6546192   0.4118342
  67.1292038  22.4486332  -0.2534420  25.5282497   5.0641341  67.9031525
  25.4295025   4.1406946  67.6713333  25.7755585   5.4917779  67.0832825
   6.4847345  36.1980820  49.9588203   7.0637474  36.8625793  49.5854301
   7.0740085  35.4995117  50.2434006  36.7645302  66.3401947  37.4082146
  35.9376678  66.7403488  37.6773033  36.5046196  65.5672989  36.9069099
  66.9323807  63.4416733  32.6219139  66.1299133  63.6254997  33.1102753
  66.6948853  62.7268219  32.0313072  50.7052040  55.2845764  65.2034760
  50.1366348  54.5147552  65.2218246  50.9219398  55.4442024  66.1220551
  -0.1151168   9.7408237  84.9270554  -0.0783416   9.2262201  85.7333221
   0.7407587  10.1662912  84.8752289  12.1021414  47.5145416   6.3897676
  12.6404829  47.9825935   7.0280066  12.2186203  48.0024338   5.5745201
  24.3005524   0.3488072  82.7179260  23.9127407   1.1586297  82.3862305
  23.5619431  -0.1385067  83.0829086  49.2546082  34.2061653  21.3579712
  48.5010223  34.7750130  21.5153008  48.9566498  33.3355293  21.6214943
  63.8226166  55.3893356  25.8176250  64.1229553  55.7983284  25.0059891
  64.5846252  55.4174652  26.3962364  47.0836639  55.4362602   4.1785889
  47.8031578  55.9404526   4.5585318  47.4563789  55.0451050   3.3884535
  82.9335403  17.2074451  33.6649704  83.1071854  16.4392948  34.2090530
  83.6340790  17.2022648  33.0127068  44.7737122  19.4422607  70.6403198
  45.2706566  19.3616753  69.8262024  45.2561874  20.0914593  71.1521759
  32.9246216  49.8679008   8.5762320  32.5514297  49.6885796   7.7132115
  33.4012108  50.6905136   8.4648657  85.0909271  29.7395782  71.3159180
  84.8828659  30.5274506  70.8137207  84.2750320  29.5197830  71.7656326
  32.7449989  17.5524254  86.2571564  33.4749794  18.1359692  86.4641342
  32.0189590  17.8793621  86.7883911  23.1404438   6.0949731  26.8262177
  23.1531315   6.6164074  27.6288242  22.6601562   6.6341653  26.1978645
  53.6711617  69.3371277  77.2250900  53.9317474  69.5933762  78.1097717
  53.5732155  70.1651459  76.7549591  71.9598694  47.3112946  26.1974812
  72.1073151  46.3805580  26.3654671  71.2349548  47.5472527  26.7763157
  62.7058372  17.4862366  22.5952282  63.2639236  17.7979069  21.8827438
  61.8688126  17.2887478  22.1749744  56.4674072   2.9835696  78.6102600
  57.1157417   2.8654034  79.3044739  56.3884888   3.9327714  78.5152893
   1.4649960  66.5867767  17.5162144   1.8902012  66.0684052  16.8330441
   0.9788386  67.2591934  17.0389977  40.7777252  17.2728558   5.9349694
  40.1633911  16.9119205   6.5741491  41.5907211  16.7904968   6.0853038
  10.9076862  28.2593708   1.3174852  10.4920187  29.0731411   1.6024976
  10.2483625  27.5844250   1.4786359  85.7311630  42.8691521  42.1485443
  86.2351685  43.5212059  41.6616821  84.8227844  43.1602516  42.0689316
  57.0527153  51.2362061  62.7056847  56.4748802  50.8387909  62.0542259
  56.4953308  51.3656921  63.4730072  41.0701714  70.7129135  29.0751286
  41.1700439  69.7617950  29.1155605  41.6598473  70.9859924  28.3723183
  85.5375519  64.5899811  26.3961220  86.1788788  64.3996658  27.0807514
  85.5702896  65.5412598  26.2950230  45.8515396  60.8924561  46.7877121
  45.7134438  60.1520424  47.3784294  46.6976128  60.7160492  46.3762817
  53.8388939   4.2516952  13.8891268  54.5445404   4.5377827  13.3090878
  53.3718910   3.5839372  13.3868914  83.1157227  34.4485321  50.1733398
  82.3213882  34.3491516  49.6485634  83.5224686  33.5821762  50.1586113
  77.8810654  40.7070847  24.6404362  78.2349319  41.4696007  25.0982342
  78.1012878  39.9656525  25.2043629  41.5413475  36.1303635  83.1192856
  41.8136559  37.0298615  82.9376602  42.2994766  35.5975304  82.8793716
  10.1784420  40.5447350  52.6090584   9.6942768  40.9420891  53.3328857
   9.9405851  39.6181412  52.6418915  74.2494431  59.7056694  46.3302383
  73.7600098  59.0963745  46.8829079  74.6621857  60.3100166  46.9471970
  45.4180603  48.6185913  66.4672241  45.0272713  48.5986900  65.5936508
  44.9788284  47.9131279  66.9422226  83.2799835  21.4172535  87.5355377
  83.3237381  21.8602409  86.6881409  82.4282074  21.6679134  87.8931427
  86.5361557   7.0328736  24.7559414  85.9258194   7.5225348  25.3072605
  86.0410309   6.2631207  24.4756432  40.1646461  66.4745941   9.4047146
  40.1126137  65.7263718   9.9994240  39.8593674  67.2168427   9.9263535
  15.9971199  44.5405273  18.6969013  15.6173515  43.7635651  19.1071873
  16.8175621  44.2316399  18.3125877  23.9251308  27.4570999   4.5377536
  24.6263371  26.9033012   4.8810425  23.2251587  26.8446178   4.3116245
   1.5181391  47.3383865  37.6185150   1.9490776  46.7970238  38.2799149
   0.6792486  46.9043617  37.4632149  86.3730087  24.3518677  72.5922089
  85.5147324  24.4331684  72.1763077  86.1948318  23.9170952  73.4261475
  82.7601624  13.5444660   2.7589228  83.1285172  14.2846069   3.2413509
  82.6449356  12.8614521   3.4195626  64.4850616   7.3196464  79.8260269
  64.9658585   7.8286562  80.4786987  63.5939331   7.2678404  80.1716156
  51.3796959  41.4048920   7.2344246  50.8165398  41.4003639   8.0084171
  51.0466805  42.1259155   6.7001390  35.3210983  57.4746590   5.3910742
  35.7548294  58.2466087   5.0274730  34.4767952  57.4402504   4.9414062
  83.1796570  35.6300163  20.4608002  83.7731857  35.1722946  19.8654480
  82.3679581  35.7262497  19.9626865  54.6066589   4.8518100  61.9452934
  53.7386398   4.9806442  61.5629616  55.0503578   5.6906962  61.8202667
  39.7158470  65.3568726  42.0290527  39.4603233  65.3138046  41.1075935
  40.0163841  64.4719238  42.2358780  67.4363327  40.0269852  56.6305466
  66.7310257  39.8565254  57.2548218  68.1782150  40.2925377  57.1739845
  25.4683437  40.8523407  80.4728699  25.4038086  41.0562477  79.5398636
  25.4662895  41.7062607  80.9053574  70.8436279  12.4697657  80.2728043
  70.4024887  11.6628170  80.0073471  70.2764893  12.8417110  80.9482574
  74.9785538  50.8631897  77.0510788  74.9011002  51.7349052  77.4388275
  75.3089600  50.3134842  77.7616348  17.5764370  69.7232742  21.8502769
  17.7231636  69.5336609  22.7769642  18.0667953  70.5296021  21.6902237
  50.6809959  53.6309319   7.1618996  50.3247337  53.8751183   6.3076859
  50.4394493  54.3559570   7.7382870   8.4683743  50.1099129  40.3351059
   9.0175076  50.8925552  40.2886772   7.7459245  50.3581009  40.9119110
  38.3082695  69.2806473  89.2165680  38.4898605  70.2089310  89.3633347
  39.1052742  68.9422836  88.8084946  44.6370850   6.6554661  36.3049622
  44.5545158   5.9826250  35.6291656  45.2934036   7.2613087  35.9608231
  14.6211910  52.3694839  89.0817032  15.2877140  53.0363197  89.2469559
  14.2173290  52.6341743  88.2552185  25.3461208  32.6516991   9.0181179
  25.2173290  32.5039558   8.0811996  25.7882843  33.4991608   9.0683956
   7.9812222  24.2389488   8.2646379   7.5338655  24.4555893   9.0826664
   8.1537991  23.2995396   8.3275404  43.2906876  71.4951096  82.2179642
  44.0320511  71.0925446  82.6702347  43.6880226  71.9960632  81.5056381
  74.2648544  23.3819122  74.3354111  74.4659119  23.0661144  75.2163620
  74.1059113  24.3191547  74.4474182  66.4648209  64.6375885   6.8034177
  67.2701340  65.1385498   6.6740580  65.8121872  65.0913696   6.2701349
  16.2636890  59.8317337  69.5408478  17.1585846  59.8347054  69.8805237
  15.9272451  58.9627914  69.7598953  64.0785065  24.4056530  69.7222748
  63.1930046  24.7163429  69.9109116  63.9524612  23.5291538  69.3588333
  39.4009247  14.9419813  63.5422440  39.1985817  14.0131636  63.6544380
  38.5457497  15.3689241  63.4910202  11.8732700  50.9651527  75.8062744
  11.7755890  51.9057846  75.9542847  12.2912149  50.6393967  76.6034164
  62.5136604  54.6895294  64.7842941  61.9989243  54.9017181  64.0056763
  61.9525795  54.1009521  65.2892685  26.8501282  28.7540169   2.6128626
  26.1211834  29.2927284   2.9205322  26.4587631  28.1697578   1.9634722
   6.1164703  59.8294754  87.5793381   6.4681649  60.2458458  88.3662109
   6.6878104  59.0758743  87.4313812  32.1202202  44.0460739  77.7308350
  31.6048679  44.7783623  77.3926086  31.9179707  44.0226555  78.6661301
  45.0672264  53.3035507  87.7101898  44.4483833  52.6417809  87.4014435
  44.5852966  53.7879066  88.3805466   5.9962602   4.7665620  36.8764725
   5.4903655   5.1260090  36.1477051   6.6166310   5.4596624  37.1022682
  17.2870331  46.0983429  81.0780334  17.4997425  45.5265465  81.8156281
  16.5224571  46.5937195  81.3717346  61.3301163  49.4185944  12.6315498
  61.7799797  50.1694565  12.2441750  62.0347481  48.8630905  12.9649296
  49.7903175  71.5270844  23.3901939  50.4907303  70.9314804  23.6564636
  49.3420296  71.0674515  22.6802597  29.4981289  30.3613701  68.4700089
  28.7248878  29.8263321  68.6490707  29.7362766  30.7303391  69.3205261
  36.8584404  40.4966812  54.1310730  36.4848785  39.6247063  54.2589073
  37.5133858  40.3781662  53.4431534  80.4643326  48.1241493  60.1041145
  80.5572891  48.1088715  61.0566673  79.5459671  47.9029388  59.9495049
  49.0190201  15.7456617  83.8368149  49.8517342  15.6655807  84.3020020
  48.3602829  15.4757442  84.4766922  83.2054443   0.9303993  73.7976074
  83.8357315   1.5573349  74.1524658  82.9086533   1.3267592  72.9784317
  15.1841850  50.2718353  27.7894764  15.2600164  50.8024712  28.5825157
  15.9632978  50.4917488  27.2787380  76.4093552  26.7465591  84.3336563
  75.4529114  26.7834568  84.3428345  76.6598587  27.2235947  83.5425034
  66.6455307  49.3802795  45.6399078  66.2138214  48.6315117  45.2285576
  66.3949127  50.1285706  45.0981636  52.5810814  35.7927818   0.4020747
  52.6454659  35.9708176   1.3403659  53.4402046  35.4435539   0.1650486
  74.3025589  69.0467834   5.9952841  74.0147247  69.8571701   5.5749784
  75.2580795  69.0792084   5.9489059  28.5548534  27.6953850  85.7235565
  28.0129032  28.2270966  86.3064804  29.4383907  27.7692757  86.0842972
  17.7743912  62.6464233  56.5901909  17.0974236  63.0196991  56.0257378
  17.9423180  61.7792053  56.2214584   6.1096005  27.6081543  57.1602287
   5.6687469  26.7601490  57.2128487   6.0714493  27.9536800  58.0520744
  64.3059235  54.7129593  81.9173584  64.4791336  54.5324478  82.8412933
  64.7930298  55.5164909  81.7348938   2.6310699  24.2271156   0.9652712
   2.2712824  24.6831055   1.7260991   3.0778885  23.4643497   1.3323865
  72.6639557  57.8634911  17.5039406  72.4409409  58.7901764  17.4158993
  73.1905975  57.8186493  18.3019810   9.6260557  67.3163681  88.3455276
   8.9370508  67.6551132  88.9171524   9.2407103  67.3340530  87.4694977
  35.5986633  38.9098701  82.9072571  35.7981453  39.7110023  82.4228745
  35.5384140  39.1907654  83.8203278  69.8731003  33.3280029  19.7834167
  69.4911041  32.8776970  20.5367661  70.7006454  33.6812973  20.1098900
  36.6939278   0.8269620  87.3735657  35.8416100   1.1388792  87.6776886
  36.9908295   1.5001969  86.7613297  23.2427673  33.1628761  72.5711060
  23.0017872  32.8425140  73.4403229  23.1450386  32.4012871  71.9995651
  77.7800293   1.8249925  62.6919899  77.7435760   2.5941854  62.1234436
  78.3167419   1.1959680  62.2098045  24.6215134  43.0971146   9.5737724
  25.1605835  43.8783035   9.6977911  25.1638699  42.3779640   9.8976555
  64.2144089  47.8041191  19.9073925  64.3303833  48.7476959  20.0189342
  64.7288818  47.4143562  20.6142406  12.9890041  52.9422035  21.4698219
  12.8267860  52.1490059  21.9804630  12.6541395  52.7376556  20.5967484
  38.0569229  61.2809486  14.9302263  37.1341362  61.2136154  14.6849422
  38.5336723  61.0096207  14.1458025  11.5860491  14.3938122  88.3734283
  12.1101303  14.5032597  87.5799561  12.0269794  14.9351139  89.0282593
   4.9470778  54.2336655  86.9644241   4.5215197  54.9277267  87.4678268
   5.3621383  53.6788521  87.6248322   8.4035473  39.8494339   1.3299903
   7.7031031  39.3224983   0.9453485   9.0742521  39.8905678   0.6483043
  71.6613007  63.6181831  57.9220352  71.4652405  64.4855118  58.2763329
  71.1005249  63.5424500  57.1500092  49.8187637  47.8787231  58.5723572
  50.1950111  48.0794792  57.7154007  48.8731232  47.8760986  58.4240875
  56.8505020  54.0491524  62.6906624  57.1668777  53.1473198  62.7439308
  57.6437759  54.5837059  62.7252808  56.4706154  54.2425919   2.0756676
  57.3011665  53.8017006   2.2546253  56.6165428  54.7017670   1.2485656
   1.2812099  68.1060181  65.3345261   2.0513427  68.5751801  65.6554871
   0.5486285  68.6939468  65.5186310  63.8424644   1.5116063  37.3204689
  64.7407913   1.6631141  37.6142120  63.2977791   1.8924816  38.0092964
  79.2084732  13.1521864  33.4708405  79.2610855  13.9769125  33.9538422
  80.1079407  12.8250895  33.4567223  75.4054489  65.0489655   1.0326374
  75.7199402  65.3633652   1.8802694  75.6687622  65.7287598   0.4123271
  32.1583519  24.9224205  74.4737701  32.7936897  24.5470047  73.8641510
  32.1943207  24.3497963  75.2399597   3.8259485  60.0953102  29.8924179
   3.2721796  60.8696365  29.9923744   4.3208003  60.0475464  30.7103863
  23.5659657  56.6883278  34.2451668  23.8093243  56.7170601  35.1704674
  22.6964207  57.0872459  34.2137070  74.7542267  11.9279652  71.9089050
  74.3073883  11.5090065  72.6444626  75.0287933  11.2010298  71.3499680
  63.0277367  25.6800194  63.7462273  63.4441414  26.0370579  64.5306778
  63.7543373  25.5034389  63.1486473  23.3182278  59.7731133  77.1363297
  23.9139290  59.0326729  77.0217667  22.6407127  59.4460907  77.7281570
   5.6172547  10.6692410  26.9677334   6.4519897  10.5672951  27.4249592
   5.0788026  11.1883478  27.5650845  31.0709820  31.2799530  59.2258530
  31.0065308  30.9125767  60.1073914  31.5103569  32.1214485  59.3485985
  16.6728973  23.7839756  74.2977524  15.8111095  23.9685898  73.9242935
  16.7623196  24.4111423  75.0153122  83.9400635  54.1675224  30.0193920
  83.1963043  54.7609482  29.9150028  84.0446701  53.7609711  29.1591549
   4.0635438  61.2849503  51.0126457   3.6834562  60.9829979  51.8376236
   3.5951917  60.7923698  50.3386726  40.4633064  54.8905182  39.9163208
  40.9595718  54.5421143  39.1756706  41.0253830  54.7354279  40.6754303
  45.5654182  31.4774818  70.3447189  46.3513603  31.1572247  69.9020386
  45.6697159  31.1938763  71.2529678   2.7462621  64.0188751   8.7214069
   1.9516035  63.5606461   8.4479551   2.8557370  64.7155685   8.0742064
  70.8619766   6.2350297  71.4436035  70.5729523   5.5985751  70.7896805
  71.7600861   5.9757891  71.6495590  72.9097824  41.2852325  17.6711559
  72.8101578  41.7369614  16.8331547  73.4791031  41.8575172  18.1855431
   5.7884030  25.0093994  15.8579454   6.3329558  24.3997669  15.3599072
   4.9985027  25.1133232  15.3273907  76.2477417  50.9852943  25.0345898
  76.4720154  51.8757744  24.7644539  75.4655533  50.7706490  24.5263214
  10.1668882  67.3963013  50.5090828   9.7791758  67.1582565  51.3512497
  10.8230200  68.0585785  50.7261200  76.3375854  66.3994293   2.9917729
  76.4622879  67.3243256   3.2044785  77.1745377  65.9887924   3.2088337
  75.5241470  37.3837204  75.9142838  75.8508072  38.0577431  76.5102844
  74.5716934  37.4705429  75.9534531  80.2617722  56.0903587  85.6948242
  80.7876282  56.8183479  85.3635635  79.3634491  56.4207878  85.6870270
   9.0130272  30.5478668  49.8579216   9.6930475  30.5033703  49.1857452
   9.4791393  30.8046913  50.6535416  43.4193039  65.5951920   2.4619107
  43.1497688  65.5854797   3.3803260  42.6199951  65.8074265   1.9799449
  84.4892197   8.3757477   6.4435620  83.5865097   8.0876055   6.3082471
  85.0194855   7.6047125   6.2421784  70.3995743  70.9490738  72.9187698
  70.8770142  70.9243393  73.7480316  69.7556229  70.2446671  72.9920425
  50.7968254  52.8126183  22.6674442  49.8422699  52.8065529  22.5966053
  51.0117760  51.9755630  23.0789852  48.0976868   1.0024812  74.9571152
  48.8503532   1.1854546  75.5194702  48.4783745   0.8305398  74.0958633
  50.3798790  25.3439445  78.8514099  50.0114059  26.2273808  78.8497772
  49.9414520  24.9029198  79.5790863   2.7098687  70.9192886  69.6872482
   1.8207866  70.8552933  69.3384399   2.7628756  71.8047485  70.0469513
  52.9262695  46.1321754  83.6338806  53.2057648  46.1239662  84.5493317
  53.2831230  45.3231850  83.2672424  60.6980362  27.3351440  71.7020645
  61.3596840  27.6755524  72.3042068  60.4935036  28.0737038  71.1285400
   6.2812533  28.3491039  51.8839607   6.6551428  29.1106129  52.3272934
   6.3526015  28.5555687  50.9520187  60.5831375  33.9415627  81.3764191
  60.3489990  33.5697975  80.5260086  60.5053749  34.8876877  81.2538147
  41.7107430  66.9553604  44.2540855  42.4677277  67.1915665  43.7179794
  41.2638397  66.2747421  43.7508202  20.6977043  30.5673122  65.0882797
  20.0509892  31.2118549  65.3756027  21.3591728  30.5668869  65.7801514
  65.1852875  30.8389626  84.8688660  65.5952682  30.4196682  84.1123352
  65.7167130  30.5599861  85.6145172  57.4181213  38.3735466  53.6470299
  56.5376320  38.0064888  53.5680161  57.4398003  38.7574425  54.5236053
  18.2877274  59.3592987  37.0805664  17.9250889  59.0552139  37.9125862
  18.1728477  60.3093376  37.1021690  24.2438450  61.3428230  31.1919994
  25.1942463  61.2435989  31.2478676  23.9085693  60.4462929  31.1996670
  13.6368704  58.7570686  41.0483131  13.8126297  58.0118980  40.4738083
  13.9327173  58.4687920  41.9117966  63.1747742  50.1268044  41.2147255
  63.4097061  50.0305061  42.1376381  62.5589600  50.8594513  41.1995201
  84.4303818  38.1096153  44.3657112  84.6547623  37.8383522  43.4756012
  84.9863129  38.8710098  44.5313835  74.3118210   3.6525841  66.3150940
  74.8708115   3.1735086  65.7033386  73.7824097   4.2238903  65.7587128
  60.8455315  32.7163696  48.9171181  60.3491325  32.9158897  48.1233864
  61.1384773  31.8132191  48.7957230  14.0100517   6.4336729  32.3033104
  14.0162992   7.3897443  32.3493614  13.2123384   6.2224555  31.8182602
  63.3455505   6.7536421  28.9757462  64.2209702   6.7632904  28.5887356
  62.7799568   7.1237440  28.2979870  64.9942017   1.1646702  44.8201485
  64.5456848   1.7759982  45.4043999  64.3774948   0.4406638  44.7118874
   8.8782501  47.1879692  65.6335449   8.2301836  46.4874725  65.7080307
   8.5809860  47.7111092  64.8891068  83.3905182  30.7748871  61.6463585
  83.7185669  31.3050880  62.3726540  82.4612427  30.6519699  61.8401566
  20.4276772   4.9074817  34.8217468  21.3251705   4.6749463  34.5837021
  20.5037632   5.7705655  35.2285995  25.6382751  22.0698795  79.5458069
  24.7267227  21.8183880  79.6943130  25.5980988  22.7047691  78.8305893
  41.7218552  44.4752388  54.8507347  41.3769302  43.6091499  54.6335907
  42.2099037  44.7409821  54.0713615  32.0978470  11.6229992  86.5595932
  31.2386608  11.8805990  86.2254257  31.9153519  10.8949966  87.1536865
  45.5392914  70.3151779  51.9556274  44.8651428  69.6426544  51.8582687
  46.1203804  70.1819916  51.2067413  82.2501602  38.8881187   3.3600280
  82.5593948  39.7935944   3.3868365  81.5082626  38.9062004   2.7554700
  34.0384598  66.8647308  71.8312149  34.3024826  66.9438629  72.7478790
  34.5995331  67.4851837  71.3659515  53.1307449  10.8206635  28.0441971
  52.2425575  10.9639416  27.7173576  53.6267090  10.5403585  27.2749882
  70.2251053  10.7674398  60.2023163  70.5348587  10.4089098  59.3706055
  69.9932251  11.6740036  60.0008087  49.3519897  31.3141937  57.5508499
  49.9878998  30.6227379  57.3671722  48.6558571  30.8756046  58.0400085
  61.4533234  41.7957344  34.0361748  62.2870941  41.9500999  34.4802780
  60.7908592  42.0892525  34.6616478  60.1026764  47.0089912  78.0690384
  60.4039383  46.9156837  78.9727859  60.3220558  46.1738243  77.6560059
  50.3375778  40.6380920  20.6223927  50.1161652  41.2841034  19.9516659
  51.1340294  40.2184563  20.2971134  76.2255096  36.8572311  79.6360168
  76.4284363  37.6198540  79.0942993  77.0199051  36.7098083  80.1492691
  51.0334969  46.9968452  86.6144562  50.9479561  47.8021812  86.1042099
  50.8813629  47.2693329  87.5193481   2.9592588  25.7396412  80.6359940
   2.8093503  25.3913708  79.7570877   2.4596384  26.5557899  80.6586533
  69.7482147  46.6048279  63.8878403  69.1089249  46.5726318  64.5995331
  69.3104324  46.1751633  63.1530190  63.7167130  10.0241280   3.2015069
  64.6380463   9.7870026   3.3071063  63.5766525  10.0250759   2.2546101
  56.1448631   3.5995922  85.7784729  57.0574989   3.8867812  85.7493973
  55.8293953   3.8904195  86.6341171  77.7184143  17.9913578  49.9600182
  77.4993973  17.6581993  49.0898094  77.1011505  18.7085915  50.1042366
  11.3022871  25.4123173  59.9676781  11.2776279  24.4697189  59.8029594
  12.0470476  25.7257290  59.4545135   4.2872691  49.9597092  62.7109375
   4.8455853  50.4412155  63.3213997   4.4650798  49.0382729  62.8995476
  10.5294981  39.6592560  58.2766037  10.3982620  38.7163429  58.1770058
  11.0422325  39.7461548  59.0802078  83.1161194  13.9971676  23.0971298
  82.3340073  14.4782944  23.3674126  83.1975098  14.1789293  22.1608772
  45.8847275  32.5256310  82.1316376  46.0897141  31.6071377  82.3065109
  46.6862068  32.9972801  82.3583832   0.8888038  45.8200493  14.8744774
   1.2172983  45.3813210  14.0897226   1.1432807  46.7358170  14.7611685
  10.1571321   9.4465933  57.4591560  10.3169250  10.3773718  57.3031197
  10.9987202   9.1067867  57.7632866  69.2825012  52.8488503  17.6794567
  69.5332947  53.7291756  17.9593906  69.6894455  52.7460480  16.8191891
   4.2231903  70.6713791   3.9244337   4.7338276  71.4605408   4.1052980
   3.7192972  70.5235062   4.7247190  83.8521805  20.6866112  45.6968803
  83.3808365  21.2504978  46.3101501  83.4643173  19.8204193  45.8213844
  52.5548973  53.8197937  29.0518150  52.8259697  53.0008850  28.6369171
  53.3219376  54.3883057  28.9834270   2.7258313  53.9800377  69.3726654
   3.2422953  53.1990547  69.1737595   3.2267325  54.7016754  68.9924469
  40.8834343   3.1182072  68.0307541  41.6944580   2.6115663  68.0730591
  41.1233521   3.9826458  68.3645401  13.1131268  43.2807274  15.3044024
  13.9010153  42.7539177  15.1704788  12.5188894  42.7048645  15.7855463
  66.4957428  56.5950661  53.2614975  66.1992874  55.9127655  52.6591530
  67.3126831  56.9144173  52.8782921  58.4195328  25.4362030   0.5761033
  58.7402306  25.7633762  -0.2643395  59.1671791  25.5220966   1.1676120
  76.7199478  61.4606628  58.2552834  77.0062408  60.8168335  57.6073990
  75.8972168  61.8028030  57.9055939  83.6105804  56.3416977  61.8540306
  84.1223526  55.5643425  61.6303444  83.8538513  56.9876175  61.1908264
   8.0542231  22.6278000  77.3862610   8.9481583  22.9455280  77.5133820
   7.5772600  22.9406319  78.1549454  54.9776001  21.6320438  72.2539825
  55.1780968  21.6631451  73.1894379  54.6584320  20.7416897  72.1069107
  25.6104050  12.4927435  85.9102783  26.0792503  12.9023905  86.6373291
  26.3009224  12.1526842  85.3412628  66.1047974  11.5926342  40.2387085
  67.0293274  11.7598858  40.4217453  66.1077271  11.1107807  39.4116440
  19.1550274   3.5835447  36.6317825  19.8147945   3.9454730  36.0402184
  19.6596127   3.2177477  37.3582916  58.9660339   4.6852779  74.3948898
  58.1843185   4.1906662  74.1489029  59.4357414   4.8160973  73.5711823
   7.4650030  61.7540627  68.0981216   6.5398641  61.7385750  68.3432999
   7.9120774  62.0974541  68.8717117  56.2876358  66.7152176  17.5151672
  55.3826256  66.6405258  17.8178329  56.6086197  65.8136673  17.4949741
  80.2313995  57.1411552  32.5258255  79.4280243  57.3517570  32.0499458
  80.0440598  57.3857269  33.4320908   8.7291460  11.8004093  74.2286530
   8.6833744  10.9677277  73.7587814   9.6301661  11.8456850  74.5485687
  61.1433372  22.3886604  74.2019501  60.2084694  22.2271099  74.3290710
  61.3009491  23.2310982  74.6282043  68.8150406  28.7334499  32.3209229
  68.2278442  27.9814949  32.2435036  69.6368561  28.4368382  31.9299412
  63.5620842  20.1910515  37.7267838  62.7062759  19.8587589  37.4558487
  63.4088707  21.1152115  37.9234695  14.5019388  37.9407005   9.7672310
  14.3319016  37.8608894   8.8286419  15.3584776  37.5317612   9.8910933
  55.8410645  22.6188488  74.7289505  55.9689674  22.3298779  75.6324844
  55.1322327  23.2600346  74.7806244  20.1073017  39.0694771   5.4547057
  19.4461727  39.4941177   6.0013494  20.1927834  39.6430244   4.6931496
  30.9671478  52.3826180  22.9611969  31.4515629  52.7656479  22.2298546
  30.0489712  52.5665779  22.7628555   8.5969915  65.5509262  15.3554869
   8.8990707  65.0208893  16.0930805   9.1283236  66.3459625  15.3983698
  18.3921108  71.2722702  62.4464607  18.1442261  71.1480179  61.5303040
  18.4633541  72.2213211  62.5487137   8.5551567  56.4084358  18.9466095
   8.8871765  57.2345238  19.2981396   8.0567217  56.0243111  19.6678867
  54.7525215  47.0648804  68.0027847  54.0107155  46.6535301  67.5592194
  54.5461769  46.9897079  68.9344482  44.4256325  47.0310135  71.4999237
  43.5481148  46.6738243  71.6363297  44.2893639  47.7922096  70.9357910
  11.1254253   7.1616044  53.2376137  11.6720657   7.4790754  52.5188446
  11.6552868   7.3032293  54.0221024  60.4244041   2.5808744   3.5527942
  59.6156769   3.0152454   3.2816586  60.2784424   1.6563101   3.3525245
  74.7958832  59.4439240  72.6514587  75.3216858  59.7767982  71.9241562
  74.9629059  60.0564728  73.3677826  84.9102478   3.3455865  11.2208834
  84.5001526   2.7026165  10.6424007  84.7737198   2.9967294  12.1017303
  80.6629257  32.6995583  29.8246155  79.8910599  32.1928825  29.5721626
  81.1093521  32.8837395  28.9981670   4.4388399   0.6758218  56.5261383
   3.8193698   1.3806163  56.3370552   4.4262834   0.1287908  55.7407532
  58.8988152  25.0148659  19.2579517  58.4581871  24.5336609  18.5575809
  59.2929764  25.7688198  18.8192940  11.8901186  25.1380482   8.1260061
  12.3081703  25.6977119   7.4716053  11.2237129  25.6956596   8.5275087
  69.1182098  21.2561474  50.4825211  69.1421280  20.3868237  50.8824425
  69.2687225  21.0954685  49.5509834  43.4724236  70.8448792  12.3553724
  42.6479759  71.2864685  12.5591154  44.0971947  71.5565109  12.2158451
  56.0378571   8.3707504  48.5669060  55.4315186   7.6341457  48.6443672
  56.8559380   7.9767351  48.2640419  17.7303257  46.3974648  25.5273190
  17.4326611  45.7679825  26.1841125  16.9699917  46.9573364  25.3702583
  68.4682159  20.5994892  70.5309219  68.8905411  21.2948017  71.0353165
  67.8730316  21.0602493  69.9395752  55.5614090  20.4645691  14.3742380
  55.0072594  21.1477242  13.9968166  55.0333557  20.0902195  15.0793991
  22.9049683  33.3445816  69.2163162  22.5195370  32.9904976  70.0177460
  23.7642689  32.9267998  69.1589279  78.3564682  21.8547726  34.5295944
  78.0790329  22.6460342  34.0678940  78.4437790  22.1284313  35.4426765
  57.7423782  50.2357864  33.8985863  58.5368767  49.7314034  34.0735245
  57.1580429  49.6176414  33.4596329  71.1101151  68.7332001  79.1802216
  71.2376556  69.6496277  78.9350128  70.9130249  68.7609787  80.1165009
  11.5854216  12.6392431  64.6040573  10.8444605  12.0733242  64.8207245
  11.4617748  12.8521004  63.6790504  65.1021423   7.7664886  39.4520149
  65.8397293   7.2982211  39.8430710  64.4686050   7.0810232  39.2398911
  28.6664677  26.9004669   0.5347097  28.9032822  27.6157570  -0.0556382
  27.7395897  27.0443459   0.7255768  60.1941681  35.7400360  74.0754395
  59.6454010  35.7451248  73.2911835  61.0901566  35.7038918  73.7405853
  29.5889797  31.6673908  62.4224739  29.1829548  31.4359894  63.2578354
  30.4142990  31.1826019  62.4148788   8.5130377  63.5908661  29.1804981
   7.8330150  63.2377434  28.6068211   9.2722692  63.0287437  29.0261669
  79.0336304  58.2696571  13.1135368  79.0164108  57.3126411  13.1212606
  79.1731110  58.5140877  14.0284309  40.8644218  51.4417152  26.2019157
  41.2056999  50.5502930  26.2735004  41.6082268  51.9588394  25.8927822
  57.8128014  71.7785797   6.6857224  58.0197678  71.0319901   6.1235795
  58.3347511  71.6358414   7.4752960  19.3336086  17.9986458  17.5510731
  19.3677177  17.2301674  16.9814148  18.9838829  17.6680889  18.3785133
  83.4932861  60.7045708  82.9417725  83.1512375  60.7507706  82.0489731
  83.7268906  59.7840576  83.0614243  55.0203857  58.8813477  23.5547504
  55.1343422  57.9388924  23.4321804  55.8498344  59.1759834  23.9308376
  74.5839767  39.4951248  31.4519176  73.9490280  39.7772827  32.1102943
  74.4503860  38.5500336  31.3798943  55.1107483   0.9403316  84.9822159
  55.5312195   1.7743610  85.1915665  54.5772781   0.7412595  85.7516403
  19.7463284  50.7206688  15.1863432  19.0013943  50.2552986  15.5667858
  19.5126419  51.6461182  15.2581959  78.7783585   2.7684765   9.5408573
  79.5717850   2.4357193   9.9603529  78.4760284   2.0447958   8.9921188
  52.0112762   8.9879408  45.4540749  52.3530045   9.4408846  44.6831703
  51.7608986   9.6909380  46.0535240  41.2278862  53.7068062  59.1313248
  41.1238403  52.7605095  59.2309570  41.7909546  53.9640388  59.8614044
  47.9991608  52.7383804   9.2934523  47.4299469  52.5429535  10.0377893
  48.6353302  52.0232353   9.2841778  65.1300201  24.8569374  58.6438828
  65.2074738  23.9210033  58.4587898  65.8405914  25.2594395  58.1445656
  47.8467522   6.6270151  36.9588547  47.6347160   5.7252345  36.7178879
  47.5039482   7.1546063  36.2374916  33.5300827  42.3783188  80.3587799
  33.7820778  42.1263275  79.4703979  34.1714287  43.0429001  80.6102600
  62.3608475   2.1051300  20.1537876  61.7995186   2.1316814  20.9286671
  61.7916374   1.7789634  19.4567585  24.7523136  53.6604614  49.8912811
  25.6068230  53.3764763  49.5666313  24.1226101  53.1257515  49.4077606
  26.5727062   8.6346607  59.6749573  26.6305408   9.1364307  60.4880486
  27.3262672   8.0451031  59.7032204  82.9653549  21.5128593  53.1801834
  82.7040939  22.3266392  52.7492065  82.1496277  21.0220604  53.2798958
   4.0432696  63.2363205  70.9211349   4.4359136  63.2196541  70.0483322
   3.9419818  64.1670380  71.1204681  68.9601440  64.8197861  78.7957993
  68.8770065  65.7725449  78.7560501  68.4514618  64.5036163  78.0491409
  43.3095436  47.0896225  45.5797729  42.7815285  47.5597115  44.9344406
  43.5859451  46.2922668  45.1280479  40.8992424  65.0920639  69.4145279
  41.6747169  65.2606201  69.9497452  41.2421913  64.6928253  68.6150131
  45.0743828   6.5058627  43.5057220  45.5750465   6.3443179  44.3053932
  44.1695633   6.5979729  43.8041344   8.6385460  45.3461914  84.1315155
   8.4709663  44.8516922  83.3292542   7.7827578  45.6948090  84.3811646
  40.0059738  64.1180954  58.3960571  39.8304062  63.6750908  57.5659065
  39.1915550  64.0303574  58.8912888   9.7583046  58.7687645  62.6709023
   9.1807070  59.4181175  62.2697144   9.2317705  58.3782997  63.3684196
  54.7967682  67.7798080  36.4888458  54.7720909  66.8358459  36.3321037
  54.0072746  68.1140060  36.0631218  18.4238396  18.6412888  86.3589020
  18.7900639  19.1859169  85.6621246  17.4780273  18.7734776  86.2941360
  61.8622131  63.5772362  53.1222954  60.9068298  63.5318832  53.0846214
  62.1581497  62.8300743  52.6022911  22.0077858  71.5062943  51.9157372
  22.4206352  70.6442337  51.9670219  22.6463776  72.1014328  52.3084831
  85.2487030  37.5873528  20.6099186  86.0398178  37.1393089  20.3105469
  84.5511169  36.9413452  20.4991074   3.2106616   5.2663546   5.4360323
   2.9768064   4.7462273   4.6672597   4.1232581   5.0371494   5.6117158
  37.6715469   2.0803294  84.8069687  38.1624222   2.8866861  84.9652786
  37.3313484   2.1777244  83.9175797  78.4888382  45.1463432  63.8334885
  79.1851578  44.7859879  64.3825989  78.5559464  44.6600609  63.0117493
  51.9444695   6.9840922  41.8580513  51.6008148   6.5548410  41.0745468
  52.1927681   7.8598299  41.5619698  20.8719196  22.3560867  77.6476593
  20.7943363  21.4554310  77.3329620  20.0404091  22.5278435  78.0896072
  13.5724421  70.8005676  41.0639191  14.2061882  70.2366104  41.5072632
  13.2411537  70.2669678  40.3415985   6.8042865  49.0029755  80.4659576
   7.5316348  48.8073997  81.0566788   7.2032108  49.4984550  79.7507095
  35.6801147  11.8426628   7.9311876  36.6128082  11.9377499   8.1242552
  35.4296799  12.6801262   7.5410986  80.8716278  35.8411789  32.1822891
  80.4414139  35.1672287  32.7085381  80.3901443  35.8427315  31.3550053
  28.3252335   6.5809922  63.9687386  27.4239902   6.9034514  63.9652100
  28.8615475   7.3698373  64.0482483  50.5503616  52.3966217  30.4533730
  51.1979828  53.0064964  30.1000061  50.8217430  52.2583122  31.3608170
  75.9242477  70.7671127  27.0271473  76.6705399  70.2833557  26.6732349
  75.6469269  71.3376236  26.3103237  44.5934372   6.7191696  70.7294083
  44.3231926   6.0824103  70.0677872  45.0550308   6.1995058  71.3875198
  54.5571899  70.4691772  79.5828705  54.5706863  69.8514404  80.3139267
  55.4234581  70.8761215  79.5971451  85.3395767  49.4023018  62.8663940
  86.0778732  49.8778038  63.2472343  84.7175980  49.3080635  63.5878448
  48.2282181  27.1274300  74.1748962  49.0247536  27.5350876  74.5148697
  48.4579391  26.8577862  73.2856522  77.6662292   8.8414221  17.1250973
  77.1224289   9.3548279  17.7225342  78.4356842   9.3894644  16.9707737
  43.1305504  35.0001106  68.8733978  44.0608406  34.8506737  69.0420990
  42.9159279  35.7785263  69.3874359  85.0469742  64.2689743  31.1684189
  84.4807587  64.1841583  31.9355183  85.7566528  63.6458931  31.3244915
  57.9541130  15.4244547  82.8124390  57.7608070  16.3453274  82.6367722
  57.2116089  15.1190538  83.3336411  65.1997070  18.1505642  63.9573479
  65.1470261  17.4109879  63.3519669  65.5485535  18.8683338  63.4288177
  60.7029495  22.6303616  55.7619057  60.2638435  23.2360401  56.3590393
  60.0946274  21.8964443  55.6750565  82.7655182  38.3243790  59.6308250
  82.9074249  37.7956963  60.4160576  82.9441681  37.7271271  58.9044571
  52.1871796  68.2721252   8.8800573  51.7501144  67.4205627   8.8729467
  51.8566628  68.7044067   9.6675358  76.2424088  12.4006720  42.0274582
  75.7415924  12.3585129  42.8420982  76.0705490  13.2781458  41.6857910
  46.0324669   2.7570071  81.6309814  45.2845268   2.2681189  81.2877426
  45.6975937   3.6435034  81.7659454  75.1457901   6.8496943  75.8597183
  75.8647308   6.9220085  76.4875183  74.4257584   6.4694476  76.3629074
  17.4178314  62.1155663  48.5216446  17.4735050  61.4448471  47.8410072
  17.7813454  61.6961555  49.3015060  70.4092102   0.2210982  79.7357635
  70.3566360  -0.2183044  80.5845184  71.0003662   0.9591312  79.8843384
  42.6442299  60.3956451  21.7324772  42.7473984  60.8918915  22.5444679
  42.1951485  60.9977875  21.1391964  69.8536377  27.0507889  80.7327728
  69.6859589  27.1634064  79.7971268  69.4819412  27.8339329  81.1386795
  14.3582745  24.0031395  76.4690094  13.8809261  24.7427464  76.8449707
  15.0855618  23.8552723  77.0735092  81.6537247  58.1596069  84.8610687
  80.9802704  58.7660561  84.5529861  82.2791595  58.7134628  85.3283081
  84.3498077  52.8023834   7.5021429  85.0669861  53.2309608   7.0350227
  84.7500610  52.0274429   7.8964691  75.4773636  19.5559216  54.9218445
  74.8808289  20.1947689  54.5316467  74.9018555  18.9042606  55.3222961
  64.0946045  28.8707237  67.3483124  64.8927231  29.3068295  67.6467209
  63.4362221  29.5651817  67.3260117  66.4770584  27.3491249  57.0923004
  66.1505890  27.9696255  56.4406662  67.2439575  26.9508343  56.6806412
  49.0223846  65.9035645  12.1666479  48.5810890  65.7078094  12.9931898
  49.5832291  65.1441040  12.0088444  63.3735847  18.5887756  77.6450195
  63.3424644  17.9302235  76.9510651  62.7335320  19.2485237  77.3779984
  79.1415405   7.3105087  37.6165123  79.6261139   6.7859864  36.9790955
  79.8000870   7.5758123  38.2585068  83.0684586  59.7014046  70.9225922
  83.4707489  59.7983017  71.7857285  82.8815765  58.7655029  70.8491516
   6.2050204  62.1669960  58.8427925   5.7175684  62.3885880  59.6362152
   6.8692675  62.8524017  58.7705078  54.2207222  48.4182053  72.9191360
  53.9765129  47.8628273  72.1787720  54.7856789  49.0904503  72.5381699
  16.2278309  60.3885918  33.1363983  15.7521772  59.9047356  33.8115807
  15.6243162  61.0814705  32.8682175  23.0503769   9.5136604  13.5601234
  23.5567532   9.7563734  12.7849436  23.5888100   8.8571272  14.0020351
  54.1409378  51.6673050  22.4230595  53.5608444  51.2953911  23.0874424
  54.6034393  52.3721619  22.8763809  43.2335014   1.1156958  60.8326607
  43.5716858   0.5063445  61.4888268  43.5985107   0.8030953  60.0048447
   5.3627286   0.5368440  73.3425751   4.4163184   0.6520793  73.4277802
   5.4609599  -0.2555192  72.8146133  35.2707405  69.9981155  51.7870750
  34.4184151  69.9896164  51.3515205  35.0631561  69.9549484  52.7204971
  66.8947678  39.1992531  64.9004288  66.6211929  39.6651230  65.6905975
  67.4064865  38.4580536  65.2244644  69.7671967  34.3933563  43.2687988
  69.8281403  33.7655067  42.5488510  70.0154343  35.2310219  42.8777428
  33.2476463   1.4175634  73.0045166  32.4153099   1.1063670  72.6486969
  33.8326607   1.4547704  72.2478104  77.6964188   7.9931583  88.4327927
  76.8892288   7.4853992  88.5156097  77.7247925   8.2492008  87.5109024
  74.0404816  59.6129875  23.9759903  74.6054688  59.1090851  24.5617352
  73.1555099  59.3076172  24.1755047  79.8347321  28.3555145   4.3250604
  80.7839127  28.2579098   4.2491512  79.7061539  29.2760220   4.5538921
  23.0812225  64.0145645  71.2272339  23.3261147  63.0909691  71.2840271
  22.1862259  64.0462646  71.5651779  75.2824249  71.7079315  75.9366837
  76.2052231  71.4812927  75.8213043  75.0733490  71.4164047  76.8241119
  45.8188171   3.1226947  64.3951111  46.7693176   3.2350104  64.3821030
  45.5654411   3.1188490  63.4720650  85.5220413  23.3255005  47.1530533
  85.4467773  22.4020977  47.3936653  85.6937866  23.3144264  46.2114525
   9.3473825  40.8179932   5.8566160  10.2482681  40.5412521   6.0241032
   9.1679335  41.4714203   6.5326810  75.1135788  42.2537041  73.7465439
  75.3982773  41.4413795  73.3278503  74.4165649  42.5838585  73.1796188
  78.8122025  15.5071106  71.2078323  78.7731781  16.3704815  71.6192932
  78.6100769  15.6713963  70.2867508  82.4205856  52.2265015  38.1455002
  83.1928864  52.7263603  37.8810768  82.0743027  51.8700981  37.3273964
  44.2713280  58.9244652  27.2375546  45.0130653  59.1144829  26.6631413
  43.5930443  59.5425491  26.9652729  79.4746552  20.7781944  68.4380112
  80.0168381  21.0923328  69.1616058  78.9521942  21.5384731  68.1825790
  73.9287643  47.3231735  10.9611444  74.4440613  47.5800400  10.1964741
  73.0283432  47.5525398  10.7312298  84.5767212  13.0042152  10.1443567
  84.9851532  13.3744764  10.9268694  85.3069687  12.8411798   9.5473728
  34.7215424   2.6681714  22.8240089  33.8202171   2.7083974  22.5042877
  34.9205627   3.5650244  23.0928535  28.5460529  16.3790627  55.8665161
  29.1477261  17.0410767  55.5259933  28.4110317  16.6260586  56.7813911
  31.9121914  43.3170204   5.1845145  31.9528179  42.9605103   4.2971129
  31.0123711  43.6304359   5.2757568  56.6385117  53.7850800  88.4645233
  57.2248955  53.0652008  88.6972504  55.7929230  53.3644218  88.3087921
  13.5272303  48.7691422  21.2549362  13.8467417  47.9023285  21.5054932
  13.9052992  48.9227066  20.3890762  57.7835388  25.4646034   6.7303696
  58.2365265  25.3799973   5.8913956  57.5440483  26.3899746   6.7810063
  31.1185513  43.0652771  65.8362885  31.0457439  44.0063744  65.9952393
  30.2482586  42.7205620  66.0362701  63.8727798  56.6617126  68.5710602
  64.0027618  55.7168427  68.6520233  63.3071861  56.7609253  67.8052368
   8.6984711  19.6105175  27.2142754   8.5221128  20.5513000  27.2219524
   7.9192848  19.2240219  26.8146229  60.8697205   6.2612581  37.7852936
  60.7158318   5.7691889  36.9788094  61.1568069   7.1246405  37.4879990
   1.3108984  62.0066261  71.3679504   2.0482509  62.5521774  71.0942383
   1.2469296  61.3331146  70.6908035   9.5623827  26.8333721  76.8597794
  10.1965246  27.5503082  76.8696136   9.0917654  26.9184971  77.6889420
  39.5647926  47.7641182  28.4887142  39.8879356  47.2462463  29.2260208
  40.0053101  47.3931541  27.7241478  64.7502060  43.0113335  45.9474525
  64.5800323  42.5382652  46.7619972  63.8898277  43.3241119  45.6679001
  17.1661224  56.8164711  77.0988388  16.8632584  57.6244507  77.5131760
  17.9762230  56.5997200  77.5603409  38.1387558  68.2825317  71.0252609
  38.9122009  68.7873840  70.7739944  38.2172432  68.1802292  71.9737396
  33.4355507  46.2277069  14.7445669  33.6594543  45.3989601  14.3211489
  32.5093613  46.1392136  14.9694548  73.7485046  51.7194710  35.2489700
  74.1793213  51.0532036  35.7844276  74.4348373  52.0347862  34.6609535
  21.2328110  49.2548370  13.3073492  20.9938335  48.3356628  13.4266882
  20.7403297  49.7200890  13.9835396  12.4110012  66.4771729  16.5382481
  12.9082346  65.8657303  15.9949884  12.2244463  65.9882812  17.3397560
  24.7282810  26.3509750  79.6458969  24.8554287  26.6541233  78.7469177
  25.2728577  26.9341831  80.1746140  21.7745590  68.7450790  65.4186325
  21.2076759  67.9749451  65.3766556  21.2507839  69.4491501  65.0362930
  64.7704773  45.6093330  31.2183552  65.5606155  45.9969673  31.5947304
  64.3975449  45.0878983  31.9291706  78.8754196  49.2937355  22.8609524
  78.1330566  48.9934311  22.3366051  79.2549896  48.4917526  23.2200985
  26.6384850  55.7839661  18.0648193  25.7162914  55.8476791  18.3132801
  26.9995632  55.1202507  18.6524696  49.5414543  55.5990028  78.9934692
  49.1925087  56.1522179  78.2946014  49.8214302  56.2156944  79.6698837
  47.9800034  45.2655449  57.9301262  48.9290352  45.1447449  57.8989258
  47.8618546  46.2106628  58.0251160  68.8225937  60.2150841  12.8669710
  69.3381653  61.0049820  12.7042246  69.0326004  59.9736404  13.7690992
  39.2681465  71.6996765  32.1630630  38.9128761  70.8146286  32.0812187
  38.6499443  72.1539230  32.7355309   3.0733092   3.3248394  75.3119354
   3.4722326   3.1231666  74.4655228   3.1917045   4.2692351  75.4135818
  14.9715748   1.8781724  51.0605392  14.2698240   1.9439912  51.7081871
  15.7174129   1.5311517  51.5499611  70.1515045  36.0650482  37.0353470
  70.4676208  36.9172325  36.7352066  70.4345016  35.4520645  36.3568230
  22.2228470  19.3082256  55.3799019  22.2483730  19.9945011  54.7131119
  21.3732586  19.4201488  55.8064003  54.7502098  60.1999321  45.6615524
  55.5708466  60.0862541  46.1409950  54.9248123  59.8290405  44.7965775
  57.5642052  23.4851780  80.9037781  57.6561623  22.7992516  80.2425079
  57.4356461  23.0104923  81.7249832  22.4382133   2.3628364  82.2585983
  22.4959621   3.2736001  82.5474014  21.6372013   2.3276980  81.7357483
   9.7033873  35.9840202  38.3031120  10.3112907  36.5616379  37.8415451
   8.9067488  36.5052223  38.4028511  42.7121620  52.7924805  22.4515076
  42.2198334  53.5841637  22.2345219  42.1560211  52.0742950  22.1495934
  82.4339066  11.9999046  73.2784958  81.9148865  12.3948450  72.5778732
  83.1586761  12.6105175  73.4130173  10.7268114  45.0524979  73.5384369
  10.0771780  44.3731689  73.3575668  11.3582621  44.9766006  72.8230820
  76.2007294  57.9771500  14.6190453  76.1985550  57.6664886  15.5244274
  75.7360001  58.8133316  14.6516247  46.3781853   2.2226126  51.6538162
  46.2238998   1.8899878  52.5380058  46.5407677   3.1581104  51.7748222
  27.8947487  15.2732077  70.2568741  28.3505898  15.0677824  69.4406433
  27.5759964  14.4276419  70.5725479  79.1233063  68.4181442   4.9587517
  78.7201538  68.9673233   5.6311364  79.5282364  69.0391922   4.3533134
  78.1505280  58.3793030  30.1779861  77.6931534  58.8098869  29.4557438
  78.8548813  58.9844666  30.4101543  33.5098343  45.6729851  26.7313957
  32.6694679  45.5746956  26.2837811  33.7558060  46.5857925  26.5813446
  77.5710983  30.8847313  62.9371376  76.7528915  30.6956596  63.3965111
  77.9039764  30.0256844  62.6773987  61.2970390  42.9373283  30.3921604
  61.3561440  43.7728882  30.8553867  60.4195137  42.9369850  30.0098286
  59.9458847   5.1643171  67.5964508  60.1207008   5.0211496  66.6663055
  60.4291039   4.4677944  68.0409622  44.2503853  53.8256760  82.4102020
  43.7897873  53.8344498  83.2492447  45.1375198  54.1169243  82.6209106
  26.1419773  62.9150658  78.2353363  25.3433304  62.9363289  78.7625427
  26.8396072  63.1481133  78.8479004  53.4555626  10.6522465  43.4876671
  53.0151138  10.8329687  42.6572609  54.2143669  11.2357264  43.4882622
   1.7156850  57.0328636  71.7425385   1.8937336  56.2678986  72.2896729
   1.6589948  57.7614975  72.3606949  54.2746506   5.1614676  82.1949539
  54.5398750   6.0763278  82.2893906  53.3243866   5.1976342  82.0857468
  83.1265945  59.1789818  48.3575287  83.4292679  59.1557617  49.2653198
  83.8310013  58.7642136  47.8595161  53.8623047  29.9160194  58.2036285
  54.5276070  29.3196869  58.5471306  53.4390526  29.4232826  57.5005608
  29.2169399  48.1781921  65.3114014  29.4393749  48.8341255  65.9720917
  29.8490753  48.3233681  64.6074448  79.5151443  19.4480400  26.4480190
  79.6949997  18.5567799  26.7472534  78.9487762  19.8182869  27.1250515
  33.6320953  65.4754105  48.4670906  33.6533623  64.6718216  48.9867210
  34.3336830  66.0149841  48.8316002  57.2852058  46.2087479  70.5921478
  57.2829208  47.1658783  70.6036758  56.5567513  45.9606247  71.1613770
  40.2171059  48.8277206  88.7892151  40.1365471  49.6152039  88.2510605
  39.3187981  48.6209793  89.0471725  25.4134521  50.0227394  42.5727539
  25.0510349  50.6608353  43.1873436  26.3589745  50.1679153  42.6065598
  78.3746033  12.7706022  78.0679092  78.2110672  12.7849531  77.1248932
  79.0968170  12.1518316  78.1763611  51.8525620  31.5076447  29.4879761
  52.5293961  30.8364277  29.4008274  52.1205215  32.1981316  28.8816299
  10.1294260   4.9005003  64.9513855   9.4447079   5.5502157  65.1103287
  10.8898458   5.4151692  64.6809998  22.0482235  70.2231674  69.4301376
  22.7625790  69.7073441  69.8041000  22.3294926  71.1322327  69.5337067
   3.2062006  38.7338219  84.4549179   3.4708030  37.8491898  84.2026443
   2.2601871  38.6722908  84.5872269  40.1305962   7.1169667  16.6071758
  40.0950851   6.4071894  17.2484150  40.6205826   6.7504554  15.8710976
  82.0691376   7.1589546   6.4798274  81.9392166   6.6509171   5.6790452
  81.2449570   7.6305037   6.6006699  67.3311691  10.9097757  69.3714981
  67.7987061  11.7436962  69.3244247  68.0150299  10.2462902  69.2801056
  86.2395248  25.8090630  40.0890694  86.9648132  26.3327980  40.4294930
  85.6440735  25.7128239  40.8323135  26.7854271  52.5693893  39.4209557
  26.0585518  52.5680771  38.7981529  26.4428787  53.0284195  40.1878853
  66.6777954  57.4136581  78.8319702  67.3848495  56.7912788  79.0021286
  66.2318954  57.0644760  78.0603027  50.5435677  69.8678055  88.0456390
  50.7604103  69.7615051  88.9718704  50.7507133  69.0200806  87.6523361
  62.7611923  42.6220932  57.7132187  62.8271675  43.5760918  57.6712151
  63.3779182  42.3693771  58.4002533   7.9173150  25.2070618  68.8779907
   7.1588974  25.1170101  69.4549866   8.3516979  24.3550701  68.9186478
  84.2231293  70.9764862  45.0583153  83.8816757  71.5711212  45.7261810
  84.8075409  70.3887405  45.5371246  75.1934662  19.6046982  43.0335655
  75.4862213  19.2500381  42.1940765  74.9096832  20.4961567  42.8310814
  48.6582489  41.9378242  28.6583710  48.7563553  41.9793701  29.6096230
  47.7375259  41.7144012  28.5220757  62.4592476  55.7974472  14.6942987
  62.6454811  56.7269440  14.8269291  61.5553818  55.6896553  14.9903374
  85.8142548  58.1742210  11.2545662  86.1098022  57.2688980  11.3508720
  86.3080750  58.5090408  10.5060539  68.7564392  38.9899292  28.3848724
  68.3763199  39.6540108  27.8097744  69.6596680  39.2773170  28.5183754
  30.8133602  68.5322418  29.4666901  31.4358215  69.1766739  29.1298237
  30.1124020  68.5129547  28.8151398  61.5638237  18.4194355  84.8997421
  61.6402550  18.8862019  84.0675659  61.8858719  19.0404129  85.5531158
   3.8937418  65.1747055   3.0913799   4.7031574  65.1918640   3.6020501
   3.8651390  66.0282593   2.6591012  12.7500973   8.5013351  16.9069576
  11.9139767   8.8739071  16.6270943  13.3367682   8.6447601  16.1643410
  21.9169006  53.6241150   8.2299557  22.5075989  52.9014359   8.0177240
  21.0933971  53.1982880   8.4681664  73.7348022  25.3961182   2.4597530
  74.1314087  24.6134052   2.0772738  74.3258057  26.1081467   2.2148952
   3.9587488   2.4233983  80.0803757   3.8275979   2.1016543  80.9722900
   3.1977034   2.9789464  79.9118347  41.1372871   7.2144332  75.7323990
  41.7730217   7.5089326  75.0802155  40.5874481   7.9810815  75.8941422
  65.7959290  13.1543531  15.6388865  66.1474228  12.9591722  16.5075588
  66.5180817  12.9642839  15.0400534  52.2243462  64.0757217  48.7088814
  51.9076424  63.3674240  49.2694550  53.0329132  63.7350502  48.3262711
   8.9645185  52.3648872   7.9633865   9.7797709  52.7779121   7.6787729
   9.0548334  52.2859459   8.9130411  65.6927032  27.5029678  85.6165695
  65.4182281  28.0683479  86.3385391  65.1748352  26.7055130  85.7266312
   4.0161104  48.2742577  22.7661781   4.1972313  47.4480972  23.2143879
   4.6116848  48.2757912  22.0168324   4.4219923  15.8705511  67.3843460
   4.2155814  16.1394310  66.4891739   5.3784080  15.8784037  67.4222794
  65.7388000  56.2044334  12.0913115  65.0617828  56.4499054  12.7218866
  65.6193161  56.8132858  11.3624372  47.7529907  29.7453918   0.2862952
  48.1488953  29.7160797  -0.5846995  48.1299782  28.9952717   0.7461124
  12.7320032  21.4517727  65.8389511  11.7886915  21.6111736  65.8703461
  13.0375681  21.9686241  65.0934830  43.8493843  14.9138126  73.1298141
  44.6118431  14.6888494  73.6629944  43.7846031  15.8666258  73.1944809
  75.5896149  58.0869446   9.7445555  75.3699417  57.9995270  10.6720963
  76.4899063  58.4120483   9.7412491  13.0439310  43.4439049  33.5196075
  12.0994673  43.2896385  33.5401649  13.4285746  42.6118584  33.7952499
  82.5889359  61.3195839  14.8338203  82.9023514  60.9303474  14.0174284
  81.8309097  61.8431549  14.5740032  76.2422180  62.8130875  54.9291496
  75.6323929  63.5435677  54.8254814  77.1038666  63.1947746  54.7615242
  74.3497772  24.8021603  25.0831470  73.9045486  24.5758724  24.2665730
  74.5341187  23.9589901  25.4970531  11.3198910   2.8723712  39.8045769
  10.3941708   3.1132236  39.7690125  11.3240805   1.9210179  39.6990242
  79.8607178  59.1917572  21.9104347  79.5991440  60.0759697  22.1673012
  79.4557037  58.6225624  22.5648117  68.0594254  46.1945534  45.4617424
  67.8188095  46.5706520  46.3084335  69.0165253  46.2078400  45.4570618
  59.0101891  56.6070633  33.1973953  59.2586021  57.2802696  32.5639038
  59.0214157  55.7912865  32.6967773  86.0798187  23.9042587   1.2207072
  86.0126572  23.4483891   2.0596976  87.0159454  24.0732346   1.1141943
  64.9593277   9.6018324  60.8497849  65.4182968   9.5146456  60.0143356
  65.6550522   9.7446432  61.4915047   0.5037936  59.4753113  17.0871620
   0.7096815  58.5761757  17.3428860   0.4372713  59.4436302  16.1328030
  73.7307129  60.0419960  57.9004250  74.0087204  60.8146477  58.3923111
  74.0091324  60.2173424  57.0015526  77.5794601  13.9755249  15.4586210
  77.8796539  13.3337603  16.1022434  78.2896957  14.0231924  14.8186798
  42.9985008  40.3294563  38.7915192  42.3195686  40.8084183  39.2667885
  43.2779465  40.9313889  38.1017227  50.9048119  70.6561813  19.9956398
  50.2167473  70.4440002  20.6263351  51.7172089  70.5963287  20.4982929
  15.8749294   1.2751185  34.7449722  15.8034143   0.4515417  34.2624359
  15.0030441   1.6653104  34.6833382  75.6953125  44.0754890   7.6726251
  75.7316971  43.1192245   7.6943741  75.6610336  44.3348694   8.5933733
  69.6292267  53.3411865  14.8635569  70.2000122  52.7256126  14.4036627
  70.2292557  53.9674454  15.2685223  78.7471237  64.7381973  77.3232803
  78.3923035  64.2124252  78.0401459  78.3310623  65.5941772  77.4253387
   8.1550579  31.6626225  23.0028820   8.9727669  31.2196407  22.7762718
   7.5406013  31.3956585  22.3192101  47.2661552  45.7204475  20.8707447
  47.0466232  45.2724266  20.0538502  46.7860107  45.2390099  21.5444717
  69.9493408  16.8701115  36.6121826  70.8913193  16.7717590  36.4734688
  69.7078552  17.6317310  36.0850677  61.8053093  53.4669418  55.7133408
  61.7359695  54.0311661  54.9432259  62.4225845  53.9202385  56.2875595
  17.4376564  21.3285389  22.1825790  16.7837944  21.4235039  22.8751659
  17.7666550  22.2161179  22.0404606  73.5224838  11.4250269  18.7653446
  73.7647324  12.2811880  19.1182404  73.6082153  11.5238295  17.8171272
  30.5545769  15.3431110  74.0238037  30.7800198  16.0265541  74.6549225
  29.8751278  15.7370586  73.4766388  37.4333076  56.8010216  79.8665466
  37.0442390  56.1196632  80.4148254  37.6189575  57.5187340  80.4720612
   0.9420481  30.7568455  67.1013031   0.7859062  30.1799889  67.8490295
   1.4808732  31.4651775  67.4536819  83.2932053  55.1522141  20.6128750
  82.8622055  54.4323235  21.0735550  83.2474976  55.8884239  21.2229042
  84.4529724   4.8096838  41.0143623  83.6418152   4.3495412  41.2300644
  84.1871643   5.4828053  40.3878708  17.1517067  15.6246786  78.9728394
  16.2101841  15.4747791  78.8874283  17.3350525  16.3456879  78.3705444
  77.8402405  64.7529755  27.2474670  77.4645691  63.9382172  26.9138870
  78.4227753  64.4761734  27.9547615  33.8863983   7.1275778  81.7352905
  33.3705025   6.3665404  81.4690094  34.1919632   6.9132819  82.6167297
  49.2324066   6.0859070  47.5239868  49.4383354   5.3720694  46.9204445
  48.8179550   5.6553340  48.2716942  20.5936432  12.7649746  18.1098042
  21.4205189  13.1523771  17.8227005  20.8534203  12.0400887  18.6783886
  86.1772614   8.6289358  10.1202679  85.3166656   8.3041296  10.3850412
  86.5333710   9.0353155  10.9103775  76.2175369  60.2909355  70.5206680
  75.9139252  60.2118568  69.6163483  77.1710739  60.3358231  70.4501266
  72.1138229  38.9627876  16.5111713  71.3159103  39.2462311  16.0648193
  72.3711700  39.7158966  17.0429897  45.6038055  71.3515549  47.9742012
  46.2410316  71.6627274  48.6171188  45.9014969  71.7219315  47.1432800
  71.9196625  53.3990784  78.7669449  71.8014145  52.5040970  78.4487305
  71.5058365  53.9470253  78.1000595  82.1572266   3.7065778  75.2969666
  81.6214066   2.9134016  75.2956848  82.0089798   4.0943689  76.1594467
  59.6221809  31.5746269  19.0519981  60.4808235  31.9845295  19.1566257
  59.0522385  32.2846260  18.7565365  31.4080601   3.3907785   5.9123359
  31.8463535   3.7591672   6.6794219  30.5739784   3.8580656   5.8656244
   5.6500278  55.5867310   0.2133314   4.9644632  56.2045441   0.4673820
   6.1849828  55.4855270   1.0006135  19.0974693  62.2267189  70.8557281
  19.2719097  61.3873291  71.2814331  19.5856171  62.8650513  71.3758011
  66.1949234  20.3298969  55.5284004  67.1179504  20.1107407  55.4009933
  66.0467758  21.0838757  54.9576149  48.8996964  10.7218590  85.4468613
  48.4831161  10.6315813  84.5898056  49.6647491  10.1482744  85.4029160
  12.0778542  60.8804703   3.5498693  12.1595507  60.8653412   2.5962820
  11.6243753  60.0652542   3.7643716  53.5441742  46.8691826  38.8243294
  53.7729073  46.6026001  37.9339104  53.4495163  47.8202934  38.7727356
  30.1749401  57.1734886  83.3125687  29.7902679  57.7924500  82.6919632
  30.7629700  57.7057877  83.8483887  74.5007782  70.1416016  12.3477516
  74.0215454  70.4735947  11.5885763  75.1364517  69.5276794  11.9799910
  27.6686077  58.1364098  17.4112816  27.2897186  58.2344856  16.5377502
  27.4512253  57.2400932  17.6673927  82.6975098  22.3554001  84.3737717
  82.0293961  21.7857361  84.7550049  82.4826965  23.2288589  84.7011185
  11.7857256   1.2610502  69.4547653  11.1199245   0.9888762  70.0863190
  12.1045465   0.4422874  69.0750122  14.3451338  53.6073761  65.3474426
  13.7940388  52.9676781  64.8965378  14.1592607  54.4365196  64.9067612
   9.9142132  43.6093102  51.2494812   9.4763460  43.5075111  52.0945511
  10.6607389  43.0117874  51.2930183  86.5086746  33.8977737  15.1105404
  85.7228546  34.4442787  15.1177034  86.6138306  33.6414909  14.1943016
   8.0466480  69.3107376  40.5293579   7.4576430  68.9847794  39.8488731
   7.7114029  70.1824875  40.7388687  23.9382401  41.6602097  88.6205292
  23.1907139  41.3023872  88.1415710  24.0956421  41.0304642  89.3240051
  79.5369949  65.7552643  88.1731873  80.4280243  65.9558716  88.4596405
  79.5258636  64.8032608  88.0741806  50.8888321  15.7014046  74.9479904
  50.8304825  16.3290291  74.2276382  49.9919510  15.6269121  75.2740021
  34.0292511   1.6012889  64.2006454  34.8043098   1.9450923  63.7564430
  34.3772354   1.1190875  64.9507217  65.2765579  38.0050507   3.4936051
  65.5264664  37.3777809   2.8151436  64.9230728  38.7520714   3.0106559
  69.9041367   0.1365108  53.2679214  69.3837357  -0.0934448  54.0376816
  70.1637115   1.0456750  53.4171753  29.9680367  53.4441795  34.7425690
  30.2376289  52.7680016  34.1210136  30.7520142  53.6164589  35.2640381
  65.9000320  17.2820625  11.6655207  66.3698807  17.7830505  10.9988232
  66.2859116  16.4070835  11.6238441  35.7182541  49.6563759  81.1908493
  36.4452171  49.2086983  80.7580185  35.6428032  50.4917870  80.7297363
  55.3956566  12.6245775  37.2964325  54.7207909  12.2676487  36.7190399
  55.4170113  13.5591822  37.0907898   0.3204716  63.9331131  34.2210274
  -0.5224270  64.3221664  33.9878006   0.8182679  64.6537857  34.6071129
  30.1337261  68.8782654  61.8693352  29.4159775  69.2442703  61.3525124
  30.6738873  69.6345673  62.0983772   7.2503495  43.2847328   7.0790110
   8.2074766  43.2747993   7.0725746   7.0169973  43.2784576   8.0073099
  81.2766495  29.2237186  30.4665737  80.9047241  29.3349018  29.5916214
  80.5275803  28.9988213  31.0184345   7.1421118  58.1294365  15.7813768
   6.9726357  58.3794632  16.6896706   7.1083870  57.1728439  15.7859993
  40.5916290  51.5535278  71.5668411  41.3099709  51.8774147  71.0234146
  39.9043808  52.2132263  71.4734573  80.6712265  22.8780880  69.9591370
  80.1647568  23.5502739  70.4150848  81.3537521  23.3647423  69.4970169
   0.0607971   2.4495361  60.1380653  -0.2588968   2.3974912  59.2373352
   0.7871436   1.8269743  60.1707649   9.5421362  41.3172073  13.2754087
   9.0293140  40.7241745  13.8245525   9.4838333  42.1639748  13.7179174
  81.4313431  24.0563183   9.9619436  82.2946243  24.3678513   9.6900434
  81.4691010  23.1078854   9.8383255  86.2385178   4.5039811  18.8092289
  86.2256165   3.6853056  18.3134117  85.3512497   4.5862865  19.1588078
  35.1466904  29.6876316  13.6597795  34.6977348  30.5020409  13.4330473
  35.6751099  29.9107628  14.4260817  47.2551193  -0.2662697  31.3107319
  46.3410568  -0.2765071  31.0268059  47.3985748   0.6267089  31.6241684
  84.6452408  44.7830315   2.1127594  84.6350937  45.1050949   3.0140944
  83.7212448  44.6828575   1.8837929  25.9801998  64.0548782  50.4192886
  26.5047817  64.8152237  50.1684494  25.8319530  63.5849152  49.5986824
   7.8701940  43.1377487  60.5675430   6.9545174  43.3339691  60.7656975
   7.9144506  42.1815872  60.5619049  69.1323624  33.0646706   0.8094817
  68.5656586  32.3614731   0.4923169  69.2474899  32.8777046   1.7411580
  27.7982235  61.5240021  57.6960068  28.2880154  62.2503929  57.3103981
  27.4148560  61.8900032  58.4930649  36.0560074  18.8791733  85.8085938
  36.7734184  19.2695351  86.3077698  35.3507118  19.5243950  85.8583908
  28.8208084  48.9555969  52.9659195  27.9197369  48.8309631  52.6679802
  28.8139114  48.6648865  53.8778801  23.6900520  43.8458023  64.9713211
  23.5588684  43.5392723  64.0740662  23.3010349  43.1624641  65.5171661
  10.8682337  24.4131088  76.5396729  10.8727551  23.9837303  77.3951492
  10.3972187  25.2334690  76.6859207  67.8610229  19.0392170  10.1785097
  68.4269409  19.1289997  10.9452600  68.4281921  18.6641445   9.5048113
  69.3111115  11.5295515  83.5265427  69.8523865  11.2151413  84.2507019
  69.7704239  12.3045826  83.2031403  22.0884342  32.4641075  20.7591286
  22.6042709  33.2682228  20.6995773  22.2755527  31.9985924  19.9439526
  54.5510330  40.9024353  71.1554031  54.8690529  40.9152527  70.2526703
  53.7062149  41.3509102  71.1181183  40.2069206  58.4269943  78.6537857
  40.7464371  58.3386574  79.4394989  39.7573013  57.5855408  78.5761261
  73.7678757  42.8961143  40.6172791  74.2301941  42.2363777  40.1003227
  73.0985718  42.4029045  41.0916328  66.3710709  52.8539505  52.0987740
  66.5969696  53.3448219  52.8888702  65.4709625  52.5636559  52.2463112
  49.1247787  39.2687950  46.0190697  48.7586784  39.6744728  45.2331734
  49.3723068  38.3871536  45.7403793  32.9240570  30.1143494  15.4490461
  33.8209190  30.4154701  15.5946321  33.0137215  29.3790359  14.8428221
  59.9934540  42.6813049   0.4166955  60.2901077  42.7535439  -0.4905043
  59.2071457  43.2257614   0.4556404  62.2795677  62.6207657  88.4705429
  62.2391586  62.6388626  89.4267197  61.7121964  63.3400688  88.1931839
  73.9261703  34.2879143   2.1854596  73.3192673  34.9881096   1.9454045
  73.8739700  33.6663284   1.4594147   3.8458793  16.3593731  43.3379822
   3.8773134  15.6054554  43.9269218   3.0544176  16.8319302  43.5958824
   9.4096584  11.6272821  77.4829178  10.2217913  12.1149225  77.6203232
   9.6430254  10.9462318  76.8520966  59.4023132  39.1588631  10.1385527
  58.7016411  38.7223129   9.6540804  59.9449654  38.4439316  10.4711742
  50.3521690  58.0553093  80.5596771  50.7459297  58.5195351  79.8209839
  50.2232094  58.7306137  81.2256851   1.9844489   6.4898133  54.2590714
   2.0805540   5.5441666  54.1461639   2.8740482   6.8327966  54.1741753
  62.8684273  18.2739429  74.5604630  62.5425758  18.8960247  73.9100266
  63.7584229  18.5705090  74.7507095  57.1537552  41.1630249   9.7747517
  56.2248116  41.0866890   9.5568876  57.1669922  41.6445999  10.6018810
  51.0530319  41.7538452  38.5068588  50.5894089  41.9028549  37.6827927
  50.5013466  42.1681404  39.1703606  44.0974350   8.4785538  23.1535587
  43.3718987   8.4439697  22.5301533  43.8739853   9.2002382  23.7413311
   2.5097415  43.6029205  41.2032547   2.0370817  43.4536438  42.0221214
   3.3421934  43.1451569  41.3203354  77.7415314  51.3812523  46.3352089
  77.2286148  51.1144600  45.5723419  77.3461380  52.2076759  46.6125565
  44.8183365  38.0910606  14.5955782  45.1507492  37.6596642  15.3827448
  44.4930229  38.9364357  14.9050055  33.5364647  26.6967812  80.0321503
  33.4219437  26.4397449  79.1172485  33.7462006  25.8804359  80.4858322
   9.6648874  53.1148987  37.4968605   9.0771751  52.4521866  37.1340370
  10.4477997  53.0668869  36.9482498  83.8114929  36.7299042  29.7275543
  83.4351807  36.0268326  29.1981106  84.2578506  37.2931747  29.0953197
  63.3342171   0.2232216  68.1280136  63.4630966   0.8058202  67.3795471
  64.0258865   0.4669839  68.7431641  49.5653191  37.0931053  79.8105392
  48.9520950  37.0739288  79.0758133  49.8405533  38.0080185  79.8689728
  30.0631485  48.2545052  60.7000542  30.3989639  47.4963264  60.2219048
  29.1863804  47.9918365  60.9802551  66.8455353  56.0418472   6.8244314
  66.0399246  55.5709114   7.0376191  67.3134079  55.4580193   6.2273793
  52.1504097  38.2987213   7.8856878  51.6192398  38.1132851   8.6600943
  51.7692146  39.0966148   7.5192380  53.4672623   0.6512654  58.6770935
  53.4444580   1.3968455  59.2769470  54.3516922   0.2969037  58.7689743
  19.3961792   7.4427752  15.4977999  19.1296597   8.3445244  15.6768188
  18.7981682   7.1481514  14.8109140  51.1354103  27.4614868  11.7919168
  50.7892761  27.0422421  12.5797338  50.5917473  27.1216164  11.0811787
  21.7914619  61.1183853   7.4721518  22.5571213  61.3023491   6.9279518
  21.1124249  61.7031708   7.1357508  66.6438522  61.1662521   5.2191248
  67.4463654  61.6753616   5.1050429  66.1353912  61.6613503   5.8614478
  72.3347092  67.2925415  33.9497070  72.3374023  66.4013748  33.6003494
  71.5003204  67.3656387  34.4130478  54.6395340  63.0565376  31.4343281
  53.6882706  63.0336113  31.3303986  54.7845268  62.8522949  32.3581772
   9.1056805  16.1068745  62.0464630   9.4807310  16.9140320  62.3986969
   8.2258110  16.0680714  62.4213753  48.2613907  39.7649498  53.8199501
  48.3631935  40.2957230  54.6099777  49.1336479  39.7521477  53.4259567
  80.9728546   7.8605828  35.3920784  80.1096039   7.6603479  35.0302315
  81.5216370   7.1234279  35.1243629   3.3454792  63.8660774   5.6172223
   2.4683287  63.5172691   5.7758813   3.2472668  64.4171371   4.8407412
   3.5332885  24.9892368  21.4597664   4.4323940  24.9432526  21.1346111
   3.0460892  25.4191265  20.7568703  82.4918594  31.2696724  74.7955170
  82.8991165  31.9185448  74.2216339  82.1409988  31.7812805  75.5244751
  38.1095200  45.9322662  65.0201569  37.9502945  46.3263359  65.8778152
  37.9864349  44.9935646  65.1613007  81.4528961  24.2826672  40.4318619
  81.8902817  24.9224777  39.8701057  80.8064880  24.7937946  40.9188271
  81.9348602  71.1545258  56.7911224  81.2834930  71.2046432  57.4907188
  81.4240799  70.9819183  56.0002136  16.2320099   0.9714713  72.6568222
  15.3375025   1.0055814  72.9958267  16.1342411   1.0837703  71.7112732
  80.8445053  11.3063908  77.4683685  80.5652771  10.9809017  76.6126099
  81.7231064  10.9454823  77.5868607  16.2702179  52.2979774  63.3935242
  16.7386703  52.8256760  62.7467499  15.6436291  52.9041405  63.7887230
   3.8143942  28.8276901   7.7516170   4.3828683  28.1225262   7.4420791
   4.4125333  29.4605408   8.1490602   8.2284842  70.0172577  57.3100777
   9.0833607  69.7621765  56.9631577   8.0956640  70.9088364  56.9880867
  82.0833130  63.0448227  32.7968407  81.5861664  63.8401299  32.6056252
  82.2685318  62.6657600  31.9376335  69.3706818  45.0574341   2.8114305
  68.5035934  45.4239044   2.6379669  69.3915176  44.9300919   3.7598932
  79.5242996  33.9768867  60.6055679  80.0710678  33.6498947  59.8911743
  79.5948257  34.9295273  60.5444183  55.7629662   4.4193611  27.9387226
  55.2770500   3.6081920  27.7899799  55.9320297   4.4279618  28.8808346
  32.1840706  70.8706360  31.5716534  32.7375565  70.5035934  30.8823338
  31.3667870  71.0967255  31.1276226  77.5347290  16.3061790  40.6239853
  77.1859207  15.8089228  41.3637848  77.7742310  15.6402836  39.9794273
  10.3299341  43.2865562  33.5190048   9.9292831  43.0854034  34.3647270
   9.6133089  43.2068176  32.8894653  24.7842808  39.5944824  38.3488007
  24.5919838  40.0827904  39.1493073  25.6724529  39.2620087  38.4785767
  63.2605858   0.2907688  57.6326065  63.1182289   1.1767315  57.9658279
  63.1782379  -0.2710593  58.4031906  56.5553093  29.5571098   6.2033615
  57.1600533  29.6211414   5.4641609  56.9602509  30.0861931   6.8906221
  34.6999779  11.0805321  77.2363892  35.3347740  10.6550255  77.8127594
  34.8478394  12.0171480  77.3672256  64.8639526  50.4974327  56.6864548
  63.9539413  50.5851517  56.4028664  64.8749466  49.6976242  57.2122078
  74.0952835   6.7794857  43.0503464  73.6402512   6.0563188  43.4818649
  74.9971771   6.7166500  43.3647957  59.5234222  20.1436405   1.4744213
  58.9961090  20.9286556   1.3263608  59.7583466  20.1842461   2.4014554
  55.9604378  25.7052937  54.3711815  56.4170609  25.7692719  53.5323524
  55.6676979  26.5982590  54.5532455  32.3936081   2.7384908   3.3409808
  31.9423103   2.8064063   4.1823792  33.0956001   3.3871548   3.3926709
  43.8207741  13.6484041  76.8258133  43.6776276  13.1752758  77.6455002
  42.9594383  13.9979668  76.5974731  29.0865231  46.9228706   9.7301970
  28.7949467  46.9854736  10.6397552  28.4773979  47.4790916   9.2445889
  36.4078026  26.4490681  83.0238419  35.9856186  27.2750092  83.2600937
  36.2993736  25.8949738  83.7967911  63.5868416  66.5706558  11.4081984
  64.4827271  66.6636581  11.0842104  63.5568542  67.1209106  12.1908550
  23.8177929   2.0189736  87.5015640  24.3717403   1.3231126  87.8553314
  24.3248863   2.3832669  86.7760468  32.9856186  18.4135780  72.5872269
  32.4817543  18.8083591  71.8755341  32.7347755  18.9132824  73.3641434
  76.8514862  57.4410286  45.8219986  77.7204895  57.0490837  45.7356682
  76.7586365  57.6137428  46.7588997  46.8162079  55.2575684   9.1656113
  46.5502548  55.3893051   8.2555866  47.4626122  54.5526810   9.1265879
  62.2645836  49.2411995  55.3743095  62.2035675  48.4377480  55.8910065
  61.4443169  49.7020645  55.5503769  18.1677952  53.8495750  83.6669312
  17.9328136  52.9497185  83.4405060  18.5764179  54.1971283  82.8741760
  62.1514206   6.0404224   8.6000242  62.1063271   6.8768234   8.1367407
  62.6252708   6.2391863   9.4076071  81.0667343  55.5518761  16.2041283
  80.9328690  56.4644585  16.4600677  80.7938309  55.0459633  16.9695129
   1.5152094  13.8668280  84.5094986   0.8255218  14.3149242  84.0198288
   1.9965625  13.3717117  83.8466339  58.5852432  18.3485012   5.9069371
  58.8756599  18.2619343   6.8148990  57.6486130  18.1531906   5.9354038
  85.6712341  70.3223190  73.4019547  86.4771500  70.2705002  73.9158020
  85.7781143  71.1091995  72.8675079  63.9346085  16.6593513  43.0547600
  64.5326691  17.2119408  43.5579414  63.8299065  15.8717279  43.5885391
  15.4992371  28.1585579   0.7551365  14.7930155  28.7976952   0.6603395
  15.5723696  27.7525539  -0.1086018  22.6961460  67.3634033   0.9570690
  22.2066116  67.5804138   0.1636607  23.5452099  67.0571823   0.6383977
  72.8650970  58.9978218  31.4580421  73.4655914  59.3858604  30.8216000
  72.9110260  58.0569725  31.2879601  42.2560463  54.8394775  52.3978119
  42.1508980  55.4752655  51.6900368  43.0994225  55.0590782  52.7936974
  42.1934967   2.4900591  38.9529114  41.2637978   2.5214417  39.1785393
  42.5859528   1.9395164  39.6304893  26.7370510   3.1053493  44.0792770
  26.7924156   3.1353817  45.0344048  25.8928795   3.5079513  43.8755188
  80.1867752  57.2323418  76.0104141  79.4126434  56.7783623  76.3433609
  79.8536453  58.0706940  75.6903763  39.5252342  63.7778053  23.6810417
  40.2803230  64.3639908  23.6314850  39.2781258  63.6278648  22.7685261
  59.4707336  53.5981941  47.3770905  59.8925858  54.3979874  47.6911049
  59.3544235  53.7416458  46.4378738  48.8707809  10.5796404  18.6969433
  48.0652809  10.7953472  18.2269726  49.3607979  11.4015179  18.7221317
  52.7571945  57.2115974  79.0479736  52.5870209  58.0553627  78.6292496
  52.9330673  56.6144943  78.3208084  56.3384972  10.7082920  84.2927094
  57.1164360  10.8523178  83.7539062  56.4679947   9.8394499  84.6729355
  53.9682961  30.3127079  81.8604736  54.5945358  30.7174377  81.2602615
  54.1864166  30.6794281  82.7173080  84.4650421  16.7092724  36.4661751
  84.2573624  15.9302597  35.9501877  84.6117401  16.3776951  37.3520470
  47.7957344  20.1068382  84.7262421  48.1059799  20.8898945  85.1809998
  46.8741379  20.0349255  84.9746704  85.6748199  45.3952522  46.0089417
  85.9974976  44.5314751  45.7520256  86.2022858  45.6306877  46.7722130
  47.3626823  48.5962448  49.3068123  46.9091187  48.4795074  48.4720192
  47.5948372  49.5246773  49.3254738  82.7618179  58.3787880  59.5152626
  81.9916229  58.8306313  59.8600426  82.4043121  57.6814041  58.9656487
   3.3241665  49.2951317   6.9730182   3.1706364  49.9597321   7.6445580
   2.5945423  48.6832466   7.0703745   7.6483808  13.5221252   8.1015081
   7.5617776  13.9494305   8.9536476   8.2454844  14.0863409   7.6102242
  71.5175629  17.9507866   5.7777748  71.0261383  18.5395279   6.3505907
  71.7435074  17.2068043   6.3360486  83.3838730  70.3530579  62.2597046
  82.8216019  71.1160507  62.1258354  84.2315674  70.7210388  62.5091591
  35.4786530  66.2748947  20.3700390  34.7055511  66.1965408  20.9289684
  35.7155724  67.2011032  20.4174099  25.9274158  26.9582977   0.7307643
  25.3551216  27.0259399  -0.0335231  25.6524658  26.1508694   1.1651533
  45.3383675  27.3531418  67.5786133  45.8284683  28.0183525  67.0953598
  44.4243507  27.5094166  67.3411713  52.3342209  32.9721413  55.2409134
  52.7422676  33.6554375  55.7727394  52.0931091  32.2915230  55.8692894
  50.4917679  44.1311531  26.7758045  49.9815178  43.3446693  26.5826244
  51.0192833  43.8931427  27.5382423  30.7152805   2.9240973  71.4568558
  31.1747780   2.3264985  70.8669662  30.9699879   3.7974412  71.1591568
  31.2873344  43.2838821  27.3734665  30.4351139  42.8571510  27.2848396
  31.9224777  42.5794563  27.2446022  61.8472404  39.0309334  16.2451286
  62.1543541  38.3713646  16.8671284  60.9807739  39.2790527  16.5674706
  78.2440033  71.0923080  34.6202507  78.1082535  70.1447830  34.6190796
  77.9977341  71.3684540  35.5030479  33.6791153  42.4138336  53.4255066
  34.5914421  42.6919060  53.3444557  33.3001556  42.5811729  52.5625954
  32.8336449  44.3708534   0.4370366  33.2511063  43.9867592   1.2080300
  33.2551346  43.9368706  -0.3047422  26.3327026   2.2960300  15.3690758
  27.2001324   2.6802182  15.2418175  26.4459572   1.6846352  16.0968132
  56.4856873  33.3845367  72.3551407  57.4207382  33.1802368  72.3419647
  56.3809471  34.0698853  71.6951675  72.2289429  43.4683685  80.7489395
  71.7634201  43.9059639  81.4617004  73.0677719  43.2122765  81.1323776
  20.0363274  35.0579796  20.6264000  19.8660908  34.1327896  20.4495430
  19.1708679  35.4667892  20.6171646  83.3188782  70.1076889  25.4605598
  84.2431793  69.9420242  25.2749252  83.0442810  69.3618164  25.9939480
  21.0542088  32.8931999  12.0189333  20.9831753  32.2147751  11.3474226
  20.1508141  33.1643791  12.1819344  21.5656528  49.7992477  64.4891586
  21.3235836  50.5011330  65.0933075  20.7355881  49.3774185  64.2671585
  53.7756805  42.7939987  51.9509277  54.7233887  42.7563477  52.0800247
  53.6599655  42.7219200  51.0034866  47.0616875  53.7795792  27.9890099
  46.8880157  53.1700249  28.7063046  47.0533752  54.6433487  28.4014053
   6.9755583  42.2887001  18.8327484   6.5583534  41.9701576  19.6331882
   6.6343312  43.1760788  18.7216129  35.0625458  62.0488052  40.3468246
  35.9826431  62.1940575  40.1264763  35.0537148  61.2013359  40.7917404
  77.5778046  52.7870636  77.3498383  76.6625137  52.7820663  77.0697403
  77.9920578  52.1006393  76.8269196  79.0067825   4.5632443  77.5747147
  79.2902069   3.6644313  77.4072647  79.8198013   5.0665746  77.6182404
  17.2284718  69.4274750  54.4660416  17.6378956  68.6079254  54.1886482
  17.8461819  70.1071091  54.1962929  48.2120476  15.0148764  81.2907639
  48.4319115  15.3351164  82.1655960  48.9953918  15.1877623  80.7685394
  82.4461060  27.1300011  19.6610603  82.3870392  26.1801453  19.5585117
  83.0295715  27.4111710  18.9562588  46.8374863  68.1639404  87.7473297
  46.6050301  69.0630493  87.9792786  46.5874443  67.6467819  88.5130005
  37.0030289  71.7934570  21.8456383  36.4135857  71.8308945  21.0923862
  36.9061317  70.9023819  22.1815414   0.7802877  42.1814880  47.0454636
   0.7055576  41.2315941  46.9541016   0.8958752  42.3233833  47.9850044
  21.4548302  36.9164238   6.2747245  21.7724075  36.4925385   5.4774179
  21.0985870  37.7529945   5.9756117  74.8439331  29.5492344  47.7568703
  73.9811630  29.1719494  47.9286919  74.9990692  29.3790131  46.8277893
  36.3121147  40.2841988  60.2192497  36.3271027  39.6415901  60.9285202
  35.5177612  40.0784531  59.7263947  33.0616188  66.4769058  14.7946434
  33.9324379  66.5325394  15.1881027  32.7863731  65.5732040  14.9489193
  60.0663834  41.5630112  45.3077545  59.7164726  42.0856895  46.0292816
  59.3248444  41.4483833  44.7134361   4.8807044  11.4521170  70.7593307
   4.2096295  12.1343307  70.7375641   4.6459465  10.9091463  71.5118637
  49.2381401   3.9684782  75.2038651  50.0534554   4.4620490  75.2926483
  48.5577545   4.5755105  75.4951019  85.0885544  31.4463654  40.9695740
  85.6157532  32.1448250  40.5816994  85.7296982  30.8410931  41.3421478
  11.7180424  49.2425766  10.7991467  11.7508230  49.1831093   9.8443584
  11.2501755  48.4534683  11.0723486  20.4540634  53.3100204  85.3350677
  19.5583973  53.5629158  85.1113358  20.8690815  53.1275101  84.4920502
  55.8374443  31.2742519  85.7017136  56.6830254  30.9448795  85.3971786
  56.0294304  32.1477318  86.0428925  51.1463318  36.0578918   3.4531500
  51.6023979  35.7647209   4.2420020  50.6259995  35.3015213   3.1822462
  52.8600578  46.0345802  74.5995636  52.0278435  46.1336441  75.0619888
  53.0190125  46.8925514  74.2060547  63.2322350  35.2937698  43.4068489
  63.8957520  35.7309341  43.9405785  62.4186897  35.7550163  43.6108894
  42.2311745  39.7381592  55.2761002  42.6154938  40.1402550  54.4970932
  41.7398987  38.9881439  54.9408989  35.3173370  67.7869110  64.5643921
  34.5067711  67.8121033  65.0728989  35.8926125  67.2036209  65.0594254
  10.6229687  22.6226559  85.5889053  10.8025866  22.7957439  86.5130310
  10.7830477  21.6846313  85.4853973   9.4691076  38.6161880  70.0582428
   8.7059898  38.9813690  70.5060425   9.2808619  38.7363701  69.1274643
  80.4922638   3.7836213  28.2677364  81.1426926   4.2841463  27.7751408
  79.7224121   3.7664366  27.6991730  64.0957108  17.8566456  28.4448261
  64.6998062  17.1594296  28.1895046  63.3618889  17.7726097  27.8359928
  17.4162292  14.1713238  12.3724842  17.2772198  14.1632071  13.3195019
  17.4941406  15.0989904  12.1497850  34.6541710  55.3139229  10.7635555
  34.0500336  56.0307541  10.9569550  35.5198326  55.7223854  10.7683001
  60.6411819  36.0074120  44.3835983  59.9796982  35.6713448  43.7788429
  60.3664627  36.9065094  44.5635490   8.3268156  38.3937111  73.7865677
   9.1115217  38.8705406  74.0569458   7.6023540  38.9772530  74.0121078
  79.0184174   5.1486592  88.6175613  78.4543381   5.9168935  88.5289230
  79.8350983   5.4001312  88.1862564   6.6140924  19.1730309   8.6919880
   6.0234923  19.8138561   9.0879240   7.4838357  19.4252510   9.0020905
  34.6331635   2.8208258  33.8519478  33.9815254   3.3990307  34.2485352
  34.2187386   2.5091097  33.0473862  72.3222275  25.7490864   0.0026189
  72.6606293  25.2013512   0.7109272  71.4699783  25.3679276  -0.2086394
  15.7121954  50.6797485  36.8210030  15.9753256  50.1240501  36.0873871
  14.7979488  50.4465370  36.9822426  75.0636673  19.7287693  82.3670120
  74.7094345  20.3294582  83.0226974  74.3086929  19.4879036  81.8301468
  78.7871933  17.7826290  66.4327850  78.2324448  18.4885788  66.7646408
  79.3461380  17.5487633  67.1738052  47.1260147  23.2190742  81.1173019
  47.9101753  23.7677708  81.1331558  47.3300972  22.5277824  80.4874573
   1.4780363  30.3834400  54.5090485   1.9281309  29.9214706  53.8017769
   1.6621649  29.8624649  55.2906570  64.7273407  29.6221485  30.9119968
  65.5690231  29.7029171  30.4633503  64.1263733  29.3040485  30.2382927
  77.1844788   3.6558707   4.1028757  77.0295258   3.1190372   4.8800697
  78.0464706   3.3813131   3.7901073  56.9934311  45.7808762  28.0460567
  57.0611229  46.4919472  28.6832561  56.9523239  44.9859581  28.5777054
  72.2361679   3.8241799  19.1624832  71.5790253   4.4785991  18.9255600
  73.0261230   4.0984464  18.6966648  48.4482079   3.6023405  14.0462446
  48.3364372   3.6159847  13.0956898  49.3963089   3.5778368  14.1755972
  32.9181671  50.6265297  35.8959656  32.4787636  50.7029686  35.0490227
  32.3548393  51.1073990  36.5023155  30.7874432  53.2849007  13.1446609
  30.8822384  52.8901787  14.0115166  31.4257851  53.9981041  13.1351385
   3.9934244  35.5516167  55.1570396   4.6376228  34.9836311  54.7343903
   4.1214886  35.4033165  56.0939713  16.6057625  35.6549606  12.0050411
  16.7956905  35.2283707  11.1694689  15.8185453  35.2145653  12.3253145
   1.8124505  70.4012527  14.9989815   1.1958957  70.3298492  15.7276745
   1.4365889  69.8503342  14.3123598  79.4180145   8.1258011  77.8247452
  78.6912384   8.6106615  77.4336700  80.0712738   8.0696697  77.1273727
   9.3741846  66.5240479   6.6016545   9.0335636  66.0045776   7.3299112
   9.1341562  67.4252014   6.8173833  16.9745331   8.0550489  50.7725296
  17.5282421   7.7158957  50.0692406  17.0525589   7.4068623  51.4725266
  81.1563187  21.7161503  25.6543617  81.8511353  21.2898636  25.1526222
  80.9787598  21.1140366  26.3769722  40.7098770  28.5207367   5.5468078
  41.2647438  28.5400009   6.3265409  41.3259583  28.5258751   4.8142452
   1.2830049   5.9105549  38.8107796   1.0124540   5.5062699  37.9864082
   2.1269350   5.5054679  39.0105743  20.7480335  66.1528015  36.5371742
  21.3400879  66.7063446  37.0463867  21.0740814  65.2634125  36.6746750
  45.8195686  49.5396118  55.7492218  45.2749329  48.9621620  56.2841644
  45.2466812  49.8133965  55.0329285  40.0754547  24.2294445  61.3532715
  40.7260094  24.8964252  61.1338501  40.0468788  24.2283401  62.3100433
  16.8831902  13.6556931   5.3569145  17.5582161  13.0549135   5.0412617
  16.7042503  14.2281799   4.6109452  83.4607239  60.5051117  76.1448288
  84.2344818  60.9160690  76.5303802  83.8086929  59.7832794  75.6212692
  29.8117886  55.7655716  74.1587448  30.6799355  55.6299858  74.5384445
  29.6548996  54.9809036  73.6334763  54.1146164   0.5088202  12.3549023
  54.3497009  -0.3943328  12.5676966  54.4268341   1.0198691  13.1016150
  60.0375824  10.0180473  54.0958595  59.5186958   9.6013365  53.4078636
  60.9333916  10.0094357  53.7586861  22.2437992   7.1331606  16.3534050
  22.6660595   6.8752532  15.5340080  21.3077526   7.1247749  16.1534615
   1.7630494  21.2763500  11.5306864   1.9427361  20.8867397  10.6750298
   1.1441460  21.9830341  11.3468733  66.7575912  35.1595497  69.4649734
  67.0428085  34.5955353  68.7461014  66.5486526  34.5539207  70.1761627
  25.7889347  39.2590981  63.4933815  26.3162041  38.5432892  63.1386452
  25.0594940  38.8235474  63.9343338  34.2509804   0.0058381   7.4280629
  34.0818481  -0.4260756   8.2653666  34.9181633   0.6625116   7.6277609
  11.7383099  39.4985428   9.2324572  11.0052395  39.2372055   9.7897205
  12.4788160  38.9842491   9.5539904   7.1116076  41.6349449  81.1006088
   6.4489264  41.5923691  80.4112091   7.5632949  40.7924767  81.0510025
  43.3756790  52.1704903  43.4438477  42.7835388  51.4268532  43.5561180
  43.3717079  52.6103058  44.2940140   5.1405492  21.3019600  48.8013573
   5.3910923  21.6975803  49.6361885   4.2056155  21.4896889  48.7183571
  18.5320129  32.1931305  15.4805365  19.4689007  32.2811661  15.3052626
  18.4693241  32.1563187  16.4349728  39.3078499  49.9025459  53.2942467
  39.0996971  49.2594223  53.9719582  39.5180550  50.7011108  53.7783356
  27.3081589  65.8012848  71.2285385  26.7606449  65.8771439  72.0100098
  27.1975822  66.6377487  70.7764969   0.2607308  46.3491020  57.6522102
   0.7366089  45.9858818  56.9053230  -0.4947063  46.7900009  57.2634277
  80.7516937  36.4912453  19.3964081  80.8845444  36.0881577  18.5384426
  80.0875702  37.1637039  19.2448502  81.3237991  17.1082840  41.6672440
  81.5525589  17.4990559  40.8239174  81.8524551  16.3116512  41.7133636
  57.3858528  20.5967083  22.7952785  56.9460030  20.7162495  21.9535694
  57.7711983  21.4515285  22.9876881  39.7350044   6.6939955  60.6913719
  39.5240669   6.0120120  60.0536919  38.9280701   6.8109002  61.1927948
  18.8664417  65.7289047  58.7649651  19.0453644  65.0660095  58.0980415
  19.7210560  66.1174316  58.9518204  16.2205887  30.6537571  14.7930279
  16.4302425  31.4723949  15.2425919  15.4720869  30.8706341  14.2372036
  21.6285858  47.6623383  66.4672699  20.7385921  47.9374733  66.6873703
  21.9444580  48.3342018  65.8630676   7.5757885   6.3961749  29.6192074
   8.4345245   6.6502337  29.9572277   7.3176446   7.1220794  29.0511799
  71.6633148  47.1332932  51.9225922  71.0019760  47.7482452  52.2399254
  72.2082901  47.6519585  51.3308029  52.4229279  61.6906700  79.6712265
  52.5812569  62.6096382  79.4552155  53.1052208  61.4729118  80.3062744
  39.2891083  10.1926470  13.9168959  38.9626236   9.8485956  14.7483215
  39.5175400   9.4142838  13.4087601  84.2405624  21.8153954  34.6282158
  83.4483185  21.9069729  34.0988770  84.0729294  21.0514488  35.1800461
  13.9311047  52.4256668  47.0021477  14.1499605  51.7332954  46.3784866
  14.6924782  52.4769516  47.5800018  50.9400177  65.7886581  65.2887497
  51.5835724  65.7562256  64.5809250  51.4533691  65.9946671  66.0699463
  63.1039352  45.2722015  44.2473221  62.6623993  45.8339806  43.6103935
  62.3976326  44.9308243  44.7958031  76.7008362  52.1370354  63.1143532
  76.1383133  52.4713821  62.4157753  77.0628738  51.3240509  62.7619095
  19.3182545  47.3351517  16.9678860  19.6203651  46.6240196  17.5329075
  19.6562347  47.1120186  16.1005840  38.2224922  21.6757832  77.8883820
  38.8193703  21.7436428  78.6336060  38.2415886  22.5442581  77.4863663
  71.4890671  26.6109295  54.7707176  72.4383087  26.7337723  54.7790527
  71.2092743  26.9639454  53.9261284  44.3938599  22.3747406  80.8735886
  45.2276268  22.8078575  81.0565491  44.6373863  21.4859924  80.6146393
  48.8326607  12.6363306  21.8360558  49.0096664  12.0039434  22.5324669
  49.5284882  12.4883471  21.1956196  65.2270660  12.0736609  33.5072212
  65.6956253  11.8937960  34.3222885  64.4221573  11.5601292  33.5753365
  13.1392183  67.3439331  25.4358864  13.3588800  66.7742996  24.6986618
  12.8517303  68.1615067  25.0294933  44.3707581  11.6320686  12.3322935
  44.9854813  11.2726479  11.6926365  44.5273666  12.5761242  12.3107481
  29.1202164  21.4863644  81.0265198  29.1707401  22.1406059  81.7234039
  30.0160313  21.1608810  80.9381561  71.3493729  11.0428047  70.9121628
  71.6550674  10.3089495  71.4453049  71.3184280  11.7828226  71.5185013
  80.9852066  38.9034958  40.1538391  81.1640015  38.8127670  41.0898056
  81.1033707  39.8367271  39.9767838  85.9104156  44.6739120  69.7246475
  85.0911560  45.1546326  69.6065445  86.1771851  44.4336243  68.8373337
  22.7746258   3.7941520  70.1253510  22.2237949   4.1654186  69.4361649
  22.9791756   4.5362458  70.6942825   8.1331167  48.0551643  71.9811325
   7.4090233  48.5182686  72.4023895   7.7398176  47.2489090  71.6472168
  11.6752310  28.0459595  87.5386429  10.9758377  27.4261551  87.3314667
  11.5882578  28.1995201  88.4794312  33.4682465   7.3541498  61.9109192
  33.1884537   6.5902958  61.4064636  32.7449455   7.5199189  62.5155563
  23.1853008  42.0685425  62.4870110  22.5915661  41.8670387  61.7637520
  24.0530891  41.8367233  62.1562004  68.1753540  68.7939682  38.1960945
  68.7628860  69.4459686  38.5780945  68.6167297  68.5145340  37.3940125
  78.0711365  21.1098614   9.5591002  78.3551559  21.7364426   8.8935461
  78.6140594  21.3082790  10.3220520  55.0866966  24.7725582  11.0691557
  54.8300056  24.3541603  11.8909121  56.0102196  24.5445824  10.9625750
  66.5002289  50.5330429  34.4156151  67.4057007  50.3488731  34.6654892
  65.9927521  50.3581238  35.2081413  28.3993301   3.2631698   8.2077103
  28.9086857   4.0666752   8.3133917  27.5692825   3.5537310   7.8297858
  59.7639198   4.4550619  46.3487358  60.0632973   3.8219950  45.6961784
  58.8880005   4.7056417  46.0551186  56.4071350  36.7594719  22.2446995
  55.4853668  36.8842697  22.4705353  56.6982269  36.0456467  22.8121090
  10.8268776  46.0621681  21.4645348  10.9098606  45.6056480  22.3017521
  10.7208147  46.9830170  21.7033329  31.9420376  41.7469177   2.9500463
  32.7215462  41.8475456   2.4037175  31.2109871  41.7825394   2.3331766
  34.3003426  22.3213463   4.0157957  33.5532227  22.0522213   4.5502229
  34.4356956  23.2420940   4.2397008  73.1346130  32.9396095  52.6671410
  73.6952133  33.5018616  52.1325111  72.8797684  33.4900475  53.4076195
  11.2338810  61.9313698  38.6176224  11.7183399  61.1340523  38.4035721
  10.5376301  61.6380692  39.2053680  36.0967178  43.5587845  52.7257652
  36.7721939  43.5872078  53.4033775  36.3957100  44.1816139  52.0632553
  76.4140930  33.6839905  64.9535599  77.1505966  33.1143761  64.7314682
  75.8811035  33.7072067  64.1588211  14.0728645  43.5783386  81.3899460
  13.4275894  42.8814774  81.5092621  14.6122465  43.2823219  80.6566849
  15.9687405  69.7698975  57.1127663  16.3028240  69.0530472  57.6519737
  16.4702339  69.7117233  56.2995300  79.9588470  60.1170692  72.0711288
  79.8228302  59.9211426  71.1441193  79.9621429  61.0732193  72.1158752
  73.2651215  17.8571548  44.0143242  73.8008041  18.5429344  43.6155930
  73.7378922  17.6168804  44.8111877  69.4669037  32.9675827  77.0048447
  70.3780060  32.8450775  77.2715225  68.9666901  32.8865852  77.8169098
  67.8192291   0.8767666  55.1003647  66.9158401   0.7065742  55.3671112
  67.8722687   1.8297967  55.0285835  59.8253403  21.8143845  67.8660126
  60.0923920  21.0687790  68.4035873  60.6482124  22.1976223  67.5623016
  58.4707832  70.3949051   9.3489523  58.2054634  69.4764862   9.3005753
  57.6523857  70.8850937   9.2703705  64.9925690  58.2642517  36.4388275
  65.8282394  58.5530586  36.0721092  64.9715347  58.6457214  37.3164787
  75.4363480  16.5823383  80.8007507  75.9044113  16.7740231  81.6134033
  75.9830627  15.9342041  80.3566208  85.0899734  59.2770233  20.2536488
  85.8895721  59.3043060  20.7791252  84.3831635  59.4055939  20.8862057
  48.6735420  68.6423187   4.8819981  49.1742477  68.3337860   5.6372023
  49.3323517  69.0048294   4.2897267   5.7398782  33.9246063  53.9277458
   4.9945922  33.3494415  54.1008530   6.3801203  33.3623428  53.4916496
  82.4034042   8.2891197  59.9842033  82.7484665   9.1791830  59.9138680
  81.6216888   8.2909489  59.4317970  34.0897636  34.8339043  72.4237823
  34.1681404  34.3950768  73.2708435  33.7658463  34.1552658  71.8315277
  69.7475815  39.6316185  10.0314026  69.4059906  40.1153259   9.2793560
  69.3080444  38.7823296   9.9896450  39.9556580  18.1430264  11.6733809
  39.1362038  17.8263321  12.0534182  39.8447647  18.0222206  10.7303324
  42.3969765  42.0925751   9.2467957  41.7346840  42.0019608   8.5616741
  42.1451149  41.4498520   9.9098997  69.4371567  36.4530945  80.8124542
  70.3280487  36.8010864  80.8504791  69.3195877  36.1951675  79.8981857
  19.7674065  42.8287849   3.6135964  19.0137482  42.2505569   3.7314203
  19.5949249  43.5687218   4.1958165  73.0616379  20.1496983  36.1953812
  73.1768265  19.2506561  36.5030899  73.8913422  20.3652515  35.7695198
  76.4973679  27.5485020  65.9484482  76.4845734  28.4897976  65.7751617
  77.0936432  27.1918392  65.2900620  45.6383209   4.9653816  52.3422127
  44.7307854   5.1060605  52.0723572  46.1501427   5.5340180  51.7669525
  80.2586975  24.6064548   1.4806789  80.6013794  25.3466225   1.9816316
  79.3768158  24.8775787   1.2257005  65.6292496  51.9866409   0.6554843
  66.4603043  52.1843147   0.2236205  65.7208099  52.3584862   1.5327419
  46.0724220  66.4141846  70.2205582  46.8305016  65.8901825  70.4793396
  46.0698662  66.3756638  69.2641373  60.5074310  43.9200287  35.8187332
  61.1520996  44.6243172  35.8866806  59.8244247  44.1592522  36.4452362
  70.8997192  28.3504810  70.2118759  70.7048721  27.4796162  70.5580902
  70.0674820  28.8205204  70.2636490   7.8520122  30.5103741   7.0518370
   7.0388508  30.8420963   7.4325728   7.9893994  29.6651363   7.4795408
  65.6395874  50.3648262  24.1506214  65.3740768  49.6257782  24.6979256
  66.5763397  50.4642563  24.3204346  31.1642361   8.4032841  30.3562603
  31.4455242   8.6596079  31.2345581  30.2133675   8.5125723  30.3678646
  15.2651949  42.5396385  47.7140045  14.5126085  42.5929909  48.3030701
  15.5489349  41.6271744  47.7699547  17.5311527  15.5743122  15.7111187
  17.2505093  15.1776037  16.5357971  18.4617004  15.3595324  15.6464701
  27.8415375  14.4170046  58.4824677  27.0797882  14.6889181  58.9943581
  27.5293732  14.4026041  57.5777168  55.7983856  47.7376099  26.4041176
  55.4718628  47.3222198  25.6059513  56.2471123  47.0345001  26.8737030
  63.6862335  10.3833094  44.8214569  64.6068726  10.5654230  45.0098648
  63.4346008  11.0536757  44.1862221  63.9136963  24.5610981  49.7570457
  63.2710876  25.1888371  49.4265480  63.9298248  24.7101288  50.7024384
  10.4807787  59.1428070   5.2266107   9.8796854  58.4259491   5.4291859
  11.3305664  58.8406677   5.5472431  46.8821907  48.3203659  80.9980850
  46.0534019  48.7987633  81.0199432  47.1908722  48.4170685  80.0971985
   3.9201524  44.0466690   6.9202018   4.3992658  44.8703537   7.0108867
   4.3800468  43.5774689   6.2240853   2.9990716  65.1151428  75.1045303
   3.7925146  64.9658203  74.5903473   3.2547536  64.9113083  76.0041504
   5.1783423  13.9530821  29.6154671   5.6504397  13.2151356  30.0012035
   5.7675066  14.2870922  28.9390411  33.8691330  49.5736656  27.8738518
  33.3369598  49.1678467  27.1895027  33.3854332  49.4082184  28.6831074
  51.8065910  26.9481487  65.5329666  52.5099792  27.0128498  66.1789474
  51.3081207  27.7583160  65.6396866  61.1376190   7.6274128  46.9553642
  61.1700096   7.5928454  45.9993362  61.6773529   8.3835020  47.1861153
  44.0281487  30.7344265  75.4012680  43.2306633  31.2220974  75.6072464
  43.9942322  29.9674072  75.9729004  74.8900299  14.5183764  40.6480865
  74.8980637  14.4217834  39.6958046  74.3846207  15.3162470  40.8036423
  77.8186417  55.1468735  83.5178452  77.2623291  54.8380280  82.8027573
  77.9267273  54.3829002  84.0843201  14.2474260  58.6131058  43.7612419
  14.4931192  58.1399994  44.5562477  13.7275839  59.3534546  44.0741043
  44.7335587  52.1407318  71.6134567  44.1098824  52.5098839  72.2387466
  45.5041924  51.9291916  72.1403427  28.2969990  53.5486679  19.7595406
  29.2101784  53.7929306  19.6089725  28.2051029  53.5409317  20.7122879
  18.7454052   2.7966001  42.2996712  18.3640289   2.3052545  43.0272446
  19.6609955   2.5184033  42.2766266  11.9499731  54.9061356  59.9787445
  11.7823133  55.7242775  60.4464645  11.4144955  54.9683647  59.1877823
  75.4244232  61.7203064   2.8798773  75.8465271  61.9230804   2.0450492
  74.6804810  61.1662025   2.6437552  85.4977112  21.7710667  17.9468784
  85.3004761  20.9538383  17.4892025  85.9797668  21.4980927  18.7274780
  46.7161827   8.2012453  84.6039963  46.0350990   8.8576965  84.7503662
  47.1037102   8.4417219  83.7624359  39.9752960  51.0201378  59.4153290
  39.2827492  51.4887924  59.8811340  39.6002083  50.8316879  58.5550804
  75.9682312  37.5466881  70.6007233  75.3451157  37.2370453  71.2580490
  76.8264771  37.3192863  70.9583969  50.0608559  22.8583374  71.8243179
  50.0767746  23.0867062  72.7537384  50.5393295  22.0309105  71.7727585
  77.5916290  18.6775455  10.9282665  77.6947327  19.3708477  10.2763968
  76.7653046  18.8815403  11.3662291   0.8562656  56.1529922  79.1622238
   0.7844474  55.2481537  79.4661026  -0.0316183  56.3856163  78.8906021
   9.5796309  55.1310272  10.9162960  10.1432810  54.8747673  11.6462698
  10.1328592  55.6909180  10.3716030  66.5077972  37.1833916  52.4183121
  65.7360153  36.9341393  52.9266968  66.8242416  37.9825439  52.8395653
  28.9798298  65.4058685  30.4746590  29.7837124  65.0784760  30.8781662
  29.2212448  65.5769424  29.5643387  85.8648834  53.8873558  56.8869743
  86.3676605  54.4365807  56.2854805  85.2768021  53.3878708  56.3204803
  27.1359940  51.8808746  35.8596382  26.9479103  51.6585541  34.9478111
  27.0284252  52.8310852  35.9015770  42.2140732  54.8624420  46.6585846
  42.7202568  55.2814598  47.3545990  41.8991623  54.0471954  47.0490150
  26.2012463   1.4498725  73.0303726  26.9999275   0.9839496  72.7828751
  25.4906120   0.8808765  72.7346115  84.9924622  21.5496788  10.3273830
  84.7421799  21.8192959   9.4436998  85.3749390  22.3353081  10.7181950
  82.4416275  70.4608994  30.0318966  82.1128616  71.3245926  29.7825451
  81.8672485  70.1827850  30.7453194  38.4322510   8.2184467  86.2495575
  37.6298409   8.6582727  85.9686203  39.1381836   8.7746801  85.9201660
  18.6650696  58.3165436  83.8997345  18.9135113  57.4815788  83.5030670
  19.3791943  58.9118271  83.6719360  16.6090660  36.0299263  17.3625526
  17.0418530  35.5552444  16.6529007  16.8163719  36.9496040  17.1968746
  73.0928192   5.0320735  10.8742495  73.7564621   5.5626884  10.4335098
  72.6696777   4.5430465  10.1685305  78.3272781  44.4418716  36.1197968
  79.2738113  44.3892784  35.9873352  78.0597458  43.5400505  36.2969246
  60.6084824   5.6429210  16.6959572  60.3281898   6.4544191  17.1192055
  61.1705780   5.9299064  15.9762945  54.5380745   9.3276987  46.3943901
  54.5008621   9.1003809  47.3234596  53.6679497   9.6747103  46.1976776
  43.2108498  55.1345787  67.9801025  43.5137787  54.3701820  67.4900360
  44.0140686  55.5802307  68.2492981  49.5439682  51.3224182  48.8061485
  49.4930954  51.0871506  47.8797073  50.3343506  51.8580437  48.8741875
  42.0783463  68.2539597  70.2364120  42.7497063  68.4730606  69.5902710
  41.6060677  69.0742950  70.3786774  58.6545753  55.9902344  55.8089333
  59.0772705  56.8401337  55.6855316  58.4050560  55.7164268  54.9263229
  36.3463478  50.9438629  33.5182114  37.2685356  50.7670708  33.3323517
  35.8727684  50.2455482  33.0662041  66.0533524  30.9920483   5.3303351
  66.5350876  30.1762657   5.4669337  66.6867447  31.6808491   5.5318174
  31.5288925  64.9373322  78.0165405  32.4786186  65.0377045  77.9519119
  31.3452682  64.1073456  77.5764999  40.8559456  44.4637146   6.8907142
  41.3718262  45.2430420   6.6839662  39.9978676  44.6345444   6.5024519
  85.5024338  34.5447731  22.5455894  84.6087036  34.8700523  22.6536465
  86.0575714  35.2969742  22.7511253  73.6635208  44.0093231  55.5494499
  74.5432434  44.3593483  55.4087410  73.3310623  43.8358727  54.6687584
  60.0287819  13.2848701  17.5646286  60.9208946  12.9385643  17.5435505
  59.5294838  12.6950312  16.9998112  77.8118896  28.2582455  62.2695465
  78.2728119  27.5744343  62.7555351  77.3356400  27.7867603  61.5860901
  64.1381760  11.5955334  64.7992477  63.8122864  11.5817633  63.8993378
  63.3506775  11.6716738  65.3380280  54.1890602  30.7934227   7.1308374
  54.9488144  30.3202343   6.7915831  53.4406624  30.3945026   6.6869936
   5.2590818  31.7407513  28.2209530   4.8486061  32.6040230  28.1709175
   5.9673719  31.8487530  28.8556919  82.7047424  53.0331078  66.6084366
  82.2216568  53.4892273  65.9193649  83.5704193  53.4415436  66.6046066
  21.3318920  35.0767365  23.9611073  21.1490326  35.7516098  24.6148224
  21.8118000  35.5351791  23.2713623  57.4750023  62.5570602  47.4048653
  58.0731659  62.7834053  46.6926880  57.6039963  61.6177864  47.5366020
  56.0464630   1.2979491  14.1630049  56.2920341   1.9872940  14.7800379
  56.8798904   0.9754543  13.8200445  81.2953949  21.6624470  80.1006851
  80.7590714  21.1938725  79.4611359  80.7502518  21.7032528  80.8864212
   7.0533996  23.1052647   4.8913436   7.7242665  22.7310848   5.4624472
   7.4029245  22.9950085   4.0070882  74.4201736  58.1096001   4.3914561
  74.7138901  58.0040894   5.2963481  74.8894653  57.4306870   3.9066107
   6.6253939  41.1355209  14.5251093   6.2924571  42.0315437  14.4748240
   6.1373091  40.6605492  13.8524971  43.4134903   6.9847016  64.2372818
  44.1133957   6.8688760  63.5946655  42.6130753   6.7602944  63.7627144
  57.7085686  60.4869919  35.7905731  57.3414078  61.1264763  35.1802597
  57.3393440  60.7274780  36.6403236  38.3233223  11.5859947   8.6438675
  38.1883202  12.4350634   9.0646868  38.9744873  11.1479149   9.1918640
  29.7387047  68.9203339  75.8470535  29.2705250  68.9703674  75.0136642
  30.3195286  69.6811600  75.8415298  65.1664886  34.8218689  41.5151634
  64.9184036  35.2053261  40.6739464  64.4772568  35.1006622  42.1180420
  70.4363251  21.7882481  17.9396152  70.6499786  21.0202866  17.4096947
  71.1883316  21.8939075  18.5223255  24.5839882  29.0611515  10.5438967
  24.5596180  28.6494274   9.6801138  25.4870548  29.3637123  10.6396160
  29.8996124  29.1710434  82.7675018  30.0910130  29.3241482  81.8422165
  30.6349564  28.6440411  83.0801849   3.2237802   3.9053452  39.2976685
   2.9191537   3.1623957  38.7766495   2.8141289   3.7814574  40.1538658
  13.3193254  43.3744812  38.6366692  12.9522915  42.7441826  39.2565460
  14.1525888  42.9880524  38.3672752  84.0989838  61.1264076  10.4386816
  84.4080200  61.9710503  10.1111059  83.8164825  60.6545105   9.6552668
   7.8175082  50.1042519  77.9024658   8.3980980  49.3670998  77.7133789
   8.4090223  50.8315239  78.0959015   5.1531920  13.2408381  50.7266693
   4.5729990  12.6284275  50.2743835   4.8737993  13.2042894  51.6414566
  75.3041687  63.5134926  44.3780823  75.1398239  64.3490143  43.9409065
  75.0389328  62.8523788  43.7386971  24.7377529  19.9130955  44.1105156
  24.6607857  19.1984215  43.4784164  24.6891899  19.4836979  44.9646187
  26.7657642   7.6124482  13.2549305  27.6223412   7.7414007  13.6622105
  26.9619446   7.4397116  12.3341122  48.5010757  58.4625168  84.3494339
  47.7414246  59.0249023  84.1981659  49.2316208  59.0711861  84.4592361
  72.4171371  45.2484703  87.7468262  73.0612106  45.4801712  87.0777054
  72.9050674  45.2791824  88.5697556  72.0228653  18.3821774  15.7903767
  71.4127579  18.8305588  16.3760033  72.3151245  17.6185417  16.2880478
  68.8722916  63.3353233  47.9509926  68.4452896  63.2198563  48.7998581
  69.7020187  63.7659111  48.1568604  62.8156090  68.2250290  27.5379772
  63.6549454  67.7717514  27.4587135  62.9630966  69.0760651  27.1254025
  47.9451256  64.6199188   1.1159720  48.1241875  63.9204712   0.4875247
  47.2447014  64.2723236   1.6680723  42.2963982  56.9096909  50.6417885
  41.6634712  56.5575447  50.0159874  41.8310509  57.6241913  51.0767250
  77.8582458  46.4604912  30.3971806  76.9079208  46.3603249  30.3416157
  77.9851685  47.3021431  30.8350697  82.0863266  25.6608410  36.2168961
  82.0070038  25.0862484  35.4554596  82.7035675  25.2105293  36.7934990
  49.4536819  55.4925232  17.5043468  50.2906914  55.1067238  17.2458744
  49.5337219  56.4172134  17.2703133   0.4471359  37.4313011  29.6929626
   0.4932268  36.7965660  30.4079609   1.3466725  37.4966507  29.3723469
   8.0364466  10.8587446   8.7883625   7.9233437  11.7152615   8.3762712
   8.5513201  11.0376396   9.5752125   7.0591669  38.3315506  82.1775894
   6.9718237  38.6418991  83.0788574   7.6357450  37.5701485  82.2412720
   5.2365613  36.4784317  30.2659283   5.3186698  37.3187904  29.8150578
   4.7696714  35.9184685  29.6456947  66.1682434  56.1986771  30.7807255
  65.8996124  56.3794594  31.6814957  66.5150452  55.3069458  30.8085995
  31.9753132  44.1436462  29.7930832  31.6766891  45.0501213  29.8662758
  31.8178253  43.9127693  28.8775902  24.4946270   8.9576883  80.0977631
  25.3831596   8.6031427  80.1299896  24.1660957   8.7026272  79.2356491
  26.2492485  57.3818321  55.8076096  27.0722923  56.8938446  55.7811813
  25.8785534  57.1798935  56.6667023  42.3846397  44.1999168  66.6013947
  41.4718513  44.0584068  66.8524475  42.4422607  43.8624840  65.7074966
  71.4917755  57.8507767  34.4305496  71.0415802  57.6367683  33.6133881
  72.3790359  58.0873909  34.1603279  60.2879410  40.3898468  13.6144905
  60.6365509  39.5048294  13.7214775  60.9134750  40.9507370  14.0731192
   5.5348659  43.4430733  49.5345345   6.1544085  42.8090134  49.8955994
   6.0262489  44.2636833  49.4974861  78.9408340  68.9526672  19.3819237
  79.3050690  69.6303101  18.8123875  79.0521011  69.2987595  20.2674026
  77.9923553  32.9738541  45.8108978  77.8985443  33.6551323  45.1450958
  78.7851105  33.2148705  46.2901535  50.8768578  61.9818077  40.4071884
  50.0191612  61.5573196  40.4272118  50.7337227  62.8308411  40.8253860
  77.1016006  68.5588226  64.8348694  76.8605270  68.8060226  63.9421120
  77.8113022  67.9260178  64.7248001  85.1206894  38.3215485  77.7084351
  84.6530151  37.8370132  78.3886795  85.8337860  37.7390823  77.4467773
  30.3991070  26.7149715   4.9170008  29.7542210  26.4009686   5.5508413
  30.6954441  27.5530643   5.2719913  36.1079063  61.4963493  21.0764732
  35.5655518  60.8387222  20.6410294  35.8485489  62.3252602  20.6741428
  24.5611343  12.7111826   0.3112571  25.1814194  12.6286173   1.0355909
  24.4308186  11.8140259   0.0040755  35.2987137  23.0780258  88.7470322
  35.3098450  22.5255260  87.9654617  35.3485794  23.9721622  88.4089966
  33.6783867  64.5798950  31.3802776  33.5620117  64.6219177  32.3294487
  33.9304352  65.4688263  31.1302853  32.6359787  41.4295502  72.1716385
  31.6969776  41.2449379  72.1923904  32.9000740  41.2272110  71.2741165
  21.1194324  60.5938606  58.0279961  21.6455803  61.3623619  58.2489166
  20.3461533  60.6640434  58.5877686  26.7582455  12.7930002   6.7035799
  26.6959000  12.3107224   5.8791084  27.5683956  13.2968063   6.6256838
  85.3469543  48.1438560  31.0850925  85.9424210  48.7211418  31.5629978
  85.0323181  48.6761551  30.3544121   6.5769053  68.5459366  35.6246948
   6.8473077  67.6332321  35.7250900   7.3163700  68.9681015  35.1874313
  34.2081985  47.5449409   5.4689698  34.4394798  47.0391960   4.6898904
  34.1941147  46.9010162   6.1770644   3.3296592  53.5263176  24.9476662
   4.2136893  53.3221283  25.2526722   2.9350038  52.6728630  24.7685204
  82.3967285   5.7021332  53.6542435  82.0175323   6.5805526  53.6256142
  83.1499786   5.7471132  53.0653305  50.5014687  38.5349808  15.7022867
  51.2094460  37.9004745  15.8136635  50.7232018  39.0023422  14.8969059
  62.6295166  12.3040266  55.8669853  62.6865997  11.3717175  55.6577644
  63.3847389  12.6948013  55.4274788  67.9991608  60.0872307  30.9239693
  67.0809250  60.3571739  30.9381924  68.4242859  60.7148476  30.3395061
  78.4844666  65.3135223   4.3964720  79.1938705  65.9551773   4.4319253
  78.8287659  64.6056595   3.8518424   3.3336804  31.2468433  23.1046753
   2.5856953  30.7341690  22.7982216   2.9454577  31.9460411  23.6306381
  82.4674377  37.5805931  15.6160078  83.2774658  37.0793076  15.5222178
  81.7840881  36.9165955  15.7075224  46.7620621  28.8859882  65.5208511
  46.5177040  28.0079803  65.2282410  46.1237869  29.4640369  65.1028824
  70.4929276  58.4166031  84.1736832  70.0242004  59.2348442  84.3380432
  70.6422958  58.0471649  85.0439911  61.2898636  56.0509071   0.5943040
  62.0579414  56.5001411   0.2414947  60.7819595  55.8023987  -0.1780358
  64.2091141  70.0803680  71.6377869  63.9240265  69.2133026  71.9261475
  64.8412628  69.9051132  70.9407196  51.4490471  18.3138218  67.2060928
  51.0792007  17.6583576  66.6146469  50.7220535  18.5563011  67.7796097
  11.3304110  47.4906235  74.9159622  11.4958982  48.0002098  74.1227646
  10.8617439  46.7146301  74.6086884  81.6522827  40.5006142  77.7890854
  81.4623718  41.2484894  78.3555222  80.9456558  39.8799133  77.9669495
   5.9200349  10.9982195  79.6220322   5.4005513  11.4348135  80.2971268
   6.6469555  11.5978708  79.4539948  83.6299362  23.2674580  69.6248322
  83.5253067  22.6023293  70.3051910  83.6691513  24.0955067  70.1034088
  81.8060684  44.2066154  30.9535618  82.4315796  44.1494026  30.2312794
  81.6282959  43.2960510  31.1891479   5.8249226   5.7873774  81.1962204
   6.6738915   5.3551002  81.1033783   5.9132671   6.5986714  80.6959915
  29.0666828  27.4485607  70.0497894  28.8649349  27.5623722  70.9785461
  28.6324329  26.6302547  69.8088913   3.1290302  55.1961746  10.1213083
   2.9663079  55.9831657  10.6413069   2.2897308  55.0091820   9.7007818
  22.7408276  39.6313477  87.1107712  21.8766575  39.3720360  87.4304581
  23.3494434  39.0512810  87.5683136  39.1827240  16.5253639   1.2367601
  38.3871384  16.4915676   1.7679211  39.8641701  16.1627102   1.8027507
  72.8576889  48.1500092  40.2984581  71.9306030  48.2595024  40.0868874
  73.2355576  49.0210495  40.1770744  36.2010345  68.8366241  20.6521511
  35.5481834  69.1337357  20.0183258  36.9500580  68.5718231  20.1182251
   1.9549891  65.7702866  35.9915123   2.8409452  65.4089203  35.9645844
   2.0596895  66.6312180  36.3965645  75.4081421  43.0266228  88.1424026
  75.5310745  42.1992722  87.6769791  75.0545425  43.6226234  87.4821167
  16.4635525  49.4999733   2.0354576  15.8125324  50.2001686   2.0815837
  15.9860687  48.7522774   1.6760249   1.5208350  60.5535507  37.9106483
   1.6975676  59.9609222  38.6412582   2.0646152  61.3210907  38.0879021
  44.2960739  48.6577568  42.3796120  44.2834663  48.1728935  41.5543938
  43.4449768  48.4751129  42.7777443  59.5387917  18.8877010  88.1303253
  59.6614952  19.2171783  89.0206146  58.7459450  18.3536701  88.1797180
  34.5854416  36.5184822  66.7563324  33.9590797  36.8358498  66.1058121
  34.5339394  35.5647659  66.6930542  25.2369118  71.0081253  60.3349533
  24.3028069  71.1864243  60.2259178  25.6647720  71.5672607  59.6864700
  83.5548477  59.9447441  55.8111496  84.3562851  59.5333023  55.4876633
  83.8554382  60.5660095  56.4744034  48.3969193  14.1681356  58.9447289
  48.1686554  14.6000605  58.1215820  49.3538895  14.1473274  58.9469528
  14.6063509  47.5622597   1.3487566  13.9976778  48.0265846   0.7741666
  14.1244516  46.7843704   1.6296315   7.8818693  57.8129272  22.4555569
   8.6860037  57.5964165  22.9274921   7.5705385  56.9741096  22.1154213
  60.0297012  31.3612804  88.6986847  59.1205788  31.6223164  88.5517502
  60.4430809  31.4386787  87.8388290  37.2386322  58.3925056  58.6811371
  37.0569954  59.3267746  58.5792618  37.8362656  58.1849747  57.9628067
  77.0702972  30.4733562  57.7104340  76.2688141  30.5714626  58.2244797
  76.9421310  29.6616879  57.2195168  44.6507721  67.4147720   9.6157131
  45.4002419  67.9678802   9.8361788  43.8994141  67.8641205  10.0027189
  28.9611015  31.1734467  85.6421585  28.1681614  31.2260952  85.1085815
  29.6759224  31.1412621  85.0063705   6.2397285  17.5286579  73.5400696
   6.2221766  17.8831158  72.6510849   6.4773874  16.6084309  73.4263458
  21.6033554  13.8043194  60.3850327  22.2426910  13.9258995  61.0869560
  21.7388115  12.9035044  60.0910645  85.9736862  61.5091209  35.2522011
  85.9916840  60.8563499  34.5523453  86.0523529  62.3484993  34.7988968
  61.1156120   1.4558477  75.0626068  61.5983429   1.5861546  75.8788300
  60.1964149   1.5590451  75.3088837  27.1266994  20.1568527  75.5375595
  26.6474934  19.9604588  76.3425598  27.6528873  19.3739529  75.3749924
  37.0847816  31.0941830  61.2728424  37.2870178  30.4804955  60.5666428
  36.4487724  30.6309185  61.8179207  66.6403580  10.1558189  86.3263931
  67.4420090   9.8368282  86.7409286  66.8733902  11.0203371  85.9879608
  74.5061264  41.9266739  12.7744379  74.3754349  41.9506302  11.8265038
  73.7963791  41.3731461  13.1001539  85.6667862  69.3225479   4.1583467
  86.0122528  69.2780685   5.0499215  86.0747604  70.1023941   3.7820277
  84.0421524  58.7887802  16.7492161  84.3650131  57.8876762  16.7508183
  83.1020050  58.7066383  16.9092407   8.6129684  65.1248093  80.2549896
   8.0288992  65.1124802  79.4967422   8.8094454  64.2028198  80.4209976
  18.2232952  63.7902794  14.4575853  19.0990105  64.0154953  14.1435242
  18.3728580  63.1185722  15.1229200  80.8942490  13.0792589  83.6828156
  81.1254272  13.1476250  84.6091614  80.3245773  12.3115788  83.6341476
  54.6566772  50.1381989  57.5087891  54.9574356  51.0326118  57.3481598
  55.3932610  49.7130775  57.9480515  28.0269661  25.1565723  68.8735657
  28.8906727  24.7549877  68.9682846  27.4845524  24.4695263  68.4862900
  49.2702522   7.9616141  61.8690567  48.9853363   7.0950980  61.5788765
  49.4501228   8.4383974  61.0587769   7.7650261   3.1176579   8.9762640
   8.4815063   2.7301779   9.4790039   7.6792655   4.0045362   9.3260126
  19.9943409  66.3156967  81.5182495  20.5388012  66.6483383  82.2317963
  20.3161049  66.7700577  80.7396240  79.9326324  34.5407143  69.3623581
  80.3027573  34.0967560  70.1253433  80.4853287  35.3130875  69.2431870
  13.3892584  38.1040726   2.0064135  13.8155603  38.9172020   1.7356330
  12.8488846  37.8556671   1.2563990  44.9100418   9.0556517  60.7890129
  44.6954117   8.2858200  60.2622032  45.8511086   8.9823551  60.9479065
  26.2605362  70.1337509  53.2750893  25.4033871  69.9940338  53.6775932
  26.0626144  70.4204483  52.3835373  61.8608284  15.7330122  84.3315430
  62.4561882  15.8896198  83.5985718  61.7861710  16.5830212  84.7652969
  37.4894981  34.1497269  84.2070312  37.2411919  34.8405266  83.5927277
  36.6700974  33.6933899  84.3982697  70.6692734  42.1715508  45.0382690
  70.2788925  41.6584625  45.7457809  70.8257904  41.5360909  44.3397522
  83.6099014  25.0555687   1.2170155  82.8712387  24.4483089   1.2599393
  84.3821106  24.4911709   1.1798712  72.4424286  33.5634842  77.5262985
  72.2020111  33.3521271  78.4283829  73.1294250  32.9338074  77.3077164
   3.3013685  51.8358803  14.5108547   3.6717052  52.3921661  13.8255615
   2.3760562  52.0788269  14.5425673   6.9996190  54.7837715  59.9055099
   6.7693338  54.8600388  60.8314590   7.2392340  55.6729126  59.6442719
  63.8017731  60.1183891  17.4221687  63.2560997  59.6312485  18.0395584
  63.8203049  59.5722427  16.6362839  67.8614960  54.4605255  26.4313107
  68.7763214  54.4388771  26.1504898  67.8537140  53.9804192  27.2593613
  72.8637848   8.6599255  55.1104279  73.4015427   9.3601618  54.7406807
  72.2763138   8.4075480  54.3980980  69.0621033  25.4427967  10.8552999
  68.5881882  26.1120319  10.3615808  68.4497147  25.1708450  11.5388556
   6.8880849   5.4083352  39.7805939   7.6359873   5.9772243  39.9629097
   7.2782221   4.5602484  39.5689964   9.3076248  63.6841393  66.6084900
   9.0417166  63.2321167  67.4092407  10.2620525  63.6120415  66.5984268
  27.7822266  32.7242546  50.7217140  28.0620728  32.3694954  49.8778763
  26.8611813  32.4736938  50.7932892  84.1892014  36.2173080  53.3677711
  84.3127289  36.4068985  52.4377022  83.5956421  35.4665031  53.3823891
  24.1643581  54.7051659   9.1318569  23.3873367  54.3546524   8.6964130
  24.4491043  54.0023460   9.7159796  64.2091293  36.7518272  24.5919952
  63.4187737  36.4289589  25.0248127  64.5411224  35.9972000  24.1056309
  77.7700958   0.8068584  18.3314419  78.1674957   1.5659169  17.9046707
  77.1990585   1.1810153  19.0023785  40.7345467  42.0261612  54.2687798
  40.6976471  41.3995667  53.5461121  40.0889244  41.7044029  54.8979683
  51.7759628  49.5033035  73.9985123  52.4996758  49.2368126  73.4315414
  52.1828880  49.6532097  74.8518372  57.4066429  60.1352119  65.9105911
  57.9567947  60.0107231  65.1372452  56.6827126  59.5205116  65.7910004
  69.2048111  65.4650497  15.6645107  69.4885635  64.6935043  16.1548481
  69.9585495  66.0545731  15.6883984  17.6944103  71.4592361   1.7687904
  18.3689480  71.0099564   2.2780771  17.2905769  72.0662689   2.3890071
  30.3336582  66.3835983  63.2872124  30.4003792  67.1574020  62.7277451
  29.4899235  65.9941406  63.0577164  59.1524239  43.8319435  74.6037369
  58.9212189  44.5067558  73.9654541  60.1081581  43.8613548  74.6478195
  70.5106888  16.3735561  68.7804871  71.0436172  15.6286297  69.0585175
  70.8428879  16.5942059  67.9103241  47.9560547  17.9614506  79.1998138
  48.8236465  17.6282177  78.9707336  47.3763351  17.6015930  78.5284958
  48.0083466  40.1212654  15.2730894  48.6727676  39.5756226  15.6938620
  48.4746552  40.5610199  14.5621700  64.4244537  62.2121277  54.3860397
  64.3462982  61.4289970  53.8412209  63.5239334  62.5164871  54.4985352
  23.6823902  69.9076920  57.8010864  23.1845627  70.2559280  58.5407715
  24.1503029  69.1541214  58.1608276  44.2517776  34.3362198   9.2181473
  44.7204781  33.9559250   9.9610643  43.5392723  33.7211418   9.0442142
  30.3620338  18.3621044  79.7217255  29.5251694  18.7756367  79.9335709
  30.3627548  17.5497818  80.2280502  25.1263046  21.6421051  40.7991943
  25.4784660  20.8487988  41.2027740  25.5142307  21.6582031  39.9242706
  46.2916794   4.5259519  86.4882965  46.3225746   5.3841672  86.9110794
  46.9562149   4.0099969  86.9448242  86.8889389  21.1854515  70.5073166
  86.0354156  20.7797260  70.3552628  87.0309906  21.0984097  71.4499054
  53.0191269   9.3869734  34.0949783  52.5026398   8.8733521  34.7159996
  53.1824226   8.7881126  33.3663292   9.5262966  67.6559067  69.1583557
   9.7620478  68.3657379  68.5610275   9.7284298  67.9984512  70.0290070
   2.2280674  48.8231201  29.7226486   2.0351555  48.8351288  28.7851658
   3.1824870  48.7677612  29.7700901  17.6449947  39.2334061  61.7656441
  16.7138519  39.4183159  61.6431122  17.6640186  38.3943138  62.2258530
  17.5342636  28.4774609   4.2983656  17.7555962  27.9694099   5.0788321
  17.4067497  29.3694324   4.6214142  54.0340424  65.8901367  56.7115898
  54.1249886  64.9498825  56.5570145  54.0485992  65.9787064  57.6645699
  42.3895874  17.8318443  58.0783577  42.7040901  18.7355518  58.0532227
  43.1856575  17.3024178  58.1253586   2.4983146  18.4642658  17.6179981
   2.3745520  17.7588348  18.2530422   2.3026247  19.2636375  18.1068153
  14.5260582  -0.0841397  65.6323166  14.1189985   0.6857938  66.0294800
  15.0901871  -0.4382658  66.3197632  49.2395096  48.0043640  64.1404495
  49.7462463  47.9513054  64.9507751  49.8506012  47.7284546  63.4573135
  20.4078007  45.7593002  18.7384872  21.2693291  45.7530594  19.1555748
  19.8868637  46.3578682  19.2738094   7.6349916  48.3445396  14.6474819
   7.3949914  47.8942871  13.8376017   6.8888516  48.9140282  14.8350677
  75.2569504  42.2952309  59.2365341  75.8166275  42.3716087  60.0092964
  75.8685608  42.2033691  58.5059700  27.7769737  58.4899216  30.8888264
  27.7921963  57.9012260  31.6434383  28.5675030  58.2687378  30.3965130
  72.1101456  63.7683716  11.7224989  73.0547333  63.6153870  11.6985731
  71.8222580  63.3616257  12.5397577  17.0703106   5.4530559  72.0552902
  17.3286400   6.2702322  71.6290054  16.7026482   4.9207201  71.3498306
  56.3246803  48.6834755  61.1531448  55.5904808  48.1070824  60.9411278
  56.7537079  48.8438988  60.3126526  23.0521088  15.5391788  78.9254761
  23.8740597  15.9355402  79.2144852  23.3185196  14.7410908  78.4690704
  12.5618839  63.5992241  55.6842995  13.0067635  62.8460541  55.2956505
  12.7399168  63.5249825  56.6218605  23.6181812  69.0831528  35.4932709
  23.7969036  69.9896317  35.7434464  24.4692345  68.7363205  35.2256012
  45.8486519  16.3711758   6.0816121  45.9278145  17.3024273   6.2883325
  45.9589500  16.3264446   5.1318407  42.2400703  16.5572529   9.5613136
  41.9929848  17.3644981  10.0124645  42.5662918  15.9849720  10.2557955
  69.5405655  65.6984940  61.8868027  70.3771210  65.8710403  62.3188171
  68.8949051  66.1596985  62.4221916  49.9438477  49.8977394  60.7960587
  50.6795273  50.0620308  60.2061272  49.3220367  49.3955421  60.2693863
  22.3463020   9.0635834  22.5849609  23.2952843   9.1417961  22.6826649
  22.0625267   9.9320507  22.2995377  22.0605564  63.2921257  51.6639900
  22.2440186  64.0893860  52.1609344  21.1819000  63.0334702  51.9420013
   9.7520704  42.5952072   7.7842040  10.4177990  42.5602188   8.4710903
  10.1686392  43.0795288   7.0713692  51.3170509  18.1056061  18.8537807
  51.7743530  17.9213066  18.0333290  51.1337280  19.0444832  18.8201313
  75.0781326   6.8206925  58.9899292  74.6724319   6.6729274  58.1356430
  74.5406570   6.3164625  59.6007538  33.5027161  12.4388332  69.3013840
  34.4120865  12.2562046  69.5378799  32.9901390  12.0797424  70.0256424
  34.1246185  65.7011490  68.5978622  34.0197182  66.5616455  69.0037766
  34.9111862  65.3384247  69.0052643  77.0457306   4.4325132  61.6693115
  76.7670441   4.7222309  62.5380058  77.9760132   4.6544414  61.6298218
  60.9433823  32.6377831  65.4220123  61.0201149  33.3207588  64.7557602
  60.9212761  33.1141891  66.2519379  58.3668098  15.8559494  36.8651695
  57.5726051  15.3985891  36.5889626  58.9724083  15.1568155  37.1115341
  64.7629623  36.1296539  71.4930344  65.3126602  36.8325424  71.8394623
  64.5623550  36.4017334  70.5975113  54.5656967  42.4905815  48.9901657
  54.4168205  42.0519600  48.1525040  55.2881355  42.0058098  49.3892975
   6.5823607  52.9091988   6.7843924   7.4196148  52.5454483   7.0723543
   6.1494236  53.1830673   7.5929666  63.9690628  52.2635536  66.0680542
  63.0220757  52.1712151  66.1725769  64.0913315  52.4356461  65.1344223
   2.6431577  56.6562996  81.0437088   2.0069747  56.5049973  81.7427139
   2.1099327  56.8158188  80.2649536  72.9308701  38.4118996  55.0152054
  73.5973358  39.0560226  55.2542839  72.3222733  38.4114571  55.7540207
  42.0158463  21.9244556   6.3160276  42.6569443  22.3606987   6.8772044
  41.2663345  22.5196342   6.3010712  56.1412086  18.0148926  66.5891876
  55.6743660  17.3151112  67.0459137  56.1991806  17.7123375  65.6829147
  83.6184235  41.5458298  65.6793747  82.9775925  41.6397247  66.3841782
  84.4116211  41.2360840  66.1165619  85.0841141  57.2680016   6.4968953
  84.5170975  56.6255722   6.9235125  84.5962067  57.5391235   5.7192917
  23.1736469   8.9706612  77.6897354  22.3321457   8.5174656  77.7419052
  23.4447556   8.8681269  76.7774811  49.8513680   6.4404273  14.7871695
  49.4673424   6.2379956  13.9340706  50.2158966   5.6084929  15.0892248
   9.1201153  61.4096603  31.2798634   9.6435719  61.4074440  30.4784756
   9.2828159  62.2685432  31.6698399  85.7762146  24.1071262  22.2744827
  85.0597534  24.2086239  22.9010735  85.7444229  23.1844559  22.0216999
   4.3413568   5.3819914  10.2961693   3.9865866   6.1651826  10.7168608
   5.2438884   5.3291860  10.6106205  61.2078018  54.2840233  59.7987633
  61.8051033  54.0156555  59.1005898  60.3688011  54.4179344  59.3578835
  55.4095078  59.0419617  80.7200546  55.2719955  58.2201042  81.1910934
  54.5728493  59.5015373  80.7909546  15.8129082  45.2732162  27.1237221
  16.2259483  44.4610100  27.4168930  15.2248583  45.0020027  26.4188290
  35.2831383  35.6740456  60.7292862  34.7839165  35.0704842  60.1790810
  35.6246071  35.1267776  61.4364815  41.5178108  62.2062569  65.3517075
  41.4058990  61.2592354  65.4345093  41.3081322  62.3931084  64.4366302
  15.1734543  61.9628677  16.1179829  15.3198690  61.7319221  17.0352936
  15.6944504  61.3288116  15.6252661  72.0585175  12.9860811  69.1858902
  71.9166183  12.2120609  69.7308578  72.4026337  13.6443043  69.7896805
  14.8994408  15.9874592  83.9794998  15.7110662  15.5785561  84.2799911
  15.1814051  16.8021812  83.5636215  24.6834106  58.5407753  32.0370712
  24.9013996  57.9814987  32.7826729  23.7280788  58.5985947  32.0522652
  54.3024635  58.5486183  32.5677643  55.1213531  58.0940094  32.7652016
  54.3425636  58.7162361  31.6262074  79.1065521  25.8047161   4.3165922
  79.4837418  26.6839180   4.3476930  78.6568298  25.7667522   3.4724722
  43.6565895  55.8614502  48.5851212  44.5535431  56.1479340  48.4129715
  43.4921951  56.1207008  49.4917603   7.7166677  29.6265011  78.9323730
   7.1898642  29.3857498  79.6944427   7.3927884  30.4914207  78.6808853
  39.3242302  21.7741470  84.3510513  39.8835182  21.9307899  85.1119080
  39.7846870  22.1944580  83.6247253  33.8857460  70.3284760  80.7990417
  33.5850182  71.2345734  80.7298889  34.2474022  70.1295700  79.9354019
  65.5018005  21.3771706  31.2940960  65.1753845  21.5716362  30.4155369
  66.3921356  21.0552521  31.1529961  45.5224800  28.1309681  58.5761414
  46.1458702  27.6309586  59.1030273  44.9139404  27.4741707  58.2377243
   1.7608609  60.2385254   8.1440840   1.4820995  59.4823189   7.6276793
   1.3355061  60.1186714   8.9931650  49.9226685  56.8152351  26.4925728
  49.8306427  57.3486557  25.7031250  50.4649544  56.0751648  26.2197075
  67.3118744  70.5795364  40.7166023  68.2411575  70.4361649  40.8957710
  66.8804321  69.7897949  41.0428047   8.1430779   1.0045230  29.6423740
   7.7948384   1.4148649  30.4339428   8.5904675   1.7143016  29.1816254
  35.1163559  68.1032715  23.4557076  34.5078888  68.0770340  24.1941605
  35.9272003  68.4522934  23.8257675   3.1637299  63.2883339  77.4068604
   3.8395987  62.6282501  77.2528458   3.2731314  63.5332794  78.3256989
  46.3490448  17.4923744  65.0543823  45.5732155  17.4971905  65.6150055
  46.6395340  16.5803185  65.0552826  25.1353588  63.4851532  88.8982010
  24.3048916  63.4634819  88.4227142  25.4584274  62.5850563  88.8571243
  17.6330776  42.1147118  55.5492706  16.8697739  42.6912804  55.5151176
  17.5075417  41.5980377  56.3452110  12.8551750   2.6778319  74.8483353
  12.3423347   3.4391651  75.1196213  12.2283182   1.9544494  74.8483200
  19.0349312   2.0681562  76.6275024  19.8449097   2.3910005  77.0223923
  19.0834332   2.3526659  75.7148514  14.5236502  41.8102379  52.9484596
  15.0344028  42.6058617  53.0979614  14.0542145  41.6689606  53.7705917
  76.1338196  57.8281975  41.2372055  75.5137863  57.1026344  41.3103752
  76.1014862  58.2579994  42.0918694  58.1009140  67.1963501  67.1261902
  57.6590500  67.7783813  67.7444382  58.1214981  66.3478928  67.5688324
  28.2481365  58.0996819  74.6400681  28.0519543  58.0296478  75.5743256
  28.9500294  57.4653358  74.4945145  75.5637283  33.7444916  15.5560656
  74.9170837  33.0662079  15.7510204  76.4079285  33.3001404  15.6342430
   4.2429423  56.2190056  14.3706121   4.3045740  56.3628387  15.3149347
   4.8839083  56.8220558  13.9941492   0.3049255  56.9928818  64.6481628
   0.0648176  57.0960960  65.5689926   1.2326099  56.7578011  64.6674423
  77.6635208  11.7382689  72.0905380  77.5482407  11.1185369  71.3702087
  76.7749481  12.0185604  72.3098679  84.3742676  48.0855637  82.4215927
  83.7318878  48.6022644  81.9351730  85.2020950  48.5479965  82.2908859
  63.1769218  49.2586250  38.6656570  63.1415939  49.6296234  39.5473289
  63.0567780  48.3180656  38.7965889  21.2543926  55.5760384  15.2127390
  21.6701431  54.9138870  15.7649527  21.1894531  56.3491058  15.7734356
  68.8216858  37.6561813  66.1469193  69.2140045  37.9648743  66.9636383
  69.3765488  36.9247093  65.8761520  63.0262451  56.9959373  79.6889648
  62.5406075  56.6638184  80.4440079  63.9215317  57.1055603  80.0093918
  33.2476273  57.0232468  31.7167759  33.1898613  56.4877243  32.5080452
  34.1802330  57.0325127  31.5013962  75.2483292  67.1638184  88.3754807
  75.6118317  68.0065918  88.1037674  75.2456741  66.6355743  87.5772400
  50.8754387  39.2595177  83.3273544  50.1832542  39.8426208  83.6389618
  51.4385719  39.8200684  82.7935944  66.9187698  10.0174866  62.8665123
  67.8591766  10.1929092  62.8334846  66.6729050  10.1993971  63.7735329
  81.5022659  56.3866615  57.9504356  80.5869522  56.4135017  57.6716881
  82.0020981  56.4189644  57.1347427  83.1922073  25.9570541  82.1391525
  82.6153412  26.1369762  81.3968048  83.0203094  26.6699448  82.7543564
  58.5042076  52.1920357  42.4098930  57.8375587  52.7460899  42.0038948
  58.0146980  51.4511986  42.7673454   4.1226110  33.4891014  36.4468384
   4.8289313  33.5910263  37.0847664   4.5432653  33.6316719  35.5989227
   6.3296037  61.9237747  81.5058136   6.7738247  61.1443901  81.8396759
   5.3976588  61.7296410  81.6059265  36.3759727   7.0849023  60.7234726
  36.3330917   6.3514271  60.1099510  35.4990578   7.1299787  61.1045494
  23.7621212  61.6575890   5.6148214  24.6946583  61.8323135   5.7416267
  23.4178886  62.4629517   5.2286525  78.1221924  17.3041592  29.6555862
  78.9151611  17.8304882  29.7576313  78.1042938  17.0757275  28.7262154
  69.7583466  31.5619106  12.8751049  70.4059143  32.2595596  12.9759731
  68.9844971  31.8848476  13.3367329  10.6771984  67.8031158   1.8852820
  10.4648352  68.2292099   1.0548750  10.2402639  68.3383408   2.5477390
   9.5114431  34.9411430   3.2318184   8.9181805  35.0452080   2.4878819
  10.3317184  35.3401299   2.9416621  60.3506203  68.9684219  66.7268143
  60.0527382  69.7870178  67.1235504  59.5967255  68.3822632  66.7923355
  33.0522156  48.6019058  50.0311127  32.2435379  48.3246117  50.4616661
  33.5647850  49.0138588  50.7266693  82.7891541  38.4087029  80.3169937
  83.2112427  38.7327461  81.1126480  83.1667557  37.5394707  80.1825409
   8.9782419  12.6084166  20.3307648   9.5039406  13.0131454  21.0207424
   8.1055431  12.9855251  20.4422035   8.3461666   2.7720053  39.4261398
   8.6351938   2.8963037  38.5221252   7.5076652   2.3168042  39.3490753
  66.7492752  47.2896500  57.0979118  67.0680008  48.0481300  56.6086731
  67.3795776  46.5963402  56.9022903  21.1087875  57.3520775  63.2641373
  21.3586674  56.4303474  63.1992722  21.1509228  57.6755562  62.3642387
  33.0232773  31.5102291  82.2254868  32.9992371  32.0425797  81.4303436
  33.2241478  30.6268768  81.9163361  57.4070473  16.3273048  52.0276146
  58.2476807  15.8716583  52.0718002  57.2239456  16.5803909  52.9324112
  31.8963356  54.9366417  50.5383835  32.0234337  54.3779030  51.3051224
  31.2051964  55.5459023  50.7979240  59.4665451  66.9148865  27.3974419
  59.8541718  67.7040939  27.7757530  59.3222427  67.1362686  26.4774437
  75.4689560  10.1995382   6.6962171  75.0604324  10.0867615   7.5544853
  76.2685852  10.6944714   6.8747392  75.1142731  23.2058983  55.5412788
  74.5006714  22.5828457  55.1520119  75.8108902  22.6600018  55.9058990
  29.8664799  36.6281586  73.1252365  29.3431664  36.3577614  73.8797302
  29.9248981  35.8431931  72.5805817   7.1115799  11.1973228  13.0844049
   6.9090714  10.2914658  13.3181658   6.8865757  11.7023487  13.8657846
  66.5151215  12.1952009  35.9108505  66.3559723  11.6935539  36.7103806
  66.0716248  13.0302830  36.0597763  70.3223724  43.5624390  36.2941360
  69.5855713  43.5820808  35.6834259  69.9364319  43.7816277  37.1422119
  59.3719444   0.6343760  37.5817108  59.3748779   1.5836897  37.4591255
  58.9122963   0.5013434  38.4107170  31.6887150  42.9700699  55.3305893
  32.0785599  42.3309631  54.7341080  31.7718315  42.5711327  56.1967163
  51.8093262  65.3391724  39.7020988  51.0005341  65.7262039  39.3670006
  52.1944122  64.8966522  38.9457130  38.2083435  69.2453461  32.5988083
  39.1181755  68.9574127  32.6731911  37.7517700  68.7799149  33.2996254
  69.5693359  27.2737312  43.5553131  70.3042221  27.8615589  43.3802795
  69.1802139  27.6105156  44.3624001  81.3358002  33.0883408  27.1430626
  81.8021164  32.3554535  26.7410011  80.5123901  33.1432991  26.6580868
  57.3566475  47.1205597  73.8312836  57.0591507  47.5445480  74.6362457
  56.6076355  46.5978279  73.5449905  82.5659485  11.2111874  59.3756180
  82.8642883  12.0163364  59.7986565  81.8261032  11.4853306  58.8336754
  48.3271751   5.1295247  63.4135361  49.1242523   5.4878645  63.8040466
  48.4659767   5.2094216  62.4698296  84.5381851   4.6631112  29.5242176
  85.1020584   5.1657310  30.1121368  84.1626663   3.9793842  30.0789547
  77.2444229  67.8190002  84.1591339  76.3458481  67.8975449  83.8387756
  77.7763290  67.7511978  83.3662262  70.6754608  23.2391891  32.8262253
  71.2613525  22.8454018  33.4726677  70.5021286  24.1179008  33.1639442
  61.3651237  61.8289871  63.5217438  60.7462196  61.5578384  62.8437576
  61.9499130  61.0784302  63.6262360   6.7279353  13.4061375  40.7421570
   6.3521042  14.2323341  40.4382172   6.9339204  13.5614557  41.6639404
   8.5960236  18.3061123  59.5433884   9.4824123  18.0346012  59.7817726
   8.0751514  17.5055313  59.6065941  48.7348289  54.0975723   2.1224806
  49.2706871  53.6932068   2.8048134  47.9719086  53.5245552   2.0460505
  58.1049957  44.1341324  43.3483543  58.2598953  43.2008018  43.4937286
  57.1546135  44.2313347  43.4080238  66.3192596   4.9691377  84.6535110
  65.4844666   5.4259229  84.5500870  66.0997772   4.0430346  84.5515823
  53.8316879  69.2250061  86.8787384  53.4049683  68.7610703  87.5990906
  54.3250351  68.5474701  86.4163589  64.1670837  52.6231308  24.4404240
  64.6264954  51.7871971  24.5203190  63.7414360  52.7445755  25.2891331
  71.0207596   1.2506003  63.8977623  70.4296875   1.8663915  64.3309708
  71.5582962   0.8960298  64.6059723   7.6726995  15.7513962  75.3408203
   7.3712568  16.6593399  75.3724976   7.6211395  15.4501238  76.2479019
  14.3374319  64.2243576  52.5557060  14.4256334  63.7907524  51.7069168
  13.3928680  64.3155136  52.6810837   2.6322913  58.3186264  76.2411575
   2.2232575  58.2324219  75.3800583   2.6727304  57.4234924  76.5778046
  36.9904289  39.1947975  13.0827713  36.3376350  39.2469559  13.7808933
  37.8209991  39.0655327  13.5406733  45.9982719  42.5763550  46.4836426
  45.5085945  42.8988724  47.2402306  46.4818344  41.8200836  46.8159790
  79.6650925  27.7431049  14.2904358  80.5376129  27.9455700  14.6280012
  79.6428528  28.1503868  13.4244928  43.1248016  30.3763657  62.0578003
  42.9541016  29.8489571  61.2774582  42.2607765  30.5188236  62.4443207
   8.6929684   4.7456417  81.1286240   9.5504141   5.1522417  81.0033493
   8.8267908   3.8273218  80.8940735  72.6298523  29.0523453  52.3006935
  73.2437286  29.5896378  52.8013954  71.8544083  29.6045856  52.2009354
  81.9364243  36.3719292  44.9167328  82.1169128  35.4631500  44.6763687
  82.7718048  36.7028427  45.2466965   0.3016763  62.0144844   0.1347541
   0.7863336  61.8694077  -0.6778294   0.9271612  62.4528198   0.7116969
  41.7410164  61.6739502  17.1467361  41.5570450  60.9135513  17.6982594
  42.3219719  62.2194672  17.6769562  46.0627213  23.7277012   0.7079205
  45.7149391  24.0262318   1.5482532  45.4238358  23.0854092   0.3988630
  28.5051174  46.9033546  45.9664803  28.2192802  47.3527336  46.7618332
  27.7413616  46.9276657  45.3900108  69.7428665  47.0004654  58.6250992
  69.8051758  46.1765137  58.1419334  69.2044144  46.7905464  59.3881416
  56.6025200  24.2399178  47.3471031  56.9717751  24.1479931  46.4687881
  56.7863197  23.4026394  47.7730293  61.1738777  40.7022552  56.8105278
  60.4057693  41.2644081  56.9116783  61.9058495  41.2403107  57.1121025
   5.8893714  14.8322334  56.6387367   4.9443040  14.9841461  56.6372528
   5.9807429  13.8930731  56.7995453   6.3091793   9.0753918  59.3691978
   5.6548004   8.8905258  58.6955185   5.8006811   9.3868256  60.1179771
  84.8757629  47.5481186   0.4931190  85.1635208  46.7609215   0.9554437
  84.7209167  47.2553177  -0.4049468  11.0868883  64.5878525  74.8435364
  11.7720537  64.4033661  74.2010803  10.7844391  63.7246399  75.1257095
  61.6473923   1.4122437  15.4852247  62.4103661   1.5090965  16.0550671
  61.3957253   0.4931985  15.5760670  13.1602497  45.8162537  68.5572739
  13.8477507  46.4078827  68.8631287  13.1730156  45.9065094  67.6044235
  59.0310059  24.6966400  33.8475113  59.5576668  25.4839001  33.9856415
  59.2639046  24.1217098  34.5765114  60.2701721  35.3434944  19.4315281
  60.3739471  35.8582649  20.2318230  59.4429970  35.6467285  19.0572720
  48.3934250  11.9734478  29.1402931  49.1921959  12.4764299  28.9815254
  47.9466019  11.9600582  28.2938881  13.9631405  46.3981094  47.6307182
  13.2531853  46.0122719  48.1438713  14.3327494  47.0716019  48.2017021
  71.3037338  48.1400375  48.0160789  71.2835083  47.8694000  47.0981560
  71.7872849  48.9661064  48.0116272  70.8861008  70.9147034  56.5272331
  71.2034836  70.3797607  57.2547874  71.2985764  70.5336914  55.7520409
  81.4758987  43.5641174  44.6531296  81.1563492  42.8919334  45.2550316
  81.8275681  44.2481842  45.2228813  74.0917511   4.9770517  17.6717911
  74.3875580   4.5845766  16.8503933  74.4579163   5.8613706  17.6602287
  35.7067299  69.7554550  47.5048866  35.1133118  70.2780838  46.9654846
  35.8080177  70.2629166  48.3101540  26.4976673   9.0559511  74.6085205
  26.8478241   8.7037601  73.7902374  26.2481537   8.2827969  75.1146851
   3.9249010   7.8855753  67.7760696   3.9525547   8.3965073  66.9671097
   4.7230597   8.1329136  68.2429657  34.1287155  22.4983025  11.4941835
  33.3272018  22.0766315  11.1843433  34.3148346  23.1701641  10.8382940
   1.7534658  21.3625393  15.6109724   2.6310446  21.7438641  15.5849304
   1.7090642  20.9214420  16.4593201  10.4797430  44.8620605  23.8846111
  10.5933819  43.9262772  24.0508442   9.5458841  45.0185509  24.0247936
  45.7866173  69.1933289  56.2836113  46.6193161  69.5167007  55.9397087
  45.1941833  69.2105408  55.5319748  15.3992510  33.9891701  57.8861923
  16.2113800  33.6536827  58.2658310  15.6624975  34.7830658  57.4207268
  51.0987358  61.5379524  17.1315002  50.3312988  61.4681625  16.5636978
  51.7282181  60.9196358  16.7604637   3.8683491  52.6699524  49.5295601
   4.3105226  52.3492775  48.7435074   2.9358864  52.6032524  49.3238983
  74.1277924  28.0012836  64.3045731  73.7057724  27.1489410  64.4124985
  75.0651779  27.8083439  64.3220444  51.6992645  44.5644150  37.1096230
  51.1480713  45.0777626  37.7002945  52.3708878  44.1860466  37.6770630
  63.9655800  11.3884649  82.4022369  64.5000992  12.1183767  82.0895844
  63.1110268  11.5249443  81.9931488  64.1166153  66.2684250  40.2123947
  65.0135880  66.5957184  40.2799263  63.9776154  65.7813110  41.0245705
  50.4305916  54.4514618  61.4238586  50.7493401  53.9660873  62.1848068
  50.4865685  53.8268394  60.7007103  69.6055603  43.7058754  82.3572006
  68.7216263  43.9069061  82.6645737  70.1087036  44.4995880  82.5391388
   4.7269077  55.9036598  17.0654297   4.4878330  54.9783058  17.0125408
   4.0698152  56.2880135  17.6457176  59.5583992   8.5514584  51.5833511
  58.9175301   7.8916330  51.3184891  60.3592415   8.0542803  51.7497673
  15.2141790  20.8506107  66.7354584  14.3368750  21.0778809  66.4273682
  15.2433796  19.8948708  66.6914139  60.4870110  16.0726261  55.8378334
  60.7848434  16.1251316  56.7460022  59.5841026  15.7608871  55.8995209
  84.8849869  13.0973778  41.9788361  84.9815674  12.6186676  41.1555862
  85.7799606  13.2006769  42.3022423  63.0113869  67.4006805  72.1161041
  62.2000389  67.1363602  71.6824188  63.3371010  66.5984802  72.5242996
   5.4101825   5.6637092   1.3973753   4.8363609   6.3888049   1.6447556
   6.0705619   6.0632744   0.8312668  33.1541100   9.7819262   5.8540668
  34.0229950   9.5013132   6.1413474  32.5890923   9.0295858   6.0300527
  32.3191414   6.1355305  33.5687866  31.5592575   6.2596440  34.1374702
  32.5097046   7.0100288  33.2294197  25.8932514  39.1185150  86.5889053
  26.1865196  39.7001953  87.2902374  26.3778191  39.4108582  85.8169174
  77.5047379  11.0735083  45.5071449  77.8352356  11.6865940  46.1637497
  78.0463715  10.2917347  45.6153221  60.9711914  70.5293198  53.2099762
  61.0515442  71.0554810  54.0055466  60.0276413  70.4472733  53.0713692
  21.9396076  25.7738876   3.9411039  20.9910126  25.8106842   3.8184359
  22.0570335  25.2840576   4.7550507  83.6306686  16.5685234   7.5397830
  84.1626892  17.1283169   6.9742599  83.5649261  15.7406445   7.0638351
  36.3474236  59.6715736   9.7636414  35.9416008  58.8538284   9.4758329
  36.5699120  59.5183220  10.6819239  64.8479919  -0.0663804  86.8578644
  64.4352570   0.7621570  86.6141281  65.0709991   0.0400407  87.7826157
  85.1431580  54.4775009  27.5682774  86.0809784  54.2916260  27.5216141
  85.0481720  55.0383987  28.3380852  22.6281509  22.4346485  44.9511261
  23.1024342  22.1479187  44.1706924  21.8464451  22.8692780  44.6101456
  32.1036072  50.1287918  59.8309212  31.7374344  50.2607574  58.9564285
  31.6763725  49.3347397  60.1521492  57.6576004  23.4441662  11.2928667
  57.6889420  23.3576908  12.2456379  57.8437157  22.5638828  10.9662247
  64.5299454   2.6669307  72.1513138  65.1540833   2.8433864  71.4473572
  65.0466385   2.7410412  72.9536667   5.2722783  17.3226452  21.6508427
   6.2282085  17.3337955  21.6988506   4.9880314  17.2200718  22.5590897
  57.3317757  60.1682014  58.7380562  56.6020508  60.4382896  59.2955360
  57.1802521  59.2363930  58.5799217  66.1478653   0.7676560  80.1737366
  66.7915192   1.3130778  80.6259079  66.2310715  -0.0923644  80.5856476
  47.7577248  61.1811295   8.2142353  46.8089867  61.3025780   8.2513819
  47.9710388  61.2445488   7.2832656   7.9350848  55.0818100  38.6903534
   8.3210869  54.2099113  38.6065216   8.5031548  55.5364418  39.3123169
  81.8794403  67.9646912  68.6322403  81.1210327  67.3834000  68.5762329
  81.5833282  68.7837067  68.2350464  81.9171600  39.2468643  26.2025146
  81.8402176  39.7588196  27.0076313  81.3307648  38.5020561  26.3353291
  21.9383907  42.4864998  15.3267078  21.2313194  41.9276962  15.6492262
  21.7342243  42.6209755  14.4012537  10.6100979  54.1402245  48.2499352
  11.1180601  54.5513420  47.5505142  11.2227554  53.5340233  48.6663475
  46.6397057  52.0814934  30.1085434  47.0897408  51.5511589  30.7661476
  46.0260391  52.6168213  30.6116028  42.8053741  51.6816902  13.5044088
  42.2283630  52.4042397  13.2569914  43.5634613  52.1070213  13.9051905
   9.7866364  67.6296997  12.4859667  10.4167700  66.9729843  12.1895018
   9.9628000  67.7252960  13.4219475  83.1823425  47.1334648  32.3273125
  84.0090256  47.4164124  31.9364433  82.7616882  46.6099815  31.6452255
  52.2966118  65.2667923  51.9483376  53.0280609  65.1758041  51.3376503
  52.6657906  65.0348816  52.8004837  26.7830162   5.0130877   6.5064011
  26.8601036   5.9321895   6.7624121  27.1401482   4.9809017   5.6189036
  34.6517754  61.8082047  37.5722275  33.7523460  61.5254211  37.4070244
  34.6324425  62.1606331  38.4619751  54.1271439  31.9349117  61.2339478
  53.8249207  31.9459972  60.3257790  54.2990570  31.0114212  61.4179077
  49.9726753  -0.3112501  40.6390648  49.0853233  -0.0268829  40.4200439
  50.2970734   0.3584912  41.2410965  10.7088909  64.2585220  53.8130035
  10.7319326  63.5232964  53.2005119  11.3542776  64.0325699  54.4828186
  64.8959732  49.6207352  79.9284058  65.2914734  49.5431938  79.0601883
  63.9542236  49.6543579  79.7604599  31.7477493   2.3683965  86.5139236
  31.7634754   3.1772287  87.0255585  32.1781273   2.5976200  85.6902313
  53.3122635  24.6792564   5.6935511  54.0610466  25.2728443   5.7501993
  52.8253822  24.8298817   6.5037913  47.0636940  61.5750656   5.3807907
  46.5029030  61.1397667   6.0228667  46.8735542  62.5068817   5.4893923
   6.2669735  59.4924469   8.3994398   5.7456646  60.1926346   8.7921267
   5.6201754  58.8747749   8.0583134  12.4302444  58.7776833  74.3849640
  12.8783770  58.5515862  73.5699234  13.0524111  59.3335838  74.8541260
  56.1399918  11.0223179   8.3112402  57.0160675  11.2713890   8.6056623
  56.2169647  10.0946255   8.0883188  56.3717575  36.7424583  76.1364899
  56.9790306  37.2201500  75.5714569  56.4703255  35.8271446  75.8743515
  75.1461334  13.8064623  69.5423737  75.5663834  13.3363333  70.2625122
  74.2954330  14.0704956  69.8928299  32.0172043  69.0784607  43.6594238
  32.2716675  69.4838562  42.8304863  31.0763016  69.2409821  43.7266464
  41.4687920   4.8275256  18.2257557  40.6154175   4.3950458  18.1949577
  41.8456268   4.5544887  19.0622234  84.1375351  40.8299484  52.5936279
  84.7996445  40.3869476  53.1242752  83.7634811  40.1368217  52.0496674
  16.1782322  60.5987320  60.3482399  15.8441191  61.2564812  59.7383499
  15.9202499  60.9201889  61.2121544  55.7103882  60.3952217  27.7319736
  56.4946861  60.8702240  28.0067215  54.9898911  61.0002060  27.9083443
  69.9855118   5.9498429  65.8262024  69.1884308   6.4605980  65.6846695
  70.6917496   6.5953417  65.7981262  23.7811623  64.0302582  35.6932869
  23.7848682  63.4544601  34.9286461  23.7298641  64.9134445  35.3278046
  35.0789795   3.8872485  81.9126053  35.9333458   3.9238682  82.3426666
  35.1811333   4.4294324  81.1304092  65.9465332  60.1175766  14.6279955
  66.0335312  59.9941826  13.6827774  65.5302200  60.9745445  14.7203512
   4.5220637  69.9601517  30.3301525   5.3120813  69.7492523  30.8277721
   4.8466229  70.2571716  29.4800510  76.0839691  49.9566460  83.7977371
  75.3907700  50.6045380  83.6714630  76.7128067  50.3883247  84.3760529
  76.3107681  20.2985287  49.4971581  76.6498108  20.5254936  48.6312637
  75.5796585  20.9011021  49.6336021   0.7225925  61.9825058  45.9275818
   1.0202067  62.8536568  45.6653786   0.8803574  61.4341278  45.1590614
  17.7276535  63.4253654  46.1075516  17.4825001  63.0633965  46.9590874
  16.9641991  63.2685585  45.5518723  37.0669327   6.5568790  72.9206772
  37.7067604   5.9389033  72.5671844  37.5741386   7.1167803  73.5084610
  64.0314713  51.6899185  52.9212341  63.1569023  51.6349258  53.3063736
  64.6208878  51.4216118  53.6260986  61.2973518  57.5844269  41.2656975
  62.2468872  57.6202049  41.3811798  61.1613350  57.7792854  40.3384666
  81.9714661  42.7696457  53.2780304  81.5426559  42.1349106  53.8520164
  82.6751785  42.2753296  52.8577118  53.6889725  43.3986855  41.2951469
  53.2506561  43.9307098  41.9592705  54.2046967  42.7669868  41.7963638
   2.0581357  16.6785278  15.7349224   1.6331394  16.0214291  16.2861309
   2.3110554  17.3735504  16.3425465  31.3643246   5.4024796   2.3622575
  31.8034096   5.8328857   3.0958695  30.5053272   5.8224244   2.3174996
  21.5155239  11.3932390  49.8045654  20.7357159  11.7496815  50.2301025
  21.5042553  10.4619017  50.0252800  34.4753189  25.0441246   4.6256876
  34.3113174  25.0852718   5.5678353  34.9170609  25.8688107   4.4232283
  83.9323120  35.2738724  34.4477272  83.1266785  35.4282990  34.9410286
  84.5782318  35.0351677  35.1125870   1.2841678  11.8697090  18.1833534
   2.1444030  11.6433001  18.5368595   1.0683548  11.1453285  17.5960464
  23.8093548  61.4356270  71.2963028  24.2093754  60.9010239  70.6104355
  24.3851624  61.3246994  72.0528564  13.7267380  41.0938492  55.5901299
  12.8014097  41.2848663  55.4367943  13.8424072  41.2108994  56.5330772
  69.3837128  39.8531113  58.6034584  69.1218414  40.2371750  59.4402084
  69.4586334  38.9159050  58.7830887  82.5805130  16.9152584  77.0039291
  82.3022308  16.5405922  77.8396454  83.4507828  17.2729492  77.1797562
  17.1915836  56.5192490   3.2013078  16.5040989  56.7515335   3.8255200
  17.7933636  55.9682808   3.7018361  67.9120636  51.2616119  76.1978149
  68.1120071  52.1603279  75.9359741  68.0127411  50.7501984  75.3949738
  11.1957912  31.1832199  12.1504545  10.6418924  31.9295483  12.3794098
  11.3183012  31.2572994  11.2040224  49.5717239  18.1161041  61.0816917
  48.6644897  17.8228703  61.1664085  49.8158035  17.8839226  60.1857300
  30.2527828  59.2206688   6.0461512  30.6770344  59.7866592   5.4012480
  30.4938965  58.3330231   5.7812371  62.2393608  17.3957939  53.9393272
  63.1822777  17.2906876  54.0661621  61.8477669  17.0090237  54.7224617
  56.2876282  57.3031158  33.7926407  55.6887321  56.5785408  33.6122437
  57.1417313  56.9868965  33.4981155  66.5893936  27.4381428  18.5396290
  67.0218735  26.5982189  18.6936283  66.9303818  27.7317753  17.6947994
  85.3609238  39.3708191  54.3238258  85.6034241  39.8081474  55.1400185
  84.5602493  38.8917656  54.5375137   5.4104271  21.6050415  79.3774033
   5.7119279  22.5109386  79.4458160   4.8410745  21.4840660  80.1372910
  84.2793808  55.6426430  87.1188507  85.1556168  55.7216759  87.4959335
  83.7547226  55.2445488  87.8134613  74.2732773  18.3940945  67.4972992
  74.9189987  19.0851784  67.3500366  74.7556610  17.5804157  67.3507690
  35.6631660   7.2746634  68.2016602  35.7281761   7.3860722  69.1501312
  36.5195808   6.9357309  67.9410553   9.4404869  45.6300926  69.9882812
  10.2621250  45.9995995  70.3117142   9.1145458  46.2796707  69.3653488
  81.3456650  32.6142349  11.1919317  81.9305496  33.3610306  11.3201199
  80.6027832  32.7899323  11.7694225  77.2923737  47.0118294  17.1059971
  76.5194626  47.5375671  17.3120041  76.9540939  46.2813797  16.5880756
  78.3980713  19.4395905  20.3410587  79.2346115  19.7745628  20.0182133
  77.7657623  20.1244373  20.1233444  71.8753662  58.0822525  62.2664452
  71.5795746  57.3047943  62.7400475  71.9932785  57.7830734  61.3648796
  38.1400299  66.6170731  13.7201824  38.8431931  65.9826813  13.8592577
  38.4180527  67.1185989  12.9537592   5.1989508  19.8191376  88.1870728
   4.7070780  19.0000172  88.2448120   5.0159111  20.1468678  87.3065491
  16.1264420  68.5146561  11.0358515  16.9230366  68.4740829  11.5650234
  15.4876289  68.9531555  11.5978699  20.8905964   1.3152719  13.6051960
  20.8449020   2.0875525  14.1688690  21.8033924   1.2812663  13.3190556
  83.9550323  38.2303009  74.9089813  84.6251984  38.8653641  74.6563873
  84.2242889  37.9304962  75.7772293  67.5643234  63.0852165  76.9817429
  67.1108246  63.2390862  76.1529541  66.8616867  62.9599991  77.6195908
  84.5542984  20.1300182  12.8582678  85.3328094  20.0226135  13.4047241
  84.8552322  20.6482067  12.1118441  61.8915749  59.0973015  63.7365417
  62.7561760  59.1473618  64.1442108  61.9966049  58.4605560  63.0296097
  49.3690186   5.5862370  54.3934708  48.4510307   5.3198423  54.4440956
  49.8541565   4.8432951  54.7525101  53.7134476  29.6408176  25.6903954
  53.3613396  29.8645954  24.8288994  54.5825844  29.2834263  25.5084496
   6.7445645  13.1658373  64.8208008   6.6776719  13.8197060  64.1249466
   6.8077054  13.6789694  65.6263733  57.5925293  43.8951149  85.8089600
  56.9179115  43.2955933  86.1278534  57.8610153  43.5275116  84.9669266
  63.9335251  36.0774994  56.7817230  63.7546883  36.8976364  57.2417488
  63.0943336  35.8342361  56.3908081   3.3217432  25.0997658  48.6848450
   2.5722446  25.6917706  48.6214981   3.7276363  25.3162003  49.5242729
  67.4924774  54.4849472   4.6387224  67.3435516  53.9087372   3.8890314
  68.4032593  54.7651596   4.5482335  35.2811356  57.4911690  23.5902348
  35.7764587  57.3929787  24.4034061  34.7335014  58.2627640  23.7350445
  15.6127720  51.7097397  29.9944229  15.1094255  52.5104103  30.1420746
  16.3102760  51.7411461  30.6492004  12.0497217  14.2062931  67.1082535
  12.1342325  14.9646816  66.5303802  12.1175213  13.4511881  66.5239182
   5.1538129  54.9710960  66.1249237   5.9445510  54.4657135  65.9363632
   4.4337926  54.3743210  65.9207993  79.1405182  71.2704239  29.9454994
  78.4831772  71.7343979  30.4640274  78.6826096  71.0265503  29.1410885
  67.6087036  48.6493683  40.3413582  67.0958328  48.0542221  40.8881721
  67.2912674  49.5219116  40.5740280  30.2679977  10.0137253  59.5316238
  30.9380436   9.6903095  58.9294014  29.7020550   9.2578726  59.6885567
  15.7146883   2.4157114  78.3097992  15.0185556   2.6122286  78.9367065
  15.9860840   1.5234159  78.5251770  71.9614792  68.0976028  45.8804131
  71.3290100  68.4410553  45.2493362  72.0456390  67.1711044  45.6551208
  74.6893311  42.5884781  65.1298981  75.2137680  43.2598305  65.5663376
  75.1078949  42.4747314  64.2766113  66.6248932  28.4572563  59.5549088
  66.4592056  27.8742790  58.8140221  67.3863907  28.9724827  59.2886391
  10.8623953  18.0858574  21.6744041  11.3930702  17.2912655  21.6174870
  11.4726152  18.7606068  21.9720249   1.8071026  28.7288723  30.7376118
   2.6328402  28.4422684  30.3474236   1.3539096  27.9164066  30.9628830
   2.4525962  18.7992954  40.8102531   2.1258955  18.6816101  41.7022438
   1.8377092  18.3102112  40.2634964  69.4477844  29.2753353  23.8915844
  69.8946686  28.6102829  24.4152546  69.1846161  28.8154984  23.0943871
  62.8401108   4.1071291  42.2058220  62.3597260   4.2708740  41.3942490
  63.7426414   4.3538761  42.0038719  69.1885605  59.8119583  25.4775505
  68.7331772  60.5488777  25.0703545  68.5251007  59.1247177  25.5388107
   4.9898810  59.2139702  27.4727325   4.6489744  59.4652557  28.3311443
   5.9411106  59.2338181  27.5776138  10.5872374  67.8498764  40.2785645
  10.4514790  66.9288101  40.5009117   9.7042494  68.2014389  40.1646919
  20.7759647   0.5790374  65.0029221  20.2368088   1.1603737  64.4666443
  20.1545830   0.1531083  65.5934296  35.6994781  56.1118126  64.2610931
  36.1589546  56.7752190  63.7463074  35.8709030  56.3537292  65.1712112
  24.9701862   4.0001817  85.4324722  24.2567387   4.2320552  84.8379440
  25.5746517   3.4897687  84.8936462  42.0368881  70.1466141  76.6587753
  42.1080322  70.8535690  77.3001709  41.9330139  70.5944748  75.8192139
  74.8982697  21.8392391  20.7130013  74.8745575  21.1529446  21.3798351
  75.2433319  21.4039402  19.9334621  79.1706848  56.1660194  45.1283302
  79.4528351  55.2681427  45.3028030  79.9071579  56.7078362  45.4116592
  84.1063309   5.6850595  13.5869217  84.5455246   5.4451437  12.7709646
  83.2410507   5.9889870  13.3127918  35.9885559  62.7891884  46.9950714
  35.7008209  61.9048615  47.2218056  35.5145302  62.9961700  46.1896591
  24.0829182  17.2668610  84.4456482  23.6639557  16.6399250  85.0352707
  24.9395428  17.4309521  84.8399811  52.9568138  53.6837997  14.4233265
  52.3786507  54.3093643  13.9867210  53.0041161  52.9409790  13.8214836
   2.3582995  32.8131523   0.3255927   1.9461811  32.1845207  -0.2670391
   3.0518515  32.3152084   0.7583383  16.7036552  62.2441101   5.9062848
  16.3726082  63.1117859   5.6743789  16.0063725  61.8549118   6.4340663
  35.9874802   7.8848038  34.1982269  35.4059219   8.6412926  34.2740250
  36.2889023   7.7238765  35.0923615  11.9282036  44.3799782  86.5041046
  11.4707546  43.7544975  85.9421921  11.8021441  45.2255249  86.0735245
   9.8449430  25.9920712  19.0149937   9.7164679  26.8333893  18.5769176
  10.7187099  25.7113781  18.7430115   1.7001401  19.2836037  79.9128647
   1.3827132  19.9106979  80.5626526   2.5628746  19.0216656  80.2342834
  17.6295242  43.0221748  31.7322102  17.4671860  42.1540565  32.1013298
  16.9739170  43.1149521  31.0409756  28.6390038  42.6014404  67.4115601
  27.7317696  42.8147278  67.1932297  28.8781986  43.2357330  68.0873489
  64.0783463  69.1404953  20.3740311  64.3343811  70.0437775  20.1875973
  64.0301514  68.7228622  19.5140953  65.2988129  58.3008690  45.9918518
  64.9446869  58.2499619  46.8796768  65.6956940  59.1704750  45.9417915
  42.5583000  30.4630184  65.8944626  42.4966965  29.5223923  66.0607681
  42.2544403  30.8700905  66.7057571  20.5378971   3.4137034  39.4756012
  19.9772301   3.9377818  40.0476379  21.3297119   3.9406812  39.3681030
  33.0440636  70.6476212  67.3301315  33.6183281  70.6776276  66.5649185
  32.1591835  70.6861267  66.9671707  10.4273615  23.6407909  79.2371750
  10.9664583  22.8686829  79.4087982  10.5250025  24.1802959  80.0217972
  56.3484840  69.6557312   0.8021247  55.9832001  69.7498322   1.6818650
  56.2959023  70.5342407   0.4257172  74.8606491  68.9602737  42.7334747
  75.8036423  69.1045532  42.8120537  74.4811478  69.4567337  43.4585609
  64.7743759  57.1254845  33.5596275  64.4881592  56.9510689  34.4562302
  64.0143127  56.9096298  33.0193100   4.0906978  58.3564034  56.0168304
   4.0200591  57.9788628  56.8935890   4.2272553  59.2915077  56.1690102
  85.7762146   1.3682698  67.8542175  85.5681229   1.2351842  66.9294357
  86.6362534   1.7884094  67.8481445  19.7440834  51.8211861  52.0545883
  19.2535248  51.2049255  51.5107079  19.3037090  51.7940750  52.9040413
   6.5890880  23.8535690  71.1379318   6.0015593  24.3072853  71.7422333
   6.0132194  23.2882900  70.6230850  85.0325012  17.4222488  31.7662563
  85.7423782  18.0246086  31.5438290  85.4692459  16.5852642  31.9241867
  70.5608368  34.5184326  51.1877823  71.1800766  34.9086189  51.8046570
  69.7009125  34.6859856  51.5733719  34.2227478  66.0789261  77.8591385
  34.0603523  66.4823074  78.7118683  33.7154579  66.6078949  77.2434464
  55.8072624  54.2487335  66.0109863  56.1348457  54.8238678  66.7024689
  55.1605263  54.7786865  65.5450363  36.8019218  61.2743073  58.5830536
  36.7599640  61.8761520  59.3261871  35.8897858  61.1582680  58.3170242
  72.0521088  23.8478470  72.8194580  72.7840424  23.3854218  73.2276993
  71.5297470  24.1666222  73.5554962  17.2152405   0.2574494   9.7920551
  17.7431564  -0.4067333  10.2352228  17.7528667   1.0488931   9.8204422
  59.0326347  64.6618118  70.9704437  58.6099510  63.9589882  71.4640121
  59.0956154  65.3868103  71.5922546  13.0920315   3.4036400  18.8519516
  13.5500822   4.1060109  18.3903275  12.2043629   3.4210043  18.4942150
  56.4119682  64.8485031  48.7915726  57.1946297  65.3754654  48.9527817
  56.7459946  64.0287704  48.4273071  65.1525650  44.7740936  71.1639786
  65.7324371  45.2222519  70.5482330  65.0175476  43.9082146  70.7789383
  37.7874146  10.9158440   0.2777731  36.8409042  10.7884798   0.2135522
  38.1120872  10.1052999   0.6699934   3.6356087  52.8020592  64.8836288
   2.8645201  52.7950401  64.3165283   3.6353323  51.9396515  65.2989426
  65.4885635  49.1792984  73.9630508  64.6455688  49.1854630  74.4164276
  65.9431076  48.4130173  74.3129654  48.8832207  67.6001205  65.5379257
  47.9507790  67.3843307  65.5231476  49.3242416  66.7688751  65.3625259
  22.9772949  14.4742107  81.4497757  22.9610348  15.1360426  80.7584381
  23.6997509  14.7398767  82.0187302  38.7195549  16.7937527  87.9100342
  37.8379288  16.4209747  87.9088516  39.0273476  16.6779652  88.8089752
  23.1531429  51.2890358  49.3269997  23.0289059  50.8842773  50.1854706
  23.2524548  50.5505676  48.7261391   0.7026259   3.1136615  23.5253201
   1.6266007   3.3432903  23.6241779   0.6108959   2.2832508  23.9924774
  41.1662025  31.1929741  86.4084930  41.6390610  32.0148888  86.2777710
  41.2262344  30.7452793  85.5645752  79.0930634   1.1840774  37.9049530
  78.3595276   0.5691312  37.9056091  78.9605331   1.7158247  38.6897507
  57.8002357  14.7011585  67.1577759  58.6386070  14.4740267  66.7555618
  57.1490555  14.2343073  66.6340866  58.8981895  24.7139473  31.1625099
  57.9872665  24.7813721  30.8763237  58.8787727  24.9678211  32.0852242
  28.2073154  67.0359879  45.1724243  27.5440407  66.6988220  45.7746010
  28.9519157  67.2530518  45.7333908  75.4502487  11.3295383  64.7101517
  75.1089325  10.8712950  63.9421997  75.4666748  12.2509966  64.4515457
  70.7177048   0.1461844  27.3133469  71.0231400   0.4077087  28.1819935
  69.7642059   0.1188335  27.3929214  59.6323166  30.1842766  59.2822456
  59.3905640  29.7135735  58.4846077  59.5185356  29.5422554  59.9830246
  35.2864532  68.6604156  15.9343529  34.8282280  68.8568878  16.7514572
  34.6178970  68.7556000  15.2559690   5.9811954  53.8487434  83.0626984
   5.9155750  54.5353661  82.3990097   5.2526464  54.0215950  83.6589966
  19.7740211  66.6097031  68.8367386  20.4363327  66.3744736  68.1869354
  20.2755337  66.8215485  69.6240387   3.2392263  20.1305962  33.2116127
   3.1099062  19.7523785  34.0813560   2.4182196  19.9578323  32.7508163
  79.1440048  15.7011766  76.5646286  78.7527313  15.3497238  75.7648621
  79.7607498  16.3656750  76.2575455  56.0454445  28.8552361  54.7406616
  56.3970146  29.6094418  55.2137413  55.6824532  29.2252312  53.9359436
  76.4036026  52.0950165  33.6154823  76.2038498  51.2794189  33.1559868
  76.3946686  52.7639771  32.9309082  13.7035084  53.6689720  84.0198593
  14.2106018  52.9401131  83.6622925  14.3003025  54.4164734  83.9836960
  13.5457716   3.2713277  49.1721992  13.8908043   2.7801850  49.9178276
  13.3920784   2.6083183  48.4991226  58.8358574  58.3741608   3.2227240
  58.8322220  59.3217659   3.3578696  58.7754288  58.2673798   2.2734201
  10.5202427  38.7915726  84.9554977   9.7348719  39.0170326  84.4569092
  10.1913614  38.3159447  85.7182846  24.9413071  61.1701775   9.5903988
  25.0571671  60.3160172  10.0065947  25.5959187  61.1871910   8.8922405
  58.7397766  16.1973000  39.4887428  59.3615761  15.4700851  39.4612198
  58.4759636  16.3214931  38.5770340  46.3272591  52.4744911   7.0305614
  47.2180176  52.5102844   7.3791299  45.7905769  52.1966248   7.7728515
  67.2447433  35.3929863  24.3003330  66.7507477  35.1076736  25.0689640
  67.9136810  35.9813766  24.6503983  72.1864700  11.5493536  88.3656082
  72.2218781  10.6010618  88.2402267  72.1750031  11.9080181  87.4782181
  64.5200424  22.1710186  58.1162033  65.0454788  21.5048618  57.6730499
  63.7529221  22.2835255  57.5548592  42.9521561  62.1274986  24.0952740
  43.8848381  62.2303009  24.2844124  42.6622505  63.0024567  23.8371449
  69.0685349  49.7381134  57.6839294  69.3787231  48.9069710  58.0434074
  68.2728806  49.5092316  57.2035332  59.8753929  19.9735432  25.0115528
  59.4559784  20.8174400  24.8437424  60.6533623  20.1906662  25.5252190
  12.2973433  34.5176659  63.3352203  12.9668550  34.7571411  63.9760284
  11.9566565  33.6791496  63.6467590  83.4800949  14.3375740  71.3171082
  82.8980560  13.9245195  70.6792679  83.3690948  15.2768040  71.1696014
  69.4070969  16.4545727   3.9279225  70.1037750  16.8905315   4.4186463
  69.8297653  15.6870642   3.5425389  16.3561649  50.7126884  55.9737167
  15.6737347  50.9771194  56.5906448  16.7779884  49.9614220  56.3907242
  48.4469528  69.2156677  25.1365395  48.4736443  68.5228958  24.4765453
  49.2775383  69.6795044  25.0306320  66.8067703  20.0811157   2.2005224
  66.6917496  20.8599720   1.6561085  67.3046494  20.3895092   2.9576483
   1.7232616  49.7621613  73.1559906   2.4546800  49.2553482  73.5086899
   1.4230783  50.2941666  73.8929367  62.2002144  61.4860001  47.1709671
  61.8186378  62.3288231  47.4164848  62.4773750  61.6041298  46.2624168
  20.7049637  51.4597511  42.4794006  20.6330547  51.5304184  43.4312744
  21.2198429  52.2240868  42.2207031  43.3458214  63.2363091   6.6564088
  43.2397346  63.5061836   7.5686288  42.8130760  63.8571587   6.1594567
   8.4675789   2.2088301  49.7941055   8.6748457   2.9777751  50.3251381
   8.9685173   2.3324397  48.9878731  47.9701843  23.1673756   4.6711035
  47.7381516  22.2638607   4.4565001  48.9228210  23.1974583   4.5827441
  70.1229706  67.3288193  74.1077194  71.0406189  67.3333359  73.8354416
  70.0637207  66.6109772  74.7381363  21.5759220   7.8563609  10.0107718
  21.5204601   8.4912806   9.2966061  21.2228622   8.3191500  10.7706451
  51.5532722  50.3300018  32.5714149  52.1098900  49.5614815  32.4457664
  50.7349701  49.9783173  32.9220314  55.8511047  51.6508789  74.7687073
  55.5542412  51.7570648  75.6724930  56.7974701  51.5264854  74.8405075
  81.6377335  27.0196228  11.3055401  81.9023666  27.3635349  12.1587276
  81.2862549  26.1499863  11.4963875  57.5538330  46.2373581  41.3293762
  57.7623405  45.3764801  41.6922035  56.9213791  46.0573311  40.6338043
  82.7394028  47.5306587  34.9654274  83.1650848  47.6115379  34.1119118
  83.0357971  46.6849060  35.3017120  22.1680641  11.2087173  15.6679344
  22.2740479  10.5157280  15.0161943  22.6296921  11.9601412  15.2957878
  80.4019699  40.9383430  16.3474464  80.0080566  40.0929947  16.5629673
  80.4725571  40.9332848  15.3928661  61.2841110  62.2850571  81.9086838
  60.6752243  61.9528351  82.5683212  62.1046448  61.8255882  82.0871277
  86.3316879  26.2896843  83.5667801  85.7507629  25.5289688  83.5583420
  87.1167221  25.9865036  84.0228958   0.2189245  29.1282768  76.5383224
  -0.0996465  29.7789612  75.9127350  -0.0742985  29.4514542  77.3902664
  49.8586845  50.1456184  23.4517021  49.9935036  49.1981926  23.4308281
  48.9691467  50.2683258  23.1201859  51.6495018  16.3184910  11.9168167
  52.4699135  16.3795853  11.4275055  51.9216309  16.1986732  12.8266640
  48.5403976  24.6553802   0.9875377  48.2816200  24.7533455   1.9038723
  47.7516098  24.3369331   0.5486319  59.9357567  20.4063396  81.0133667
  60.1042709  19.4700775  80.9073029  59.2349319  20.5957432  80.3895035
  36.6520042   1.4650164  40.3953056  35.7242203   1.3362410  40.5924416
  37.1098938   0.9022955  41.0197372  11.1571760  26.7867413  21.8651352
  11.4385862  27.6211681  21.4899387  10.7075548  26.3408604  21.1473179
  76.0612106  16.1079521  77.1567383  75.7568893  15.2077932  77.0412521
  76.8949432  16.1409607  76.6876602  79.3281555  35.4451599  29.9526482
  78.4809723  35.8179665  29.7086678  79.3611755  34.6053886  29.4944744
  56.4020195  41.8428612  41.3726196  56.6440544  42.5621796  40.7893257
  56.3063507  41.0867386  40.7935181  52.9644852  61.1913872  67.9036407
  52.7580376  60.2570572  67.9289703  52.7316933  61.5118294  68.7750473
  36.7910194  23.1751728   5.8352056  37.6281395  23.5572777   6.0987415
  36.1371231  23.6612625   6.3375711  11.3148842   3.6058159  77.0327682
  10.6477251   4.0659671  77.5420761  10.8369265   2.9044294  76.5902252
  69.7225266  63.6710548  25.3271866  70.3115311  63.0084877  25.6881790
  69.2586517  64.0195084  26.0885220  60.6382942  61.4530106   5.9241662
  60.4190903  61.6464233   6.8356338  59.7910233  61.3606682   5.4884672
  85.4948730  43.5785637  14.0117140  85.6155396  44.3309441  14.5910225
  85.2161026  42.8710022  14.5929832  47.8143120  21.3340836  58.8215179
  48.3573265  20.6686993  58.3988686  46.9223976  20.9930954  58.7548599
   4.8283691  51.2513123  11.6078510   4.8618846  52.1766739  11.8503704
   5.7394543  50.9603729  11.6467228   7.3608670  12.1188574  47.5066643
   7.4784083  11.7320509  46.6390266   7.2888489  13.0590334  47.3419991
  16.7472153  16.2516422  89.3570251  16.2390537  17.0496082  89.5028152
  16.4571304  15.9359684  88.5012054  16.0625286  68.2430801  36.5674248
  15.8215113  67.4396286  37.0285187  15.5415373  68.9265823  36.9888802
  79.2788010  40.9416695  37.8500595  78.8113022  40.9031448  38.6844444
  78.5955429  41.1056061  37.2000465  57.3221550  56.9881897  38.9920616
  57.4140091  57.2639847  38.0800705  57.8551788  56.1958313  39.0575142
  13.2411366  45.1417694  12.0242586  13.0575008  44.2690544  12.3719320
  14.0677862  45.3943405  12.4354630  48.5463371  19.3077450  30.9866161
  48.9617653  18.5113277  30.6559067  47.7475243  19.0008392  31.4154968
  59.8303490  71.1994171  11.6540298  59.4595184  70.6817551  10.9393663
  60.1842651  71.9792023  11.2263498  58.8294029  55.0369072  65.3327484
  59.6697731  54.9563599  65.7838821  58.2162857  54.5448380  65.8788071
  56.3750839  31.5375996  63.6094246  55.4478607  31.5409908  63.3717651
  56.7255478  30.7488861  63.1954956   2.4490895  15.8654509  40.7591553
   2.9486542  16.1214924  41.5344696   3.0699580  15.3667068  40.2281113
  77.0127335  42.6997757  63.5422363  77.8077393  42.1684036  63.4993896
  76.3827286  42.2329254  62.9932518  83.2244797  19.3031101  35.7529640
  82.6756668  19.1197586  34.9904518  83.6806183  18.4790401  35.9234772
  35.5861893  42.7373886  75.2322006  36.0820274  43.5420876  75.3833237
  34.9105530  42.9871788  74.6018448  75.9714661  15.9352312  30.1613235
  75.8720551  15.9071064  31.1129322  76.7123489  16.5234146  30.0151863
  66.1583481  30.6862469  68.3428802  66.3987350  31.4530773  67.8228607
  66.5446854  30.8496284  69.2032700  49.0603790  60.5158195  67.3447876
  49.1285477  60.1031952  68.2057953  49.7176514  60.0682297  66.8119812
  68.3337936  36.1679726   2.8798583  67.6554565  35.8622513   3.4820449
  67.9356842  36.0929565   2.0126123   2.5538790  69.3870163  79.5315475
   1.7524148  69.9012070  79.4341202   2.3336382  68.7213287  80.1831512
  30.8461514  34.4850388   3.8474860  31.4944134  34.9483414   3.3170738
  30.7493000  33.6347694   3.4186554  11.8425522  55.9822235  16.4917870
  12.5704422  55.5303040  16.0649643  12.1819267  56.8568802  16.6815948
  37.9277458   0.3176258  80.2781067  37.5016212   0.6492662  81.0684662
  38.0288391   1.0881252  79.7192307  67.0089645   9.5095892  73.8343887
  66.3103638   9.1119967  74.3541107  66.6258316   9.6222906  72.9644775
  68.5740585  27.9028091  16.6030369  68.3976059  28.6301003  16.0062580
  69.5081711  27.7246284  16.4938602  15.2217665  27.5131969  85.5322647
  14.3868675  27.8154507  85.1747513  15.7759371  28.2936325  85.5391846
  75.6057510   1.8926216  35.7056007  76.1215134   2.6573954  35.9612198
  75.2647934   2.1125550  34.8386459  72.7899933  66.9803619  73.7531204
  73.3408966  66.2167053  73.9250870  73.4032822  67.7142563  73.7142639
  18.4226646  65.1555252  73.3522263  17.5191021  65.1246490  73.0378189
  18.5605049  66.0710068  73.5953751  74.5750885  16.7525120  50.7101440
  74.9889450  16.2174187  50.0329208  74.9999542  16.4801693  51.5235023
  10.9004250  38.4109421  37.2698746  10.6773167  39.3179016  37.0604019
  11.6280165  38.2018547  36.6841049  45.6310349  21.9898415   6.2743635
  46.4544449  22.3601875   5.9564400  45.1948433  21.6645737   5.4868569
  73.7933502  37.2727013  48.5177155  73.5414124  36.6711731  49.2183723
  74.5774384  37.7108345  48.8485870   9.5416079  48.1162148  78.1760330
  10.2858715  47.7542038  77.6951447   9.2202845  47.3860970  78.7050934
  76.4597092  36.8801651  63.1023483  76.0558395  36.0207443  63.2228165
  75.7969589  37.3936310  62.6404572  30.7545872  42.3908386  11.3273888
  29.9073448  41.9514961  11.2539644  30.5929546  43.2780113  11.0063944
  15.4339828  57.2887993  70.0322571  16.0665302  56.5717697  69.9877014
  14.7466736  57.0406265  69.4140015  45.9476242  62.6399307  82.8917160
  45.7343025  62.5276108  81.9653702  45.2332916  63.1741600  83.2389297
  18.4698906  61.3880348  76.2528687  18.5160446  62.0720749  76.9208450
  18.5029278  60.5686035  76.7465057  85.4383163  60.9691620  38.0159302
  85.2304382  61.2026596  37.1112251  86.3828659  60.8140640  38.0122719
  44.1820564  56.3535309  26.9730530  43.9918976  57.2509651  27.2463341
  45.1302872  56.3385353  26.8431931  11.1085930   8.1791945  71.3154221
  10.7683077   9.0591021  71.1535645  10.3562422   7.6885524  71.6462860
  65.4385223  27.0017452  27.5143776  65.9545746  27.2987938  28.2638302
  65.1760559  26.1099854  27.7426510  64.8759537  62.3573723   6.9714527
  64.1780472  62.8343315   6.5223866  65.6053772  62.9762421   7.0056725
  12.7394800  70.6048431  44.5656013  13.2543783  70.1369476  43.9081955
  12.1857672  71.1983261  44.0582466  51.5057640  25.8478870  21.4795284
  50.9300308  26.1927719  22.1620388  50.9296875  25.7091141  20.7277927
   1.7791269   6.3317566  13.7499762   1.8452544   5.4962716  13.2875652
   0.9272848   6.2978411  14.1852312   5.1388292  31.3192406   2.7181866
   5.8840303  30.9352951   3.1802404   5.0753689  32.2094879   3.0641127
  78.3281937  40.3635559  79.2012253  78.8417130  41.1711235  79.2204056
  78.9799728  39.6671104  79.1213531  48.0332336   2.3870242  31.8098679
  48.8361893   2.9061613  31.8544979  47.8257332   2.1878588  32.7228355
  15.5607748   4.9914780  30.4410477  15.1161137   5.6694536  30.9498272
  16.1612091   4.5804329  31.0629406  15.7353468  14.7145243  69.4742126
  16.1552868  14.0862684  70.0617294  15.9190569  15.5684252  69.8657913
  75.4738083  56.4158020  84.8654480  75.2767715  57.3524628  84.8567963
  75.4396515  56.1553497  83.9449997  21.9597988  19.4026222  80.5291214
  22.9092884  19.3021717  80.4612122  21.7685947  19.2517815  81.4548264
  14.3768101  12.9714308  65.2872086  13.6360693  12.5767431  64.8270416
  15.1435280  12.5108585  64.9462585  82.4887238  36.7881470  61.8557663
  82.6443634  35.8940086  62.1599426  82.9635010  37.3389435  62.4782143
  57.3388062   3.2847097   1.2705268  57.6610146   2.4847436   1.6858188
  57.5526886   3.9802661   1.8923689  45.9706268  22.8296490  16.1597137
  45.8693428  23.0779610  15.2408476  45.0827789  22.8623886  16.5159283
  54.6737061  54.8900452  61.3724594  55.2339287  54.5774689  62.0828667
  54.3886375  54.0937843  60.9241943  73.3600388  25.1459484  57.7976837
  72.5806580  24.5910530  57.7678871  74.0012054  24.6877251  57.2543869
  74.9650421  60.1020927  29.6797428  75.2206039  60.1194344  30.6020317
  75.7457352  59.7922668  29.2206612  77.0238953  12.1612206  13.3598003
  77.5471649  12.8959284  13.6801462  76.1177902  12.4239960  13.5215445
  64.8386765  41.2031670  26.5388622  64.5407486  40.4763145  25.9919090
  64.1915359  41.2545204  27.2422829  73.6406631  70.2791290  44.8681641
  73.4128799  69.4406433  45.2697868  74.1323318  70.7434540  45.5455818
  65.8392639  11.8665733  79.1919250  65.4526978  12.5244875  78.6140366
  65.1419296  11.2242622  79.3238449  34.2303200  14.1121435  72.8246841
  34.8040771  13.3569345  72.9538879  34.7184525  14.8493185  73.1914673
   3.9801686  11.3878403   2.8495295   4.8458471  11.7955112   2.8747642
   4.0833988  10.6429224   2.2573531   4.6438313  66.3943405  24.1355820
   4.2067685  67.1621094  23.7671547   5.4647708  66.3289566  23.6477146
  70.5591583   7.3338881  36.4203377  70.7405624   7.9172773  35.6834641
  71.4117203   7.1979513  36.8337250  20.7620716  66.1054306  46.3558197
  21.6177788  65.8255081  46.6808395  20.6910686  67.0209885  46.6258926
  48.3819313   5.2767797   7.9953904  47.5386658   4.8739753   8.2024727
  48.6350365   4.8860874   7.1590114  32.6959534  50.7984390  86.3576050
  31.9282551  50.7592621  85.7872238  32.3657990  51.1627235  87.1789017
  34.5013809   3.5787735  37.4445114  35.3121109   3.8389609  37.0071945
  33.8307190   3.6448486  36.7647476   9.3048153   8.8001680  78.9746933
   9.0384369   9.6122971  78.5437393   9.7076015   9.0852251  79.7948990
  21.5608234  68.3246994  13.6561508  21.1059361  69.1580124  13.7781858
  21.5664310  68.1914520  12.7082872   2.1598334  46.7010727   4.9280887
   1.7066199  45.9254074   4.5976801   2.2388391  46.5493088   5.8698730
   0.6637771  47.6088486  10.5974331   1.3293289  48.2469444  10.8545494
  -0.1334719  48.1264877  10.4848347  57.5947571  63.4214249  88.1020203
  58.0643044  63.0848732  88.8652344  58.2837906  63.7322578  87.5147858
  41.2734108  32.4161797   7.6647563  41.5533524  31.5464172   7.9500194
  41.3883820  32.4051285   6.7145505   0.5676480  62.9417534  57.6979752
   1.0749314  63.2838516  58.4340897   1.1507852  62.3089600  57.2787476
  21.0774593  54.9666901  82.6291122  21.6226254  55.5991402  83.0971222
  20.4030933  55.4983711  82.2062988  44.6273155  20.6485634  13.2584333
  43.8125458  20.3761997  12.8362961  45.0562096  19.8284721  13.5028419
  83.6596832  31.3168888  82.9624405  83.1607208  30.7815037  82.3454819
  84.5242691  31.4023361  82.5606537  57.3665504  39.1373711  70.2109451
  56.7161293  39.1751709  70.9122009  56.9956627  39.6747894  69.5110474
  48.1039276  61.0353088  39.8496208  47.8695068  60.6170006  40.6780510
  47.7609711  60.4456749  39.1781006  72.6904297  32.6369667   0.4990952
  71.7703247  32.8975449   0.4573959  72.7245331  31.8026714   0.0310984
  83.6375351  35.0740585  76.6534576  82.7066498  34.8569946  76.7041626
  83.8246613  35.5206375  77.4791565  57.7655411  65.4300461  82.0162201
  58.6117935  65.1120071  82.3307648  57.8334007  65.3880844  81.0623474
  54.9095497  58.9205055  12.9829254  54.9101143  59.6193657  12.3288441
  54.0068436  58.6022835  12.9926453  46.8126183  62.6364021  42.9600487
  46.2145538  61.9581833  42.6460915  47.6753540  62.2221756  42.9416656
  43.4590683   7.2779536  85.0962219  43.1206818   6.9437838  84.2655258
  44.3186607   6.8668437  85.1874313  28.6503162  64.6248703   3.3243575
  29.3033485  64.0871429   2.8764400  28.6490898  65.4515991   2.8419156
  34.3478355  18.7575321  10.9888535  33.6150284  19.0906849  10.4709358
  35.1089745  19.2385216  10.6639729  12.6349449  67.0012436  37.5240555
  13.1294260  66.9084549  36.7097397  12.6602488  66.1302261  37.9202003
  12.7681971  28.4934139  85.0231400  12.0738907  29.0672016  84.6992035
  12.5361824  28.3291245  85.9371490  81.3420410  58.1056480  17.4597206
  81.2987823  58.4248543  18.3610897  80.5704956  58.4810181  17.0354099
  58.3017921  64.7998734  20.5606117  58.3385849  64.8159485  19.6042538
  59.1919861  64.5745239  20.8307953  16.4324455  50.3329430  18.2598457
  16.8498230  51.1941338  18.2403984  16.6722393  49.9697647  19.1123905
  67.4901276  41.0860138  88.0808029  68.3089371  41.3044853  87.6357651
  67.3438034  41.8144341  88.6843185  57.4126625  44.3715324  78.6630096
  58.0035629  44.6041031  77.9467850  57.0984230  43.4954758  78.4393845
   7.6119022  17.3759384  65.7917709   7.2347550  16.8588486  65.0800018
   6.8813262  17.8999023  66.1203308  81.5273285  18.1718197  71.3412094
  82.2779160  17.6402531  71.0760880  81.9145813  18.9608860  71.7202148
  53.5239067  69.6645508  26.5484219  53.7327805  70.0960007  27.3769474
  53.7045097  68.7382812  26.7085342  13.3023891  34.3950577  10.1630096
  13.4748459  34.9954300   9.4377193  12.7539883  33.7096291   9.7813339
  71.4746399  34.7826157  67.3931274  70.6505966  34.4233742  67.0643082
  71.9045792  35.1440315  66.6180420  24.2648964   1.0248984  33.5004959
  24.5192566   0.9632971  32.5797691  23.6641064   0.2915270  33.6325874
  45.0156059  23.3013363  70.6796417  45.9497261  23.2177677  70.8711166
  44.9751854  23.9179764  69.9486389  57.4191475  54.0259323  51.6077080
  57.8131409  54.6262360  52.2406654  56.8680954  54.5841446  51.0590973
  74.3625565  19.7744198  15.1698723  74.2192764  20.6225605  15.5898237
  73.5440598  19.2976360  15.3076105  11.5533123   6.1427593  56.7946167
  12.3972054   6.4214463  56.4390755  11.3551788   5.3289523  56.3312683
  78.0108643   4.9688878  54.4654121  77.9766998   4.9908185  53.5090714
  77.9301529   4.0411334  54.6867447   5.1754098  64.4071960  68.3577042
   6.1065607  64.6261673  68.3224640   4.7277098  65.2400436  68.2088623
  44.0423126  62.1635323  40.7794647  43.1420746  61.8674545  40.6447868
  44.4222374  61.5137138  41.3707542   4.3319287  61.2431679   9.1650801
   3.5162258  60.9766235   8.7410336   4.5297909  62.0998306   8.7866468
  75.4745712  48.1427536   8.7579327  75.2456818  47.9498672   7.8487363
  76.4317093  48.1456337   8.7685242  25.5923157  51.5028496  46.1050644
  25.9424267  52.1999741  46.6597481  26.3323727  51.2362976  45.5596313
  24.8223953  45.4000053  12.1895895  23.8871708  45.2533569  12.0478907
  25.0898972  45.9608955  11.4615250  19.2510128  34.8713264  80.6258011
  18.9613781  35.3161278  79.8292465  18.5502224  35.0314522  81.2578430
  20.8187561  60.4482422  10.6178646  19.9667263  60.8568039  10.4650345
  21.4421253  61.1737556  10.5822020  39.5229149  61.1631546  84.3203812
  39.1794243  60.2760887  84.2137833  40.2799149  61.1987457  83.7356415
  75.4081421   5.6915512  80.0728531  75.4885254   6.0984335  80.9355316
  74.9686813   6.3516107  79.5367279  54.9282494  52.9117012   3.8182588
  55.2265396  53.2957115   2.9937632  54.8970146  53.6486855   4.4282694
  15.0186825  48.3587646  49.4885559  15.6122093  48.3981552  50.2384911
  15.4543753  48.8756332  48.8108749  26.6256256  30.4063110  67.5770416
  27.0480690  29.5477810  67.6034927  26.4089661  30.5383015  66.6540680
  39.6910286   8.6346474  19.7741432  39.0519753   9.2152863  19.3609829
  39.2902374   7.7665682  19.7289944  27.1733665  56.8760109  32.8389778
  27.0632515  55.9330025  32.7171326  27.6952343  56.9550095  33.6375046
  35.7252617  67.0640030  42.3892632  35.3014107  67.1544571  43.2427254
  36.1721992  66.2186356  42.4321976   3.3117254   6.5057464  82.1446075
   4.1988420   6.1600752  82.0457764   3.0845563   6.8346472  81.2748642
   0.4457746  52.0467491  17.9061699   0.0159260  51.4421272  18.5110626
   1.0560942  51.4985886  17.4129505  27.2683182  10.6321068  84.5294037
  27.9353180  10.5461330  83.8482590  27.4033566   9.8712301  85.0942535
  21.9726582  34.4028397  79.0190201  21.9583912  33.4680405  78.8136520
  22.8132343  34.7098885  78.6793289   8.8097544  70.5331192  16.7638893
   8.2132387  70.7213440  16.0393391   9.6775379  70.5123215  16.3604641
  51.1152000  34.7129021  85.7259521  50.9006500  35.6126289  85.4796066
  50.3056984  34.3683052  86.1030426  63.4392624  52.9223213   4.8736897
  62.8551064  53.5215492   5.3383613  63.0227699  52.0650444   4.9622350
  55.0078545  20.6166515  86.4004059  54.7242928  21.5250206  86.2970200
  55.8398895  20.5703926  85.9294434  78.7541199   1.8121217  65.8975677
  78.1672363   1.4043226  66.5343552  78.1713791   2.1547067  65.2198639
  48.3104973  40.6400757  31.0508461  48.9741707  40.2217140  31.5992451
  47.5325050  40.6827126  31.6068459  24.6234894  34.1345253  19.8736095
  24.8111553  33.9686470  20.7974586  25.1912308  34.8695793  19.6421013
  50.0750504  39.5280762  32.7117538  49.8658485  39.6729431  33.6345100
  50.2939911  38.5977478  32.6589928  22.3218079  19.5737305  68.7683411
  23.2239704  19.3000011  68.6027908  22.0671406  20.0499306  67.9780197
  32.5629196  17.7388268  82.6344986  33.1247520  18.5017929  82.4986267
  31.7287769  18.1049309  82.9284363  36.0353699  45.9129524  38.7053528
  36.3193016  45.6578560  37.8275452  36.2322197  46.8481865  38.7584152
  65.4860077  63.2302704  51.6362610  65.1404724  63.6390495  50.8427048
  64.7238235  63.1334686  52.2071724   7.8896570  62.1370926  22.4604034
   8.7496166  61.7281456  22.3631191   7.9628882  62.6620979  23.2574234
  57.4827271  68.4587250  33.2905083  57.0119705  68.6493683  34.1018448
  57.4200554  69.2670288  32.7816353  38.8209610   0.8631080  61.2471428
  39.1532593   1.6471320  60.8099709  39.4359207   0.1723834  61.0002441
  15.0285921  60.2733612  74.8871918  15.5309019  59.5393333  75.2409134
  15.3953695  61.0448227  75.3191071  26.4582748  18.9392986  48.6375542
  25.9354115  19.5062332  49.2045021  25.8693523  18.7110119  47.9183273
  72.6552429  63.1873627  38.5735168  71.8522034  63.5514374  38.9460831
  72.6169357  62.2549934  38.7867126  35.6377029  53.4401779  48.9527016
  34.6824570  53.3874016  48.9218178  35.8531723  54.2003670  48.4124069
  24.1961880  47.6653748  38.0708504  24.0551224  47.7748108  39.0112534
  23.5596294  47.0002060  37.8089790   3.2568512  44.7397881  67.8484802
   3.9118261  45.1203499  68.4336472   3.5486298  44.9852104  66.9704971
  81.4593124  56.7321091   6.8897481  82.1325226  56.3822594   7.4733801
  80.6401672  56.3642769   7.2213125   6.8502641  47.5780144  45.2565804
   5.9751220  47.1971359  45.1838570   7.4387875  46.8234444  45.2788582
  77.8094635  63.2998085  38.2025757  77.2515030  64.0589981  38.0336418
  78.4436951  63.3044281  37.4856644  77.5270767  25.7321892  28.5896339
  78.3723984  25.3242779  28.7774334  76.8837433  25.0507126  28.7844219
  22.1887665  41.6196022  65.1675949  22.5489292  41.4609871  64.2950439
  21.2567692  41.7774544  65.0169525  25.4668655  42.5450172  68.0349808
  24.5732441  42.2091179  67.9653931  25.3624096  43.4952240  68.0842972
  35.2670174  55.0341454  52.8692360  35.4952736  55.3882484  52.0097351
  35.1966171  55.8035660  53.4342690  47.3779411  43.9399567  83.1455765
  48.2105560  44.3598900  82.9296112  46.8305435  44.0822067  82.3733368
  60.3766403  64.7367172  82.6196442  60.7565193  65.4115524  82.0570374
  60.7864876  63.9225845  82.3273468  36.9471512   8.2277527  64.5246201
  36.0397377   8.4750605  64.7025757  36.9034729   7.2964439  64.3078537
  14.8247738  65.2927399  82.5423737  15.1083574  66.1647720  82.2678452
  14.0037117  65.4442139  83.0104980  62.4336128   9.5008602  53.3199844
  62.2711220   8.6118002  53.0047035  62.8586349   9.9419003  52.5844078
  80.1490173  15.3180046  65.1805115  80.0302429  15.6155767  66.0824966
  79.3728027  14.7881451  64.9989319  68.8885422   9.4922514  88.3382568
  69.8212585   9.5898132  88.5299606  68.7446976   8.5460320  88.3237457
   9.5398159  48.6135216  32.5463486   9.3009691  48.0043640  31.8477001
   9.1265259  48.2524567  33.3306046  69.8938675  36.3990173  57.8727837
  70.6317444  36.9397316  57.5909996  69.4042587  36.2243080  57.0690498
   3.7179914  70.0565948  11.2438745   4.1777759  69.3958054  10.7260132
   4.3664465  70.7471771  11.3811321   2.3844414  20.5864563  61.8881302
   2.8085380  20.1897964  62.6490746   2.3098230  21.5141125  62.1119957
  79.5378952   5.7278471  40.4013443  78.6970291   5.4909043  40.7925415
  79.5164261   5.3326645  39.5297928  49.3294334  50.7900238  57.1501007
  49.7370491  50.9587364  56.3006210  49.9417191  50.2061806  57.5978317
  39.4280052  64.3177261  35.9886246  38.5160179  64.5316010  35.7917290
  39.9294777  65.0452118  35.6204948  37.7603760  53.1273232  51.5870514
  38.3525848  53.4004974  52.2876892  36.8911896  53.3853836  51.8938942
  24.3651409  37.0758286  88.4398880  25.1409683  37.2504807  88.9726334
  24.6934376  37.0459747  87.5412445  58.1271477  58.8866234  49.2079124
  58.6148453  59.2180710  48.4539070  58.6294861  59.1826630  49.9670219
  25.9104328  63.5571098  86.0685043  26.0245628  64.5055237  86.1295013
  24.9704895  63.4208374  86.1875305  12.9014721  38.3380814  75.4647827
  12.9407806  38.1141548  76.3945923  11.9734335  38.2688332  75.2407761
  40.5137253  47.9239273  37.9935532  40.1062889  47.0583763  38.0258980
  40.2583199  48.3397980  38.8169899  17.7551346   8.9130564   2.4036407
  18.4218960   9.1444321   1.7570139  17.4358692   8.0556822   2.1221972
  48.5487480  37.9424973  34.4354858  47.8045197  37.9491692  35.0374107
  48.1522789  37.9140930  33.5647202  61.5647316  15.7289906  35.4583969
  60.9645844  16.3296623  35.9002609  61.0146980  15.2585592  34.8319893
  16.5986767  66.1508179  86.3631439  16.0611382  66.8396301  86.7540665
  15.9745226  65.5972214  85.8938980  85.8952408  19.1417007   8.8265028
  85.9087677  19.4158897   9.7434921  85.0808258  19.5058823   8.4796085
  31.5409012  63.5552063  30.1594124  32.2779427  64.1389084  30.3391285
  31.7139053  62.7796631  30.6931114  19.5207729  43.2116776  66.8873138
  18.6541367  42.9045639  67.1534958  19.5327816  43.1003609  65.9366913
  86.3719788  71.2003937  54.2579727  85.9803696  70.9577560  55.0970230
  86.3961487  72.1571732  54.2726974  84.6707153  45.9239998  21.3238125
  84.5744629  45.8518028  22.2734203  85.5497437  45.5894241  21.1460476
   5.4826846  15.9633760  49.7578316   5.5792274  15.4730654  48.9414330
   5.2952585  15.2956161  50.4175301  73.1635056  17.2520103  79.4503937
  72.6331329  16.5259304  79.1221466  73.8741455  16.8302803  79.9334717
  45.0710678  32.2218361  61.3659897  45.9619102  31.9770203  61.1156082
  44.6075096  31.3883286  61.4473038  70.4346390  44.4699364  20.6013756
  70.5255432  44.3569527  19.6552238  71.3280182  44.4000397  20.9378624
  10.0142040  69.0509872  19.8788509   9.1591358  69.3662491  19.5861111
  10.2003603  69.5608063  20.6673069  38.7512894  25.8018551  59.2908401
  39.5518112  26.0236702  58.8152390  39.0025787  25.0702782  59.8546486
  16.8916054   1.6009047   3.7533641  17.8223324   1.4266263   3.8933823
  16.5008583   1.5292928   4.6242375   4.9672518  27.2344227  64.2622910
   4.6055102  28.1205883  64.2716599   5.3469553  27.1214943  65.1336670
  53.1965599   2.5589519  65.8661957  52.7584076   3.1459780  66.4823532
  53.4836960   1.8198743  66.4024277  46.9730415  35.3623199  50.0242310
  47.5839844  34.6559868  50.2341805  46.1558037  34.9148293  49.8048935
  74.0952148  21.0419064  70.8214493  74.3156204  20.5143108  71.5891113
  73.1461945  21.1554661  70.8733292   0.9486797   6.9480824  76.0334854
   1.8491907   6.7791462  75.7564011   0.9250127   6.6748776  76.9505615
  28.5581379  12.6997175  78.4256287  29.4072018  13.0876961  78.6372681
  28.2703037  13.1666374  77.6411743  69.5210190   7.0403948   2.5402489
  69.8028336   6.5948586   1.7413039  68.5731812   6.9093637   2.5659437
  47.4365005   1.9816929  24.8325100  46.5634995   1.7315458  24.5299721
  47.9538956   2.0616748  24.0311775  71.6575089  33.4041481  13.0743017
  71.7460938  34.0606003  12.3833160  72.2083206  33.7298851  13.7861576
  51.0503311  42.7029419  89.1922989  51.5709229  42.8669281  88.4059601
  50.1887321  42.4501038  88.8607101  11.1806574  13.5751467  14.2973490
  10.9860430  14.3286743  13.7400761  10.8283930  13.8139915  15.1547251
  39.6569290   7.8113008  12.9922123  39.9997368   7.5060453  12.1522522
  39.3080559   7.0234361  13.4090939  23.8748741  51.8720970   7.5663285
  23.6138439  51.0188637   7.9128642  24.8317299  51.8562660   7.5865231
  57.8408623  42.3168182  46.8938293  57.7634125  41.5665131  47.4831314
  56.9508209  42.4623184  46.5730667  71.7746124  55.1302223  10.6002722
  70.9646072  55.4400711  11.0053797  71.6985550  55.3913689   9.6825304
  53.1267700  23.0115032  70.7771606  53.9365082  22.6862144  71.1705322
  52.4299507  22.5920086  71.2818298  19.1912785   1.7034314  26.9282627
  18.8457603   1.8970041  27.7996864  19.6672039   2.4953170  26.6779747
  24.1854706  45.7807312  79.1970139  23.2494869  45.8091698  78.9986267
  24.3717136  46.6307487  79.5957870  26.8634701  60.6363907  49.5126762
  26.4992504  61.4843483  49.2586250  26.7560177  60.6046829  50.4632988
  27.1754227   2.1617820   5.0448117  27.4254169   1.2380525   5.0234013
  27.6834373   2.5637925   4.3401561  25.2759609   9.0713787  32.4707108
  24.4088497   9.4727335  32.5278511  25.8799477   9.8122425  32.4202042
  40.5024261   6.4973402   5.2488322  39.7406158   6.0390625   4.8940663
  40.9562683   5.8374028   5.7729902   5.8198495  36.5190582   8.7262192
   5.6148686  37.4087219   8.4386263   6.5328994  36.2399826   8.1518431
  16.3916893  30.7714882  71.5328064  16.9492798  30.6044331  72.2926865
  15.8377438  29.9936771  71.4665833  46.5947495  44.4992714  18.1481285
  45.7642555  44.8768120  18.4379082  46.9713402  45.1635017  17.5708809
  58.7385902  21.1430645  54.6627045  59.0950775  20.2737999  54.4795952
  57.8157120  21.0801735  54.4165764  68.1080170  45.6995201  51.5260925
  68.6565170  46.3759346  51.1287956  67.8166962  46.0827560  52.3534355
  70.9411697  23.7133694  22.8283806  70.4502106  24.3339062  22.2897511
  70.5794449  23.8212376  23.7080097  54.1394958  66.2598801  64.5334015
  54.7784500  65.7589035  65.0403442  54.2618866  65.9616089  63.6321297
  19.3160400  66.0332642  85.9588928  18.4323540  65.6932983  85.8183670
  19.8805752  65.2620773  85.9060364  49.6606674   8.5639248   1.1888680
  48.9103508   8.8156090   0.6504352  49.2978172   8.4506617   2.0673571
  81.9970398  31.0654068  19.5130901  82.5226517  30.3873425  19.0886002
  82.4893036  31.2909546  20.3024197  33.4278259  30.6390953  65.9966125
  32.7465706  30.2035618  66.5088959  34.1005554  30.8676720  66.6380386
  71.9762268  18.1787319  12.9460535  71.5618210  17.3472347  12.7155876
  71.7142105  18.3334961  13.8535919  36.2860298  66.9141006  46.9565773
  36.2513390  67.8291931  47.2352066  35.5431442  66.8167953  46.3608589
  71.6343994  12.8507195  74.0412903  71.5227509  13.1648664  74.9385529
  70.7428513  12.6968479  73.7287140  42.0351753  14.4561615  83.6350479
  41.7425194  15.0079374  84.3603973  41.2564278  13.9605217  83.3818130
   0.5002103  56.3770409  82.6807785  -0.4276309  56.2473640  82.8770599
   0.8562689  56.7889748  83.4680252  81.2091675  14.8705587  60.5441589
  81.6667709  14.7460546  59.7126961  80.9049988  13.9951210  60.7835770
  19.7026672  44.9153938   0.4553534  20.4436436  45.0103264  -0.1431241
  19.3833847  44.0261269   0.3020632  36.0131111  38.7912521  79.7236557
  36.1875992  39.5561752  80.2719955  35.5224075  38.1967125  80.2910767
  73.9570007  19.3840275  61.0053978  73.5478745  20.1536980  60.6098595
  74.7257843  19.7284069  61.4599457  65.8680725  53.5081291  58.5381279
  65.7747650  54.3866348  58.9065819  66.8103561  53.4020615  58.4074249
  39.3706055  64.3840179  13.9997358  40.0175400  63.7123413  13.7839737
  39.1310806  64.2027054  14.9085722  86.1119537  59.8484917  29.5028000
  85.7446976  60.5962524  29.0314140  86.3518829  59.2266464  28.8157940
  28.7496357  64.0745773  88.0764389  29.2161865  64.7794189  88.5256271
  27.8237686  64.2718124  88.2182159  25.5106010  69.6522217  28.9102764
  25.1719837  68.7867050  29.1392860  26.0006714  69.5110474  28.1002560
  76.0487061  64.3314743  78.6954803  75.1924973  64.1777267  78.2961044
  76.4829330  63.4789162  78.6668167  64.8098679  27.9741249   5.8364754
  65.6940079  28.2756195   6.0453534  64.8529892  27.7272816   4.9126568
  11.2267618  29.0145454  77.4104309  12.0826015  28.8045406  77.0367050
  11.3353643  29.8907166  77.7802429  86.3605042  62.8319511  21.6705074
  86.3013763  62.4895973  22.5624332  85.9391861  63.6902885  21.7149963
  85.8869400  16.9696121  41.4929771  86.1098175  16.0393925  41.5283432
  85.4966965  17.1550426  42.3471146   9.0108690  48.2966881  17.4453144
   9.6387625  47.8201714  17.9883728   9.4721460  48.4447975  16.6197720
  18.0189419  14.4372473  61.0772972  17.0677376  14.3414946  61.1249924
  18.3395882  14.0525331  61.8930283  49.0086021  26.7366314  77.1033707
  48.4818268  27.4538078  76.7506714  49.8474731  27.1415253  77.3237991
  25.5727062  63.9882507  53.4425583  25.6018486  63.9831886  52.4858170
  24.6886864  63.6902084  53.6568375  49.7784386  58.7140121  39.3491058
  49.0572624  59.2026329  39.7458191  49.5336838  58.6319275  38.4273720
  43.5825577   9.5330153  81.8829346  42.7812004   9.9073229  81.5169449
  44.0220947   9.1296215  81.1343918   4.9260540  12.4476280  53.6496925
   4.0239019  12.7671661  53.6654663   4.8457832  11.4987392  53.7466431
  19.6054230  64.1544495   8.7778683  19.2189922  63.5907669   9.4480677
  19.2084026  65.0123215   8.9283991  12.2541475   0.6829641  80.7853546
  11.4472466   0.2844446  80.4592819  12.3552017   1.4797268  80.2645950
  80.8377838   4.7988796  31.2234097  81.6600723   5.2558270  31.0465469
  80.4662552   4.6305709  30.3574600  71.8395081  66.4478760  77.8566284
  71.5091553  67.2802124  78.1947250  72.2980499  66.0531387  78.5983582
  80.6566010  27.5101223  46.0601273  81.4814148  27.8807735  46.3740311
  80.7812805  26.5630016  46.1205215   4.0213218  46.7016068  16.1209793
   4.8601346  46.7098999  16.5820179   4.2570581  46.7410431  15.1941004
  79.5595474  44.8565636  66.6718063  79.5804672  43.9040260  66.5798264
  79.2458649  45.0042000  67.5640182  69.6618881  22.7308121  37.1328087
  69.3736496  23.6232071  37.3245888  68.8521729  22.2225189  37.0855904
  46.9084969  27.3538666   7.2889261  46.5645638  27.7025051   6.4664936
  47.2898140  28.1129856   7.7300229  56.2583427  52.2850266  13.9843702
  56.0076065  52.5055733  13.0873070  56.4785309  51.3541489  13.9495316
   7.9216681  61.5490875  11.0808315   8.8296118  61.8172379  10.9395332
   7.4174418  62.3586617  10.9997206  85.2259445  15.4720354  56.4664383
  85.3704147  15.8963032  55.6206474  85.5464706  16.1044712  57.1094933
  38.3846817  57.6503105  75.6823425  37.5879631  57.2006950  75.9639816
  38.6601524  57.1794052  74.8958282  49.5599899  67.2745361  53.2749557
  50.4470634  67.1604309  53.6159973  49.0472183  66.5921783  53.7081757
  63.0221214  31.0302563  32.3162117  63.7175102  30.6493473  31.7799549
  63.4513969  31.2528419  33.1422920  86.9700775  32.7880707  70.2698822
  86.1206131  32.6621208  69.8470612  86.7588196  33.1633186  71.1247482
   3.5146182  57.2577133  29.6154671   3.2547703  56.9981461  30.4993992
   3.4670036  58.2136993  29.6228313  30.6897221  55.1017380  88.8050308
  30.6315899  55.9836617  88.4375229  31.2082138  54.6104317  88.1678314
  31.2744827  15.6807938  81.1741638  31.9419689  16.1625309  81.6626511
  31.6883354  15.4835024  80.3339005  84.9390335  49.7877312  41.3932915
  84.1506424  49.4096260  41.7827835  85.0280151  50.6425819  41.8146515
  61.3299408  24.9694042  78.8918915  61.6199112  24.3466206  79.5584412
  61.7663498  25.7891102  79.1239700  34.7022476  65.6355133   4.4939761
  35.3514938  66.3324432   4.5888577  33.9234047  66.0780411   4.1566248
  15.8356819   5.1911650  69.6532593  15.1893511   4.6486163  69.2014542
  15.5271339   6.0881419  69.5249557  47.8993340  14.6237259  23.1935482
  48.3146782  14.0502281  22.5494804  47.0187187  14.7724991  22.8491459
  11.3936930  22.4934959  70.4016190  12.3181219  22.4902267  70.6499176
  11.3390379  23.1315212  69.6901627  53.2841568  59.5122986  55.7833824
  52.7212524  60.1355362  56.2426682  52.8388138  58.6706009  55.8805580
  41.3348579  66.1413956  62.6890030  40.8144379  66.6865692  63.2790680
  42.1035271  65.8968506  63.2043495  35.4842529  68.7662811  70.1420288
  35.3119698  68.6968994  69.2030182  36.4364471  68.7025452  70.2161865
  24.4280643  43.1528130   4.7027917  24.3908730  42.3952217   4.1189256
  23.5886593  43.1421890   5.1627049  55.5324783  34.3124466  23.2457066
  54.9830856  33.9280548  23.9288177  56.0416870  33.5767250  22.9056320
  39.9747963  41.8939171   7.3182249  40.4272079  42.6668015   6.9802761
  39.1369362  42.2278633   7.6386929  83.4455261  19.1436100  74.9331207
  82.8390503  19.8380756  75.1902771  84.0433273  19.0604382  75.6760635
  37.0939445  37.7188950  66.9015579  37.3596725  37.6428261  65.9851379
  36.1380196  37.6753464  66.8781586  70.9846344  26.9601078  15.7508879
  71.6069717  27.1018848  16.4642086  70.6830750  26.0596981  15.8715477
  65.9081421  45.5619469   0.8704833  65.9748917  46.1355591   0.1071070
  65.6873932  46.1496086   1.5930858  23.0663853  12.3903246  78.1488571
  23.2811584  11.4625292  78.2452927  22.1712933  12.4646244  78.4797974
  29.0172939  34.8516006  79.9048767  29.8802567  35.2598991  79.8354492
  28.7038765  35.1003799  80.7744217  56.7717667   9.8723516  67.3571014
  57.7211838   9.9376230  67.4599304  56.5872955   8.9355812  67.4253922
  21.0161877  13.2578812   8.9469709  20.8408661  12.5941620   9.6140318
  21.8296375  12.9711943   8.5318279  49.7256088  28.9525642  27.8946400
  48.8852921  28.7200546  27.4996262  49.6625481  29.8941326  28.0549622
  65.0089188   5.6230564   7.7310061  64.0812378   5.4122920   7.8368754
  65.4683914   4.9159002   8.1838293  75.2693787  12.1961327  82.2027130
  75.0228043  12.0287123  81.2930984  76.0701904  12.7169313  82.1418152
  12.2320166  69.0212784  30.3412247  12.1006584  68.1360168  30.6807671
  11.3931303  69.2515640  29.9418907  83.8725357  29.5033455  17.9459229
  83.3834534  29.4729462  17.1236668  84.6492462  28.9683132  17.7825317
  47.0830536  21.6801033  23.1635284  47.8550301  21.1824551  23.4330235
  47.3119354  22.5923061  23.3416538   1.5146743  46.5148964  26.1574249
   0.6070859  46.2283974  26.2595692   1.9272451  45.8235512  25.6396770
  84.9623032  34.0528488   9.9201956  84.8305206  33.1064949   9.8628941
  85.0529404  34.2257423  10.8572788   0.8400654   3.1392107  52.0774498
  -0.0422405   3.4212725  52.3187141   1.0447444   3.6413574  51.2886620
  23.0951786  48.5427246  71.6092453  22.5522823  47.8723526  71.1944046
  22.8385887  49.3585510  71.1793289  40.0484543  63.7586212   9.5190611
  40.3586655  63.2652588   8.7597218  39.5937195  63.1101227  10.0565557
  39.9968529  60.9549217  49.3888054  40.8650055  61.2476616  49.6660233
  39.8975067  60.0898857  49.7863922  45.1615448  45.9277458  59.3460999
  45.4844818  45.0267448  59.3579865  44.2796440  45.8709602  59.7138710
  16.2005310  23.3969765  66.2322617  15.4777079  22.8503742  66.5404587
  16.0871449  24.2272224  66.6949387  20.4927540  19.4398670  77.2667618
  20.6407051  19.3876495  76.3225098  20.5912819  18.5389633  77.5748138
  66.1346588  20.0904751  62.5445137  65.5446701  20.2272015  61.8032684
  66.6294708  20.9071941  62.6106110  35.5075569  63.6720695  74.1201477
  36.3592873  64.0634842  73.9263077  35.4910851  62.8663788  73.6035995
   5.7738705  53.5336647  51.3312874   5.1826110  53.1291695  50.6964417
   5.9423251  54.4074974  50.9787598  52.3813934  41.4325066  80.9256897
  52.8902893  42.0192299  80.3662186  52.9398613  40.6630478  81.0365143
  81.5936661   5.0201354  21.6947327  81.8923874   5.2033777  20.8039913
  81.3870239   4.0855160  21.6905460  51.9732971  62.8750267  31.9076290
  51.6957474  63.6790276  32.3466949  51.7142372  62.1739044  32.5055847
  69.7286453  25.5228062   0.9117793  69.2451706  26.1237183   1.4786893
  69.8701630  24.7454357   1.4520582   2.4422638   7.2289686  11.1978436
   1.6587983   6.6953702  11.3308353   2.2093108   8.0882683  11.5493660
  74.8301010   4.2085981  15.2433758  75.5427017   4.5267677  14.6891203
  75.0715408   3.3054564  15.4489822  32.5526848   8.6810951  69.6349106
  32.6192589   8.6413212  68.6808548  31.8994560   9.3606806  69.8013000
  16.7681828  66.9356995  76.9008789  17.4932804  66.5909348  76.3797302
  16.8573818  66.5039597  77.7505112  59.9217377   3.0477817  17.3271351
  60.2837601   3.8760109  17.0121613  60.4153442   2.3762057  16.8564205
  50.7285881  27.9470425  37.9875183  51.2780609  28.4003429  37.3481178
  50.5273666  27.1060963  37.5769653  42.0590019   1.4818448  17.9018421
  42.6745415   1.3822114  18.6280766  41.2225380   1.6809760  18.3224430
  48.1203957  51.3686562  32.3501778  47.7654648  50.6384239  32.8571472
  48.6303329  51.8741913  32.9831276  39.1370544  60.5130844  55.2916489
  39.2961922  61.3618126  55.7046471  39.2216225  59.8801270  56.0046997
   6.4461570  15.8584146  62.9730568   6.2759604  15.6343403  62.0581474
   5.7109985  16.4179916  63.2233505  56.4515572  59.2888069  87.2495956
  56.5496292  58.3674088  87.0095139  57.2848701  59.6904259  87.0035706
   4.7589712  45.7563782   4.3232899   4.8806443  44.8123360   4.4243608
   3.9263296  45.9385490   4.7588959  42.8559532  11.2537708   3.9168262
  43.2622490  10.9058361   4.7106118  42.5892868  10.4775572   3.4242668
  83.5390091  58.1712570   1.6393631  82.7818909  58.3852463   1.0941917
  84.2249603  58.7689095   1.3418512  40.1426582  10.1568232  10.0990343
  40.8380394   9.6011639   9.7470121  40.5226326  10.5459146  10.8867264
  58.3169746  65.3882141  64.8364563  58.4445648  66.2985687  65.1033020
  59.2021370  65.0277176  64.7839203  39.4361725  26.2663517  69.4011765
  38.8007545  26.8756676  69.7769547  40.2795792  26.5541668  69.7505417
  54.0934715   6.5238247  49.6069145  54.2527008   7.0879068  50.3636742
  53.4418488   5.8923936  49.9117317  42.0566444  68.2283783  51.3567696
  42.7316933  68.5953827  50.7859383  41.5002594  67.7154312  50.7706413
  44.4867134  60.7379990  77.5131302  45.2497139  61.3159714  77.5108414
  43.7390976  61.3286438  77.6049957  14.4456253  34.2738991  53.7215958
  14.1154785  34.4620361  52.8430519  15.3536453  34.5763741  53.7061005
  64.7976379  53.5889740  17.6398659  64.8247910  53.7741089  16.7011318
  63.8776054  53.3950424  17.8192253  53.2213364  30.5569878  63.6472015
  53.7197838  29.9294548  63.1237640  52.3247337  30.4827785  63.3203583
   0.4295356  29.8132439  73.3711395  -0.2839775  29.8007545  72.7331924
   0.8117535  28.9371490  73.3201752  37.1403084  26.2391071   1.0336919
  37.3275566  25.9643726   1.9312952  37.9985466  26.4411716   0.6610913
  26.4328804  52.1230621  81.2354279  26.8353939  51.9663773  82.0896301
  25.5597458  52.4578247  81.4398727  78.7383575  28.2760372  69.7801819
  79.4341888  28.5952415  69.2055893  78.4275131  27.4752407  69.3578873
   8.1427355  68.3896942  24.0925159   9.0518856  68.5517426  23.8406849
   7.6788692  68.2861786  23.2616463  50.8570557  62.6127396  24.4636402
  51.6803207  62.1400452  24.3410778  51.1087799  63.4197540  24.9126339
  80.8668594  16.7296066  88.7771149  81.6852646  16.5466251  88.3156281
  80.8348694  16.0764847  89.4761353  53.9537811  48.9715424  66.1091385
  54.2445297  48.2580376  66.6771164  53.4970741  49.5740623  66.6961823
  64.6837540  63.8192215  57.5183525  65.5910339  63.7543793  57.2202454
  64.3619843  62.9178352  57.5041771  61.3841553  12.1200094  65.4476776
  61.4073715  12.3374577  66.3795624  60.6405640  12.6155558  65.1045532
  27.1852608  44.1694145  61.7198143  26.9313030  43.2853737  61.9847755
  27.2213840  44.6637917  62.5386658  40.6165428  29.7692814  14.9117031
  41.4054298  30.2953243  15.0427456  39.8956108  30.3928776  14.9989586
  85.8898773  32.8676453  45.6911507  86.6827774  33.3709908  45.5062637
  85.2039032  33.3087006  45.1900139  81.7060699  32.7607460  36.2391586
  81.7728119  33.7041855  36.0918503  81.5428696  32.6759567  37.1785240
  40.5243073  58.7329712  51.8163948  40.0938187  59.5450821  52.0835686
  40.5689430  58.2108154  52.6173897  42.7002182  52.5085487  40.0359077
  41.9674797  51.9829102  39.7149200  42.8113213  52.2339897  40.9461288
  31.6596565  60.3547707  15.2570944  30.7145767  60.5063171  15.2665205
  32.0182190  61.1073227  14.7866344  81.1744080  47.1895142  28.9038582
  80.8850403  46.4108162  29.3793888  81.0169067  47.9129486  29.5105438
  75.9792709  45.0603142  15.8373938  75.3763351  44.7297401  16.5032921
  75.4492035  45.6576157  15.3096752   4.1030388  62.6483383  88.7823486
   4.6345181  63.2832489  88.3020859   4.2277236  62.8791847  89.7028885
  57.9369125  14.9218826  56.2709618  57.2693405  15.1181850  55.6136589
  58.1645203  14.0053349  56.1148643  28.2706432  50.9106369  69.5825272
  27.4078331  50.7640190  69.1948471  28.0956516  51.0390396  70.5147934
  13.0547638  61.8997345  31.2027798  13.5451603  61.1796989  30.8061752
  13.7244167  62.5359802  31.4537525  76.4973907  14.1523561   8.6015587
  77.2448120  14.6337070   8.9563618  75.8048248  14.8085508   8.5241022
  32.8360100  70.5348740  85.8594589  33.3668327  69.9756851  86.4266968
  31.9441814  70.2028275  85.9625244  32.7723198  27.4930172  13.9405746
  31.8668861  27.1995258  14.0419674  32.9282570  27.4669571  12.9965210
   6.5318894  25.7970161  87.5391388   5.6814914  25.3708000  87.6458893
   6.6102076  26.3697414  88.3020859  12.3138304  49.6812515  73.4847412
  11.6214428  49.9189682  72.8680344  12.0365639  50.0661278  74.3161392
  61.1128044  28.2300053  67.2568893  60.8462753  27.7241402  68.0245438
  61.6138153  28.9627628  67.6150589  19.7779713   2.7019250  32.1811371
  19.4254227   2.3533659  32.9999466  19.3547173   3.5547123  32.0819283
  22.6526604  62.3467674   9.6346331  23.4726124  61.8623657   9.7308769
  22.2457867  61.9757690   8.8516607  65.7543030  70.3153076  82.2133713
  65.2182770  71.0276566  82.5618820  66.0244904  69.8188400  82.9858704
  63.6600952  12.0074053  37.9953270  64.4134521  11.4483004  37.8053436
  63.5507545  12.5382252  37.2063370  16.4012794  10.7935228  18.9507294
  16.9151115  10.2680607  19.5639973  16.8233147  10.6532745  18.1031170
  55.2118073   9.5757627  40.9390945  56.0461349   9.9813251  41.1749840
  54.6461601  10.3111439  40.7035332  25.6648788  46.3916664   9.8786993
  25.1507721  46.6513710   9.1141863  26.2646656  45.7229538   9.5480833
  49.8636551  15.0072536  61.7913437  49.4980316  14.1871119  62.1228828
  49.1104431  15.4787416  61.4355354  71.8313293  61.5212631  21.2686443
  71.3449020  62.0454483  21.9049206  72.1283493  60.7580566  21.7641487
  78.4513626  38.6109886  33.7487144  78.3680573  38.0246773  32.9966965
  77.9108200  39.3680801  33.5231857  61.9065704  23.3531799  66.8268738
  62.8315125  23.5696735  66.7092056  61.5540924  23.3168392  65.9376755
   9.3814058  46.1702499  30.7703152   9.6368256  45.2705803  30.5663853
   8.4820032  46.2421761  30.4507313  61.3407135  37.9989967  48.3219604
  61.1551399  37.0606918  48.2848434  62.1909180  38.0579414  48.7577515
  66.1487961  36.8151932   0.9997556  65.9203873  37.4355927   0.3075375
  65.6988220  36.0066528   0.7547777  60.7881012   6.4047318  23.3217220
  60.9437218   7.3335767  23.4927864  60.8545036   6.3219838  22.3704185
  83.8602753  30.9968338  47.5315971  83.5367661  31.8367653  47.2058868
  84.7703400  31.1682930  47.7737198  18.2013855  30.7782383  61.6334114
  19.1505547  30.6650848  61.6834412  17.8690071  29.9120750  61.3977928
  19.7776127  42.8198242  49.2948074  19.7584209  42.7075577  50.2452087
  19.3662205  42.0266151  48.9515762  35.0334587  56.8496819  46.0885239
  34.9642334  57.6252708  45.5318375  34.3180504  56.2830315  45.7998466
  56.6748810  50.6138802  43.9285660  56.7225647  49.6647797  43.8138161
  56.1630783  50.7329903  44.7286301  57.4099503  39.3723373  66.0839462
  57.8906212  38.9213104  65.3898544  57.7215538  40.2764511  66.0425339
  27.2219791   1.0829817  25.0814133  28.0170631   1.2190369  25.5967407
  26.5551472   0.8491843  25.7270947  85.4860992  64.2438202  48.5557899
  85.5258102  64.4896774  47.6315575  86.2455902  64.6723557  48.9504700
  61.0072975  13.4585648  67.9152679  60.7756004  14.2892189  67.4998627
  61.4788322  13.7110691  68.7090759  13.8322916   2.6609507  61.1947708
  13.8038139   2.3088315  60.3051453  14.7309456   2.9733009  61.3000793
  61.8718300  30.6783104  68.1493835  61.6402016  31.4448376  68.6738052
  61.4920998  30.8535328  67.2883759  52.6143684   1.3359774  50.8750534
  53.0810013   0.9615158  51.6222267  53.1721382   1.1407808  50.1220436
  40.6309738  67.7334518  78.3894882  40.3166924  68.4830322  77.8839340
  40.9468040  68.1130600  79.2094803  75.1576462  61.3578758  42.1945381
  75.7988892  60.7267227  42.5211678  75.6698990  61.9654236  41.6609535
  34.2317047  50.8632965  55.9642487  35.0788841  50.8276634  56.4083710
  34.1976852  50.0577698  55.4483032  82.3875961   6.2027364  70.5127869
  81.9458237   6.5808315  71.2731247  82.7511215   6.9562817  70.0477600
  64.8970184  20.7385941  15.7615538  65.1545334  20.5993099  14.8502264
  65.5176163  21.3896656  16.0889740  57.1478996   1.2773985  68.0492783
  56.5236320   0.8355343  67.4737091  57.9994240   0.9185816  67.7994919
  23.1440639  65.2845840   7.0683618  22.5009193  64.9850845   7.7109318
  22.8157959  64.9577942   6.2306972  39.7697983  21.4300709  74.4871445
  39.3831825  21.3610973  73.6142197  39.5905876  22.3304863  74.7580032
   1.4006168  59.1417465  73.5054703   2.0928061  59.8005486  73.5610352
   0.5896746  59.6489220  73.4683533  81.9950485  25.6328144  53.9585381
  82.5682602  25.4364738  53.2175179  81.1752472  25.9212437  53.5573463
  37.1868591  14.9134054  65.1092834  36.4944763  14.5609217  64.5501785
  37.8356514  14.2113514  65.1584854   9.4790192  55.6993790  80.2536850
   8.9518576  54.9264793  80.4560699  10.0719166  55.7870407  81.0000229
  11.9361067  46.6272049  60.0190468  11.7364931  45.7430801  60.3268051
  11.2178488  46.8414383  59.4236984   4.9075971   9.8308659  53.9279289
   4.8276801   8.8859758  53.7974358   5.3911872   9.9191704  54.7492523
  75.0579605  65.8751068  85.8441696  74.1464767  65.8213348  85.5568771
  75.5517883  65.4230576  85.1600494  74.5422668  63.1295357  31.4030285
  75.0390015  63.3250504  30.6085129  73.7183075  62.7600632  31.0855141
  38.6146927  19.5026436  82.6710739  38.3190842  18.7647552  83.2043381
  38.5888557  20.2528858  83.2649612  83.0587616  19.9550934  72.3353500
  83.0658112  19.5661964  73.2099609  83.1979141  20.8897877  72.4877167
  84.1796570  68.9321823  75.6904755  83.4550171  68.3145828  75.5919571
  84.1944351  69.4176331  74.8656464   5.1367044   0.6960673  17.9013348
   4.2077518   0.9223021  17.8555470   5.3346858   0.3218774  17.0428391
  84.4263916  49.4263382  28.9086609  83.9553452  49.3597603  28.0780468
  85.1389847  50.0403442  28.7313461  63.3724136  59.9573593  80.0422592
  63.1920128  60.1692963  79.1264191  63.2618980  59.0080070  80.0946655
   2.4083912  60.4833298  60.5698967   1.7335374  61.1564407  60.6578102
   2.0386496  59.8527412  59.9519348  64.2294083  36.2757454  19.3008232
  64.9103241  36.8154488  18.8991966  63.4634018  36.4004517  18.7405396
  46.0156975  28.8177509  77.3331223  45.7205734  28.0239067  76.8870850
  46.8513260  29.0296307  76.9171143  10.4807310   9.7975006  21.3604927
  10.5073509   9.0812778  21.9949589   9.5506248  10.0064573  21.2740536
  75.9743118  69.4114761   8.8683500  75.3134995  68.8473969   9.2700558
  75.4979858  70.2072372   8.6314840  15.1999254  40.3762817   1.5284040
  15.7513580  39.9175987   0.8945554  15.4627762  41.2937431   1.4548582
  70.6052628  18.7807636  66.5129547  70.3495560  19.5704308  66.0362244
  71.1215439  19.1035137  67.2515488   0.8427731  27.3028412  72.9306793
   0.3929815  26.7772446  73.5922394   1.3226147  26.6643581  72.4031143
  22.3874722  66.5269165  22.7477779  22.3870735  67.3775711  22.3088951
  23.2886658  66.2151108  22.6649742  51.2396088  24.4520073  49.2834587
  52.1110153  24.4279537  48.8881073  51.0362282  25.3843498  49.3583450
  64.4357300  71.1816254  12.2529259  64.9555283  71.4265976  13.0184479
  65.0836716  70.9863052  11.5759830  75.3485565  17.8760014  75.1521454
  75.5081329  17.2066650  75.8175507  74.7953644  18.5225067  75.5905991
  82.5281372  64.6845245  26.6072655  83.4344254  64.4382095  26.4223042
  82.4583130  64.6422119  27.5609779  47.6534958  41.0118942  76.3116531
  47.0675201  40.2946510  76.0699463  47.7102585  41.5510178  75.5227585
  12.3347530  61.3694115  76.4916687  12.1339426  60.5028687  76.8452454
  12.0370541  61.9786377  77.1672745  60.7234344  42.5135727  48.2086182
  60.5604172  43.2367744  48.8141212  60.7266045  41.7331963  48.7629051
   4.2404771  10.9439402  77.4617462   4.9698057  11.1438274  76.8749313
   4.6431265  10.4766378  78.1936874  69.6024933  14.1384344  82.2477570
  68.7505188  14.4888334  81.9877777  70.1628418  14.9097891  82.3329163
  25.0655289   0.1704714  36.0747452  24.8237209   0.4742297  35.1998215
  26.0114079   0.0316235  36.0271568  17.4269371  61.1693573  81.3681946
  17.7776852  61.9191132  81.8488922  16.8808250  61.5573883  80.6845169
  31.9492264  45.0718880  49.8213158  31.6912651  44.5972252  49.0311356
  32.6661797  45.6387329  49.5368919  82.1844406  63.7814636  19.1936913
  81.4374695  64.3793716  19.2215271  81.9642258  63.0936661  19.8219204
  58.6395607  51.2124977  75.2695999  58.9824982  50.3190041  75.2867355
  58.8179703  51.5543633  76.1456909  82.1471710  50.8448372   2.2405112
  82.2738647  50.7504387   3.1845813  83.0254898  51.0062065   1.8959292
  28.8439121  37.1402817  13.5459509  28.9370308  36.3666687  12.9899931
  28.0149479  37.5332108  13.2727184   7.7065139  28.8701973  67.2408295
   8.6113749  29.1799965  67.2793427   7.1782241  29.6552563  67.3851395
  57.8078575  36.2470245  72.5412979  57.6429596  36.2441788  71.5984116
  57.3120117  36.9973946  72.8688965  15.3985291  69.2873917   8.2843513
  14.6132679  68.7839355   8.4991245  15.9257069  69.2611465   9.0828667
  26.7147522  68.2352142  80.2400970  27.3008022  68.7291565  79.6666946
  25.8416080  68.3873291  79.8785629  38.9286346  29.8632469   9.1167946
  38.8135300  29.5252762   8.2286730  38.0561867  29.8125401   9.5073032
   6.7152343  68.5184708  87.7098999   5.7826948  68.7125015  87.8045197
   7.0421433  68.4699936  88.6082382  34.8508263  60.6025734  54.9420891
  34.7456284  61.5472603  54.8292465  34.0959854  60.3386803  55.4682121
  63.4982834  30.3407822  17.4708023  64.3478851  30.7497349  17.6356354
  63.2294426  29.9955578  18.3221397  42.6340904  42.1694412  63.0934677
  43.4807053  42.6045189  63.1943817  42.0199471  42.7266731  63.5715446
  51.8980980   7.9489789  -0.0555848  51.1753273   8.3339691   0.4400145
  51.6557999   7.0284634  -0.1564611  21.8517914  22.1790237  80.5029297
  21.2991219  22.3495026  79.7402191  22.0528126  21.2447243  80.4490204
  81.1075134  10.5097218  24.6270027  80.6989899  10.0510654  23.8928566
  82.0258255  10.5994158  24.3722420  70.7346191  68.9121552  81.9411926
  71.3990936  68.7620392  82.6136246  69.9281769  68.5609512  82.3187408
  26.4593105  63.6344604   4.2441840  26.6125698  62.7468338   4.5680170
  27.2930889  63.8935814   3.8518813   4.5149508  29.1378193  54.3376999
   4.7593951  28.3684464  53.8233604   5.2621851  29.7299862  54.2527771
  81.1825409  57.6293793  72.5268860  80.4881287  57.1806183  73.0092087
  80.7556763  58.4012985  72.1551895  84.8195801   8.6594801  13.5862331
  85.5390167   8.1718559  13.9873152  84.4334793   8.0458870  12.9612055
  75.3042755  58.6371269   7.1394968  74.7355042  59.3989792   7.0285192
  75.4035950  58.5484276   8.0873890  76.8458023  38.8539543   0.2780657
  77.6809540  39.2610016   0.0476933  77.0868530  38.0019073   0.6415877
  62.0423965  31.8481579  27.5485897  61.3793373  31.3022251  27.9711266
  62.6499176  32.0751305  28.2526016  49.3377724  64.1273117  53.3024216
  49.4085121  64.5840988  52.4642296  50.1554871  63.6353378  53.3768425
  41.4994774   2.6798072  26.0440102  40.7468452   3.1097672  26.4501038
  42.2574081   3.1642480  26.3712540  47.4017258  32.1215744  63.4646301
  46.5501862  31.9592571  63.8705368  47.7930908  31.2528114  63.3734398
  46.1661758   0.2563960  53.9458351  45.3138885   0.1987173  54.3776970
  46.0618362  -0.2514837  53.1412201  85.0977478  54.8983040  34.3686066
  85.6800003  54.9647484  33.6117744  84.2514572  55.2099304  34.0478134
   6.0635166  51.4734764  70.2598343   7.0040145  51.5687103  70.1094131
   5.9605589  50.5740662  70.5707932  86.4494629   1.6905695  49.0744514
  85.7476883   2.1370435  49.5481606  87.1265640   2.3581445  48.9643745
  68.1039581  63.6921577  81.1436768  67.1867828  63.9653625  81.1243362
  68.5114517  64.1698761  80.4212036  56.1987801   0.2517550  38.2627106
  56.4669380   0.4549178  37.3665848  55.7722931  -0.6026758  38.1972122
  65.3635941   9.8136091  28.7800503  65.2714539   9.7739382  27.8281212
  64.4642029   9.8241491  29.1074982  35.5668640  17.4507580  72.4490891
  35.4703445  17.2037163  71.5293655  34.7632027  17.9284763  72.6543808
  85.4087753  51.1394920  37.6159210  86.1814957  51.0480385  37.0584450
  84.9698486  51.9251518  37.2898750  81.9002914  -0.1106616   9.6854496
  81.5924911  -0.3478292  10.5602322  81.8621216   0.8456395   9.6692123
  61.4313011  22.7332363  43.7539482  61.7619209  22.6349201  42.8610535
  62.1811943  22.5252209  44.3112831  46.9827766  57.6158104  22.8122272
  47.5525780  56.8541718  22.7051430  47.5345535  58.2691612  23.2422371
  37.5747375  53.9199562  34.1427155  37.9473000  53.3495865  33.4703255
  37.8827858  53.5485725  34.9694023  20.3568954  47.6739693  56.9821587
  20.5032558  46.7719078  57.2669296  20.4895020  48.1988411  57.7715607
  62.3259315  35.7709351  84.2560196  61.4816208  36.2214928  84.2369461
  62.6570816  35.9201508  85.1416321  29.1552906  50.0345078  88.1847839
  29.3743515  50.9661446  88.1675262  28.1996727  50.0140686  88.2358398
  74.9416275   0.4125218   8.5471001  74.7084122   1.2953681   8.2600040
  74.3029251   0.2060220   9.2294827  33.7377167  23.4096184  64.5876846
  33.3014870  23.3497715  63.7377701  34.5901031  22.9967785  64.4489975
  27.2332897  13.1294899  71.8667679  26.2822666  13.2176838  71.8034515
  27.4003601  12.2039042  71.6889801  63.3702164  64.8583221  30.1937294
  63.8714905  65.4169769  29.5997124  63.5247116  65.2318802  31.0613785
  64.7309875  34.8763237  28.4228115  64.4596329  35.7932167  28.3791542
  65.0452271  34.6772881  27.5408401  39.7566757  51.9015274  63.4361153
  40.0560379  50.9925690  63.4564095  39.8193207  52.1538162  62.5148888
  80.4625626  69.2274017  37.0696297  80.8265610  69.7185516  36.3330803
  80.7455902  69.7128906  37.8445053   0.1761720  32.6171989  57.2900276
  -0.2090720  32.1697998  56.5365982   1.1006963  32.7163124  57.0627327
  20.0733643   6.7809401  71.1947327  20.4368114   6.0352178  70.7172012
  20.8125420   7.1295133  71.6930771  36.9452591  54.6756325  30.8685589
  37.8870735  54.5116158  30.9167328  36.5752945  54.1593552  31.5846691
  40.4997139  17.8284664  81.2795258  39.7425308  18.3549175  81.5359421
  40.1232185  17.0148602  80.9440765  46.0463448  44.5966682   4.7397947
  45.9534187  45.4764023   4.3741980  45.9729385  44.0141449   3.9838116
  34.4081726   9.2691193  63.8915062  34.2295494   8.4907761  63.3637695
  34.8506393   9.8691683  63.2911758  60.1785202  56.2826691  36.2233620
  60.7137337  56.9927292  35.8689690  59.3151321  56.6751595  36.3527527
  38.0558929  31.1505547  64.5679855  37.5800705  30.6054935  65.1946716
  37.3882408  31.7274857  64.1970139   0.6062792  49.8120575  15.9228067
   0.4296755  49.3835106  15.0853176  -0.1458125  49.5868301  16.4704018
  20.1229668  35.0881119  68.1949158  20.9873352  35.4490547  67.9978867
  19.8338375  35.5687447  68.9705658  45.1470222  29.6056519  87.9890747
  44.8229790  30.4627438  88.2658768  46.0022316  29.5251007  88.4113998
  70.0427933  15.6565104  76.8946457  70.9278946  15.3310013  77.0585632
  69.7040863  15.0905256  76.2009811  78.2778320  55.4807930  42.4903259
  77.5853577  55.1819191  43.0797272  78.8468018  56.0175781  43.0420227
  59.0581894  70.7114944  57.6375771  59.3800201  69.9144821  58.0587997
  59.7380180  70.9383087  57.0030518  20.2580395  15.5325480   2.9980567
  20.3271713  15.0470152   2.1760404  21.0428448  16.0801353   3.0195212
  82.4121780  14.2106047  64.2293625  82.9024124  15.0252399  64.1186066
  81.5413208  14.4914560  64.5103760  83.6665497  16.3764458  39.3559341
  84.0095901  16.9532337  40.0384827  84.3855362  15.7729225  39.1687012
  72.8393250  23.1035118  86.0654297  73.4572220  23.8328457  86.1154251
  72.8866806  22.6899586  86.9273834  13.8217468  63.9526596   2.1815884
  12.9425449  63.5934372   2.3007319  13.9577084  63.9438629   1.2341343
  52.8551865  37.1863327  15.6308165  53.6259155  37.6009674  15.2431431
  53.2031975  36.6584473  16.3494663  53.0687675  15.8218012  66.4140244
  53.1759109  15.9241905  65.4683685  52.5876274  16.6031265  66.6865463
  71.1339417  59.5959282  36.5971794  71.2929459  59.1528282  35.7637444
  71.8107376  59.2556152  37.1823082  44.9922638  64.1213455  80.1478119
  45.0682335  64.8387909  80.7768860  44.0922737  64.1784821  79.8268967
  45.0870323  54.3869438  45.1162567  45.6741295  53.9816818  45.7544632
  44.3005943  54.6026649  45.6174698  45.9476433  46.0181389  41.8182373
  45.4484138  45.7433853  42.5873337  45.3316193  46.5440216  41.3081436
   5.2441645  45.8088188  88.6995621   4.7085800  46.5992050  88.7678757
   5.5593691  45.8104591  87.7957535  18.7362919  65.9527817  64.9043503
  19.6803284  66.0723953  64.8008041  18.6157665  65.7984009  65.8412933
  48.8708420   1.4068044   9.6167698  49.3190498   0.7722220  10.1759176
  48.0158386   1.0124243   9.4445286   7.2111340  12.2863073  69.7979965
   7.1161880  12.1109018  68.8618011   6.3560681  12.0703096  70.1700668
  71.8117599   4.0259428   8.8031912  72.4379425   4.1510377   8.0901098
  71.3766403   3.1985550   8.5974550  74.7953873  -0.0608175  24.7163849
  74.4973984   0.5262105  24.0215244  74.0202866  -0.2010738  25.2602386
  26.7183800  18.2934608  83.1013947  27.6381168  18.4271622  82.8723984
  26.5434208  18.9451332  83.7803192  59.6419449   4.1769872  77.1370773
  59.1226196   4.8563786  77.5671463  59.4495621   4.2822852  76.2053452
  36.4606590  30.5456562  84.6617050  35.7909317  29.8804035  84.5031662
  36.8613167  30.2889957  85.4922638  32.4547729  53.6905937  36.1424217
  33.1667633  53.1231384  36.4378815  32.7291908  54.5715370  36.3971024
  78.8110733  29.5148735  54.7115021  78.3000031  30.1839523  55.1668892
  78.5795593  28.6964798  55.1506653  10.5449772  60.9265175  54.3967476
   9.7881184  61.1884537  54.9209480  10.5407276  61.5284271  53.6524925
  45.7474442   4.0821519   7.8114405  45.1262741   3.3549635   7.7717776
  45.2001457   4.8667459   7.7781973  50.7352028  30.6135788  11.8886290
  50.9855652  29.6907749  11.9332018  50.6903610  30.8045979  10.9517555
  43.2454987  65.7040939  70.8303299  44.1427269  65.5809708  70.5204010
  42.9969177  66.5698700  70.5064926  71.7618332  13.0121927   6.1288881
  70.9773102  12.8167086   5.6164904  72.4396744  12.4507322   5.7526927
  52.5385017  13.0841351  84.9213867  52.2083511  12.5520954  84.1973953
  52.6495781  12.4646788  85.6426163  59.8524094  24.4831123  57.8054276
  59.1032944  24.3638802  57.2216034  60.2681427  25.2894135  57.5000153
  77.8061142  55.4410172   6.4233885  78.4732742  54.8170853   6.1373200
  77.0069046  54.9195709   6.4982123  55.0957718  31.9743252  78.5472565
  54.6185036  31.1710682  78.3393478  55.9826126  31.8166294  78.2234116
  31.3520775   3.0729027  38.3944397  32.2757339   3.2855465  38.2607346
  31.0099087   2.9265211  37.5125542  66.0710449  49.5870361   9.8787203
  65.4926987  50.0045929   9.2404432  66.5929337  50.3058739  10.2352839
  36.2445679  15.6431704  74.1587143  36.9828491  16.0180626  74.6389542
  36.0156898  16.3107510  73.5120468  82.3067703  31.8466949  67.6006927
  81.9521713  31.1663418  67.0283203  82.1984406  32.6578445  67.1041718
  38.7814674   1.1607872  45.8066025  39.3781013   0.5229791  45.4148598
  38.5289574   1.7303566  45.0799255  37.3535652  49.5163193  14.2630863
  36.7181778  49.0752792  14.8269987  38.0031128  48.8427353  14.0615921
  16.7317924  51.3029213  86.5643234  17.3000317  51.1360397  87.3163071
  16.2816105  52.1194344  86.7808304  32.8922195  49.4423027  69.1270370
  33.6969337  49.0415802  68.7982712  32.2471504  49.2846107  68.4376526
  24.5205097  31.6320248   0.4183549  23.9593906  30.9231186   0.1039801
  23.9105721  32.2923546   0.7472491  17.6626530  11.3878975  15.6498842
  16.7930794  11.3361368  16.0466118  17.7798080  12.3166265  15.4499636
  83.3357697  44.1990929  88.0360489  84.1585846  44.5925255  87.7454910
  82.6895370  44.8990402  87.9428329  30.3144188  34.6903839  86.9546051
  29.6644650  35.1014900  87.5245056  29.9684048  34.8114357  86.0703812
  10.8374004  64.2109985  22.2549572  10.9643641  64.2275162  23.2035561
  10.2922144  63.4397125  22.0996723  55.1456985  61.7604179  13.6819668
  55.5354576  62.6221848  13.5347338  54.7349243  61.5374527  12.8466339
   7.4432349  32.5276451  81.7122421   6.7682528  32.5595474  81.0342941
   6.9603944  32.6073303  82.5348892   5.3078461  57.3701515  83.8515625
   5.1005306  56.9137459  83.0361176   6.0856791  56.9230537  84.1851959
  19.8955803   4.0204716  80.4536819  19.1396961   4.0646949  79.8680878
  19.5819778   4.3923240  81.2780685  68.6079559  36.5140152  26.9545918
  68.7636795  37.3882713  27.3118801  68.0991592  36.0661888  27.6304741
   4.1386166  36.2093697  51.3124352   4.9535160  36.3174858  50.8220444
   3.6220801  35.5984421  50.7868996  77.1384506   0.5269558  53.1199760
  77.9113617   0.3748471  52.5761909  76.4503021   0.0028704  52.7100716
  52.8756256  68.8593903  41.5543709  52.9127960  69.5566025  42.2091599
  52.7721214  69.3187485  40.7209969  83.0464630  40.6673851  35.2266121
  82.7502365  40.9988556  36.0743179  82.3570557  40.0629692  34.9515953
   3.6230507  33.5120201  25.9238300   4.4374981  33.5932426  25.4275341
   2.9380898  33.7574768  25.3018875  82.0067520  47.1220589  79.8243713
  82.2851639  48.0378723  79.8225632  82.1017151  46.8446541  80.7355576
  78.5930557  54.3528214  35.0670052  78.8465576  53.5565071  35.5337524
  79.3413391  54.9404411  35.1719475  86.2656174  23.2972698  38.3870087
  86.2959595  24.0625401  38.9611816  86.7357559  22.6171551  38.8693466
  42.3442192  59.8023605   0.9264442  42.8328400  59.0847282   0.5233468
  43.0178299  60.3707085   1.2998906  46.2446556  48.0963936   1.6874903
  46.7700005  47.8643456   0.9217235  45.4699745  47.5376778   1.6247245
  12.1031761   1.7960367  57.3995590  12.5719366   2.4638052  57.9001427
  12.6992054   1.0472494  57.3823013  41.4485970  65.1286774  20.9044533
  41.1227608  65.7200623  21.5829315  41.1956100  65.5462189  20.0811138
  60.5778465  63.7662926  24.5095863  61.3221817  64.3218842  24.2782631
  59.8195915  64.2125015  24.1325188  51.9524231   9.0383720  51.4921989
  51.7476730   8.6931667  50.6232109  52.0080147   8.2631264  52.0508919
  45.9401283   8.7100821  76.7582703  46.0398521   8.4999809  75.8297501
  46.7535629   9.1575861  76.9912872  81.8509445  21.5833359  15.4457483
  81.0648651  21.0693207  15.6304331  81.7769470  21.8093758  14.5185690
  81.4298248  41.3134499  10.1630116  82.2773666  41.6873207  10.4041023
  81.6473312  40.4956970   9.7155743  80.6194229  59.3060722   7.3681102
  79.9878006  59.2403755   6.6518917  81.0558548  58.4542618   7.3814545
  15.3411570  12.9321690  88.9823685  15.4708147  13.4349337  89.7865143
  15.3645916  13.5866661  88.2842865  17.9471493  45.5496483  84.4750137
  17.1339073  45.1765022  84.1349640  17.8496685  45.5095100  85.4263916
  14.1288643  19.2561569   4.6679554  13.2542305  19.5842094   4.4590778
  13.9805698  18.3671150   4.9902067   9.9302263  58.4318924   0.7946135
   9.9095554  57.7406960   0.1327596  10.7348232  58.9163895   0.6098996
  61.3047562  59.1207314  25.4345818  60.7230492  59.8696442  25.5648689
  60.7585106  58.4659767  24.9996738  24.4178028  66.8684845  87.3957596
  23.8962517  67.4223251  86.8148270  25.3046875  67.2229004  87.3320618
  26.5769463  24.6936722  10.7573681  27.3336048  24.8456631  11.3235807
  26.9058018  24.1169643  10.0678072   7.0071082   0.8605856  85.3734055
   7.6115170   0.5439046  86.0447006   6.1594253   0.9045038  85.8158264
  70.6715851   1.7220937  24.5171165  70.7229080   1.2303602  25.3367481
  71.5339355   2.1275585  24.4266644  18.2147617  50.4540291  11.8534994
  17.3494473  50.5951843  12.2376070  18.6336441  49.8184547  12.4338541
  15.3730297  56.2421989  41.9524002  16.0796757  56.4335670  42.5690536
  14.5744619  56.4878654  42.4194832  13.6153765  18.9983807  79.9332199
  13.1966057  18.6079750  79.1661224  14.5185928  19.1564636  79.6585541
  18.1690655  67.4718933  27.7720509  17.7725716  67.8718033  28.5460644
  17.4821358  66.9091568  27.4147167  47.6866493  20.1690578  19.9278145
  47.4191360  19.8313160  20.7825642  47.7111969  21.1190281  20.0426426
   7.3271632  71.6082687  38.6215591   7.0128751  70.7145615  38.4846306
   7.0105286  72.0929413  37.8592796  84.6456528  68.8649139  86.5462570
  83.8264389  68.7637482  87.0309143  85.3299866  68.7317352  87.2021332
  48.0160255  65.8271866  14.7974234  47.1637115  66.1999207  15.0229406
  48.1460991  65.1243439  15.4340725  22.7823792  62.4864883  47.5083237
  23.3437576  61.8271103  47.9161377  22.8770580  62.3333473  46.5682106
   7.2211552  68.1412888  44.5428619   6.3304763  68.0892334  44.8895798
   7.3904533  69.0795135  44.4574051  16.2898369  36.9859123  80.1244278
  16.9968777  37.3388824  79.5842972  16.7024574  36.8008156  80.9680634
  40.7656288  54.1389771  69.2611313  40.3445816  53.6367493  68.5634842
  41.5927124  54.4326782  68.8791580  37.7626381  42.4769630  57.9603043
  37.2745209  41.8088264  58.4415169  37.4989586  43.3037033  58.3642960
  74.5523148  41.1131439  50.5777092  75.2997055  41.1414871  49.9803505
  73.9050293  40.5716896  50.1259575  77.9466934  47.5407867  54.6094933
  77.4774628  47.8421402  53.8315239  77.9236755  46.5858307  54.5481529
  29.2688255  66.6360321  66.0947495  29.6109447  66.4458160  65.2212448
  28.3218403  66.5248795  66.0105133  53.6558609  49.7304993  49.2921143
  53.7234077  49.3617973  50.1728706  54.5614662  49.9031944  49.0346565
  72.4087296  37.2161446  80.6769409  72.6943130  37.0021896  79.7887421
  73.0873184  36.8469963  81.2421646  28.7365379  69.2185364  72.7017136
  27.8606949  68.8332901  72.6749496  29.1635838  68.8979492  71.9073029
  78.8501511  15.2552462  48.6773186  78.5019379  14.3742790  48.5399323
  78.1610413  15.8376970  48.3577652  32.0593452  70.6167908  74.9409790
  32.2944145  69.8727798  75.4954300  31.9840050  71.3532791  75.5477142
  63.9943848  22.0503693  48.7698669  63.0448074  21.9310093  48.7528343
  64.1182709  22.9373398  49.1077538  23.7277431  63.1607971  55.2093277
  23.0321331  62.5768280  54.9071083  24.2623634  62.6171112  55.7879601
  81.5998230  45.4050102  61.8899345  81.2102890  44.6167450  62.2682686
  82.4451981  45.4897079  62.3308334  28.5346489  46.5663757   3.1145432
  27.8264160  46.0833969   3.5404196  28.3266106  47.4869461   3.2742465
  21.3932381  15.2837181  11.4260464  21.9574318  16.0569630  11.4228086
  20.6541328  15.5241709  10.8673544  31.5716839  44.4930038  18.3496227
  30.6586304  44.6644402  18.1190338  31.6895485  43.5579910  18.1820049
  44.3397560  47.0498505  63.8466072  45.1666908  47.2274475  63.3984184
  43.6698112  47.1893158  63.1773109  73.4048843   1.5929697   6.6948729
  74.1687622   1.1422914   6.3348527  72.7208099   1.4675959   6.0371809
  54.0741348  53.0030518  47.4078369  54.1653366  53.7043953  46.7628326
  54.5928917  52.2815437  47.0521011  61.4297829  36.1121864  55.3547554
  60.9718018  36.4832878  56.1089249  61.0644608  36.5754204  54.6009750
  74.7681961  32.1947823  60.4005508  74.8356018  31.2865047  60.1060638
  75.6098480  32.3736954  60.8198929  43.9895325  71.1264420  23.9930935
  43.2240791  70.7037048  23.6037292  44.1316986  70.6552048  24.8140411
  21.7204475  39.0006142   1.3997422  21.4080086  39.9046288   1.4367900
  22.3381977  38.9306870   2.1275659   7.5246568  37.6189346  38.7025146
   7.2100916  37.9260559  39.5527840   7.7793579  38.4167213  38.2389450
  42.5535622  47.6604462  53.7535248  41.9020767  47.6927032  53.0529861
  42.9454155  46.7905502  53.6763229  14.5667629   9.4509411  60.8384094
  14.0640583  10.1007032  61.3296623  15.4810400   9.6879597  60.9938164
  51.7956314  60.7903099  51.3322067  51.1211700  61.2521858  50.8342018
  51.6697502  61.0832481  52.2347412  26.5245438  29.6304455  76.9310608
  26.9017982  29.6817131  77.8092880  27.1854401  30.0263710  76.3629990
  53.5708504   9.5328999  82.5294342  53.9710503   8.9114552  83.1376114
  53.7569504   9.1729689  81.6622238  22.7079525  35.4606476  83.2307663
  23.0564518  36.2154045  83.7052383  22.6060390  35.7698135  82.3306274
  40.8991318   3.9797924  71.1900177  40.9999313   4.5753984  70.4475021
  41.7251930   4.0512967  71.6682816   5.4529500  37.2535133  57.2461586
   6.1164947  36.9767647  56.6142159   4.7395124  36.6251106  57.1350250
  62.0567398  68.2934189  30.2389946  62.8696404  68.7727127  30.3993130
  62.1577873  67.9392319  29.3554955  62.9037476  28.5656967  59.5936890
  63.7825432  28.7359810  59.9327431  62.4686584  28.0756168  60.2913666
  51.6249962  13.1152172  23.7937336  51.1248360  12.2990885  23.7960930
  51.9208145  13.2174559  24.6983166   7.3561220  55.5740471  16.7583828
   6.4535513  55.6165771  17.0742779   7.8711643  55.9932175  17.4477749
  20.7818642  61.9043884  34.4165421  20.5047932  62.6461678  33.8787422
  19.9821129  61.3969879  34.5550117   9.0004416  22.6857185  69.0905533
   9.7775030  22.3950005  69.5679321   8.4842749  21.8893681  68.9655304
  69.4358597  59.6739769  62.9705620  69.5065155  59.3249855  63.8590698
  69.8567963  59.0139046  62.4197922  62.7158699  64.4594345   8.5834389
  62.0701599  63.8273849   8.2675238  62.7582550  64.3070068   9.5274734
  49.8320923  35.6997757  18.9991226  49.5408211  35.3021545  19.8196659
  50.6915741  35.3110962  18.8364697  70.0412598  58.0537033  18.8803082
  70.6193390  57.9654160  18.1225109  69.6598358  58.9269829  18.7901363
  74.0673370  47.2504082  86.0449524  74.5953979  47.9853439  86.3568039
  73.1661682  47.5712242  86.0797043   9.6185713   6.7253203  73.4211502
   9.5656719   7.2579689  74.2146988  10.5252790   6.4194164  73.3980179
  84.9968491  10.5240202  58.3792572  84.0817871  10.6094580  58.6468430
  85.1821136  11.3307095  57.8984642  18.5776119  10.2225285  81.9566498
  18.0922050   9.6468220  82.5475616  18.6800213   9.7107983  81.1542282
  76.8510895  50.2848740  43.9858627  77.2805557  50.8925972  43.3838158
  77.3943329  49.4972153  43.9590950  40.0543022  70.0346909  17.7785912
  39.6421509  69.2483521  17.4207726  40.9860878  69.9238739  17.5895729
  65.2500458  41.8688431  33.1884079  65.4908524  41.3582535  33.9614143
  66.0438919  41.8828506  32.6537743  78.8136673  37.8102341  52.5902443
  78.7738495  37.1687698  53.2995911  78.7136459  38.6563225  53.0265503
  77.8575211  13.5570698  65.4563751  77.2452393  13.1022806  64.8780136
  77.7694397  13.1095476  66.2979202  32.8340302  52.6032486  58.9631386
  33.4791145  52.7863083  58.2800674  32.8904495  51.6573563  59.0985565
   4.2472486  53.0279770  16.6229420   3.8750849  52.3898544  16.0142326
   5.1110172  53.2277336  16.2620621  15.1221571   3.6733365  81.3363800
  14.4082470   3.7605467  80.7047501  14.7482939   3.1573367  82.0506668
  59.2696762  13.8454103  53.0104065  59.1806183  13.2619076  52.2568665
  59.1440964  13.2765961  53.7699547  19.0766716  31.1946831  57.6736336
  19.9039097  31.4856148  58.0573883  19.1328259  31.4584446  56.7552071
  60.6134834  40.1969643  74.4539490  61.3810616  39.8204727  74.0234756
  60.3128967  40.8793411  73.8537445  67.3513947  12.1985617  74.8665009
  67.0568466  11.4497375  74.3481064  66.5695953  12.4856129  75.3383255
  79.6666870  67.6069565  85.8839417  78.9756699  67.5037766  85.2296600
  79.3516617  67.1180267  86.6441650  50.4554825  36.4890137  55.8222160
  49.8473740  36.8952255  56.4398117  50.9989662  35.9159813  56.3630409
  67.7201920  16.2215900  77.9331970  68.5980911  16.1691418  77.5553513
  67.5381393  15.3334446  78.2402573  33.4187927  25.8848057  85.5344391
  33.1271286  26.1766281  86.3981552  34.3056870  25.5553856  85.6797943
  18.9774647  22.3827877  79.5841980  18.5031757  21.6441441  79.9658890
  19.1458130  22.9670773  80.3234482  48.4087486  31.7498112  22.5651875
  48.8682213  31.5991802  23.3912811  47.9297104  30.9365749  22.4058170
  43.7295761  40.6739006  12.3465948  43.7572594  39.9969788  11.6703949
  44.1587868  40.2743721  13.1031599  86.5779724  67.2586212   2.0479243
  85.9442520  67.5160294   2.7175369  87.4117050  67.6112213   2.3590443
  33.0013695  51.2753181   4.4737778  33.1861305  51.6088066   3.5957787
  32.1814651  51.7011452   4.7240992  30.4331493  32.5787773  75.6008301
  31.2211094  33.0860176  75.7959213  30.3699780  32.5922394  74.6458130
  56.5825615  10.0381098  11.5627050  57.4784355  10.0585041  11.8992023
  56.6785583  10.1613779  10.6183424  64.3196869  39.9843636   1.5877084
  63.9083557  39.9543419   0.7239176  65.0580521  40.5840225   1.4806736
  52.0809441  53.0387917  41.3818245  51.7262878  52.1509590  41.4287415
  52.7482338  53.0666962  42.0675201  70.5790176  35.7233238  78.1297607
  70.9368896  36.5931931  77.9523087  71.3461304  35.1824722  78.3175049
  29.0931797  18.4126854  10.3235340  28.8573322  19.3046227  10.5786009
  29.0964489  17.9215622  11.1451283  70.6716614  41.1911163  87.0159225
  70.6657715  41.5538254  86.1301270  70.3578415  40.2931480  86.9091339
  15.2438564  68.0004654  18.1614914  15.5905037  68.2568512  17.3068943
  14.4469213  68.5209427  18.2626438  42.1850357  60.1988716  43.7585793
  41.9865570  59.5183907  43.1153183  42.2462463  59.7307816  44.5912743
  44.2853851  19.9733429  74.8354645  43.4130402  20.1374512  75.1936874
  44.5881310  20.8317966  74.5394363  26.4534931  16.4345074   3.7352946
  26.2379360  17.1814785   3.1769030  25.6329823  16.2240238   4.1810436
  78.6351624  60.5100517  43.7241707  79.5591507  60.7459068  43.8068924
  78.3022919  60.5273628  44.6214600  84.2665405  32.3234978  69.5516739
  84.1713181  33.2583008  69.7341690  83.5881042  32.1357689  68.9030457
  79.3048477  26.9709282  42.6857452  79.1784515  26.1136417  43.0923386
  78.6137543  27.0272770  42.0258598  54.6542053  70.4521637  62.7148438
  54.6869545  70.0992203  63.6039963  54.6991425  71.4011002  62.8320236
  60.9956627   7.8272300  55.7324104  61.8272972   7.7414942  56.1985283
  61.0380287   8.6918993  55.3240166  85.6426620   6.3072453   4.8084588
  86.4591446   6.3226395   4.3091059  84.9625549   6.4940014   4.1613040
  77.2354660  70.8879776  83.1926422  77.8287659  71.6180801  83.0160522
  77.5342941  70.1901093  82.6096268  78.3196182  30.3566513  45.4839325
  79.0699387  30.5030041  44.9078903  78.0115967  31.2357941  45.7040749
  47.1385956  69.2687225  49.8063202  46.8572693  68.7183838  49.0754166
  47.1703987  70.1532059  49.4417648  65.3884201  44.3231430  21.0218239
  64.7200394  44.5063248  21.6820774  66.1727982  44.1105804  21.5275993
  33.9318008  49.4923897  76.7414703  34.6574860  48.9411354  76.4486771
  33.5441742  49.0100899  77.4717941  34.8570404  34.3903122  80.2003326
  34.6029549  35.3109169  80.1357956  35.2613907  34.3134613  81.0645218
  15.4969654  26.5690384   3.1835275  16.0198650  27.2216187   3.6493046
  15.5927210  26.8004055   2.2596595   6.2176762  68.0840912  15.6329861
   6.4071774  68.8945084  16.1057930   6.8948216  67.4732208  15.9237547
  37.2487411  46.0395126  56.4713860  36.3049812  45.8843193  56.5096931
  37.5528870  45.8881073  57.3662643  62.2588882  28.3996410  74.6251221
  62.8552933  27.6734772  74.4428635  62.2977486  28.9445457  73.8391190
  54.2864532  66.6143646  59.5924225  54.0700493  67.1313400  60.3683968
  54.2796516  65.7076645  59.8991470  67.2248840  68.7499847  13.8890705
  67.4397430  68.0159073  13.3135805  67.9237518  68.7540970  14.5431309
  77.1370697  24.6737690   7.8206244  77.4919968  24.2922688   8.6235676
  77.8623886  25.1803017   7.4551525  80.4301987  25.9106064  57.5732231
  80.4627380  26.7605896  58.0121994  81.3159561  25.7822628  57.2338181
  75.6444626  66.4881210  29.2121887  76.4172058  65.9232330  29.2104492
  74.9672852  65.9689713  28.7784252  17.7126331  60.6122742  30.7349033
  18.6176586  60.5658035  31.0431271  17.1844044  60.5033340  31.5256863
  81.9740219  68.3862915  61.2312317  82.3700104  69.1170349  61.7060318
  82.4522552  67.6152420  61.5362129  62.3939095  41.4462051  87.1520081
  62.4826927  41.3178482  86.2076111  62.2464142  42.3865547  87.2530899
  81.7969818   2.8892586  13.5809412  81.5955582   3.7138534  14.0233259
  80.9417496   2.5237436  13.3546219  39.1694756  50.7031670  33.4507446
  39.3710480  50.2618942  34.2758980  40.0015373  51.0880394  33.1754646
   3.0483358  28.1077518  75.4179840   2.3912969  27.4775124  75.1224670
   2.5776916  28.6764603  76.0273209  37.4344101  19.5199680  64.9647903
  37.7699013  19.3004513  64.0955963  37.2687340  18.6728611  65.3785400
  59.3065147  60.8345718  14.0211735  58.7701073  60.6789169  13.2438250
  58.9404564  60.2508011  14.6855898  66.9238052  40.9267998  35.7546234
  67.5570679  40.2656593  36.0340919  67.4163284  41.7475471  35.7598877
  55.2874603  29.5338306  49.1394501  56.1957703  29.2499466  49.2424622
  55.0388145  29.2291889  48.2667542  23.0137405  55.5901184  57.3765602
  23.7410831  55.4641113  57.9859276  22.8488293  56.5328751  57.3921127
  81.8014069  17.4632034  83.6085510  82.1849670  17.8602180  84.3905334
  81.4639893  16.6194305  83.9092636  75.5730820  13.1620312  76.0111465
  75.9653702  12.2889404  76.0183182  75.6960373  13.4724922  75.1140747
   5.5559993  41.2805061  54.1560135   5.9095869  41.4169769  55.0349808
   5.1178794  40.4307785  54.2033577  66.6188354  29.3611717   8.9108515
  66.8170242  28.4799442   9.2276993  67.4166031  29.6388855   8.4606657
  18.2125340  37.5376282   7.1827950  18.1179848  37.3825912   6.2429786
  17.4642620  38.0892029   7.4110260  81.8686829  67.4951477  75.3025589
  81.8400192  66.7040558  75.8406906  81.4924164  67.2280884  74.4639053
  85.6461105   3.0059013  37.5011787  85.5286255   3.8797603  37.1286201
  86.2068787   3.1443524  38.2644615  38.1720505  44.0181427  44.9210014
  37.7393227  44.8665581  44.8252373  39.0804100  44.1826553  44.6679230
  84.1012039  19.0389786  38.7893028  85.0154724  18.7705460  38.8803101
  83.7537460  18.4752731  38.0981140  24.2419872  70.8608932  72.8229294
  24.8640995  70.1812134  72.5636139  23.6956959  70.9937439  72.0482330
  63.5208549  17.8565731  49.8567047  62.9861565  18.1038036  49.1022453
  62.8898849  17.7230587  50.5640068  29.9217587  52.8791122  60.1605034
  30.8236637  52.8713036  59.8399811  29.4075966  52.5192299  59.4377632
  13.5510893  30.6708298  89.1519547  12.6314507  30.8240490  88.9351120
  14.0107203  30.7503643  88.3161087  63.4164162  11.5981207  13.4925709
  62.8211555  11.8302622  12.7798243  63.5172081  12.4074392  13.9936457
  65.8984070  39.6871872  43.5909348  66.0950394  38.8629646  43.1457138
  66.2308044  39.5643311  44.4801178   0.1307841  10.2009916  61.3429375
  -0.2917641  10.2135315  60.4841423   0.4534301   9.3048420  61.4380569
  55.6329727  10.1029415  70.2972336  56.4341545  10.3334513  70.7675629
  54.9662247  10.0319700  70.9803467  53.7252502  61.2482948  81.9320984
  54.4288216  61.3459396  82.5737305  53.0142479  61.7917633  82.2717285
  17.7623482  10.6055584  51.4111633  17.3637829   9.8443851  50.9892731
  18.2112331  10.2472801  52.1769142  37.4556999  56.9947090  36.9010010
  38.3528671  56.8643074  36.5938911  37.0154037  57.4352913  36.1741867
  18.6229324  18.3392944  24.5964489  18.1446075  19.0893974  24.9496937
  18.0088177  17.6085243  24.6676311  50.7853661  54.8818741  32.3710213
  50.0295334  54.7485657  32.9430161  51.3582382  54.1370850  32.5536270
   8.4738216  59.6322632  76.0835114   9.0754995  59.9651566  76.7493896
   8.1750355  60.4137573  75.6185074  63.3158836  63.0800209  61.7705765
  63.1982384  62.4085159  61.0986595  63.0037880  62.6693077  62.5768890
  57.9428749  43.7317810  11.4841614  58.6584129  43.1033516  11.3876514
  58.1135216  44.1622429  12.3219051  60.2930260  45.5495872   8.8138590
  60.8084450  44.8001518   9.1120596  60.4544029  46.2275658   9.4700108
  20.4160843  62.9359093  81.0904541  20.9575825  62.9408264  81.8797455
  19.6252155  63.4141235  81.3395844  75.1974716  61.4776688  48.3059120
  75.8301315  61.6388474  49.0059128  75.1753693  62.2960510  47.8099403
  74.5858307  69.1806183  22.4598579  74.8210144  69.7322845  21.7138100
  74.2356491  69.7913666  23.1083870  78.7753677  33.3938065  52.7593918
  77.9914551  33.1137466  52.2868690  79.1840057  32.5784302  53.0499153
  15.2317543  56.5921936  45.5286331  16.0940876  56.5743942  45.1135483
  15.3794127  56.2321358  46.4031525  69.8921585   4.6228147  33.3203926
  70.7760849   4.6470275  33.6868782  69.5617142   3.7540922  33.5492172
  78.7842865  70.0708084  57.6833420  79.1193924  70.9651337  57.7475281
  79.0322723  69.6620178  58.5125732  46.2432976  26.2441616  87.4134293
  47.0592613  26.6005745  87.0621490  46.4429779  26.0453892  88.3282242
  45.3421707  58.1473846  70.7710419  44.3888969  58.0629921  70.7905350
  45.5791550  58.3936348  71.6651535   5.0312538  35.2161255  75.8340225
   5.2065654  36.0101814  75.3290710   5.0308990  35.5073242  76.7458496
   4.5083618  57.3084946  37.7461700   3.9350798  56.5862999  37.4892349
   5.2605953  56.8825722  38.1572304  55.1629639  15.1927710  36.5221329
  54.8561821  15.8424835  37.1545830  54.5299797  15.2385521  35.8055649
  41.2396889   0.3955162  13.0909719  41.0787849   0.8471383  13.9194517
  40.3737106   0.3113887  12.6919231   0.9851937  38.1210403  19.0300922
   1.3820263  38.9368248  19.3354626   1.6112245  37.7732124  18.3950062
  73.6246033  63.6235199  35.8307419  73.5531235  63.4275169  36.7649307
  73.1340866  62.9229584  35.4008141  34.0561943  56.2660370  41.8127098
  34.5791893  55.9508820  41.0755615  33.2570953  56.6070442  41.4109802
  86.3546524  35.1263199  35.6821709  86.5727234  34.6061516  34.9087982
  87.1250305  35.0525284  36.2454681   6.6117301  47.6336098  25.5275764
   5.7490869  47.9085922  25.2169914   6.4411497  47.2211571  26.3743458
  58.3574028  22.5830002   0.9334004  58.3667145  23.5250473   0.7640106
  57.5372009  22.2779922   0.5455004   7.7592993  65.5404282  72.1865768
   7.4961710  66.2374725  71.5856323   8.1197128  66.0009155  72.9443893
  63.9800758  54.0147362  68.8934479  63.2094841  53.5266380  69.1835938
  64.6210480  53.3397903  68.6702118  73.6423492  26.4714432   9.1205111
  74.0202866  27.3474350   9.1981678  72.7757950  26.5481987   9.5197954
  81.2408676  65.3930740  76.8768997  80.3936005  64.9698639  77.0156784
  81.7477188  64.7552643  76.3743668  48.7832527  14.4039631  77.5904083
  47.8557663  14.2180758  77.4439468  48.9154053  15.2742205  77.2143478
  46.1034813  63.0659065  21.2551746  45.8816452  63.9532471  21.5374031
  45.6670189  62.4967995  21.8890877  50.1520615  11.6513624  59.4874420
  50.4145126  12.2206383  58.7640648  49.2526741  11.3985243  59.2790871
  24.2087574  33.0542984  15.4531679  24.2882938  32.1016731  15.5023069
  24.5940781  33.3693085  16.2708035  81.3556976  57.3041344  46.0149422
  80.9948730  58.0514450  46.4919853  81.8639984  57.6960678  45.3048363
  67.4394455   4.4390445  40.5075035  67.3121033   3.4943829  40.4201431
  68.3897705   4.5517993  40.5273438  55.7796745  48.4172821   7.6041889
  56.7332535  48.3342094   7.6081977  55.4662170  47.5973587   7.9859004
  30.1072350   2.3595328  67.4249496  29.7070751   3.1932695  67.1779938
  30.9844723   2.5950511  67.7269745  23.8390446  13.5585909  71.6990814
  24.2438393  12.8065844  71.2668076  22.9323616  13.2900543  71.8475571
  70.1657410   4.9303126  40.6738663  70.2062683   5.8536506  40.4247971
  70.1576691   4.9405522  41.6309776  16.9767036   3.1637008   8.4801655
  17.2002010   3.9469719   7.9774060  17.7825623   2.9398837   8.9457102
  53.7109375  19.5730896  16.1910667  53.8531113  19.2598572  17.0843201
  52.8765564  19.1830730  15.9304457  14.6964092  61.2406769  42.1477280
  13.8540792  61.6513290  41.9525948  14.6563148  60.3912964  41.7082062
  21.5585575   2.2950685  85.8308716  22.2878475   2.2079749  86.4446945
  20.8210964   2.5747452  86.3732376  78.6989899   6.5404568   7.9542246
  78.9956055   5.6742001   7.6752138  78.2541275   6.8999891   7.1867180
  59.1866837   7.0807695   2.6485653  58.5682602   6.4343629   2.9890690
  58.6451683   7.8401732   2.4334004  82.8157272   9.4424810  80.3575974
  83.3923492   9.8749676  80.9874344  83.2408905   9.5786257  79.5108719
  82.8923264  55.0250282   0.2759600  82.5202332  54.1529503   0.4073384
  82.6313400  55.5165977   1.0547268  40.3386955  53.9980583  15.8208046
  40.7706909  54.0460434  14.9679813  40.2483864  53.0604744  15.9911308
   1.3534852  41.6383171  57.4062309   0.6517692  42.2705803  57.2510834
   1.2485597  40.9886894  56.7111015  34.0991440  17.5102081  13.6195583
  33.6692085  18.1250877  13.0251598  34.9398117  17.9207745  13.8219042
  59.2204819  55.2297707  71.8367386  59.3399315  55.5442657  72.7328720
  58.2711449  55.1794701  71.7250977   0.8697307  22.4731121  50.4740524
   0.9302221  21.5653210  50.7715263   1.4433547  22.5131245  49.7088165
  26.5100880  60.1518669  23.1777763  25.7824917  59.5971794  22.8964291
  26.9079227  59.6741562  23.9056187  64.2339325  53.1902580  33.1682892
  63.5737762  53.3472481  33.8434067  64.6367416  52.3580513  33.4161034
  58.3986740  12.2983961  50.6885757  57.5063553  12.5046930  50.4103050
  58.6098633  11.4842358  50.2316551  31.1598721  60.9560699  72.8911285
  31.6245308  61.6854057  73.3014832  30.2825394  60.9859657  73.2727432
  43.6221161  56.6292534  56.2963562  42.9345589  57.1715164  56.6829453
  43.6762390  55.8655357  56.8708458  50.0356483  45.8394585  83.2988739
  50.9919090  45.8482552  83.3403778  49.8017197  46.7111359  82.9799957
  73.2573090  41.3380203  69.5391693  73.6368942  41.0090065  68.7243729
  72.8443909  42.1659927  69.2938461  70.5482254  18.4552917  55.4178734
  71.1716156  19.0343266  55.8564224  70.3597031  17.7737293  56.0629807
  74.5623093  64.0531693  68.1509323  74.7373734  64.7920303  68.7337418
  73.6207886  64.0974808  67.9841919  29.9420586  38.4246864  60.0322342
  29.7902622  38.7705879  59.1527214  29.0804844  38.1273499  60.3246651
  15.6551723  58.6765022  56.0362816  15.1161022  59.4643745  55.9663353
  15.1353111  58.0773849  56.5720367  77.3306961  59.8944321  66.1679153
  76.6603546  59.5973320  65.5526123  77.6023178  60.7486572  65.8321304
  21.6084862  54.4629707   1.9610325  21.8060188  54.7640915   2.8479035
  22.2024097  54.9624367   1.4006590  68.2936172  55.2690430  61.2126083
  68.6802979  54.8333969  61.9721642  68.8076401  56.0697556  61.1083412
  85.4642944  28.6570396   6.2415748  84.5445786  28.5527916   6.4854641
  85.5790634  28.0790157   5.4872870  10.7373686  24.0056057   5.7673483
  10.9074383  23.9882526   6.7091589  10.8837309  24.9170704   5.5142870
  31.7136154  63.0735588  74.6958542  30.9185925  63.5148430  74.3967896
  31.5516243  62.8892136  75.6210632  63.5543938  49.2259941  43.8123512
  64.1290894  48.5288162  44.1284103  62.6829147  48.9754295  44.1189003
  57.0404625  63.3414040  40.6079292  57.6434135  63.9360695  40.1617699
  56.8747711  63.7582893  41.4534988  74.1008911  58.2426186  34.3630867
  74.7387619  57.5835571  34.0892410  74.3630753  58.4739990  35.2541275
  75.2916641   2.8133166  52.4987297  75.7442703   2.0659468  52.8896523
  75.4269791   2.7093606  51.5568619  65.3787613  45.7531357  23.6077156
  65.5868683  45.0359612  24.2065353  64.4264450  45.8367538  23.6559620
   1.4014415  25.8716927  87.0082397   1.4533789  25.3216782  86.2265625
   0.4794725  25.8387833  87.2634354  72.9228973  41.6156960   3.9895885
  72.2631607  41.0688438   3.5630510  73.6172638  41.0047798   4.2363238
  65.4794922   5.0376172  42.4891663  65.2450562   5.9647985  42.5292435
  66.2815247   5.0157070  41.9671555  44.4113426   2.6885662  21.3144588
  43.6301155   2.2661040  20.9574661  44.9437256   2.8957586  20.5464287
  43.1444092  28.5759716  59.7909355  42.5515442  28.9012451  59.1134834
  43.9939842  28.5111923  59.3547516  82.1960297  11.3522921  16.8916283
  81.7861176  12.2042170  16.7418518  82.6829758  11.4610910  17.7084999
  68.4169769   2.3042822  50.4655991  67.7962265   2.5034680  51.1664734
  68.3886566   3.0723863  49.8951225  79.8118210  58.3396835  25.0391808
  80.1105042  59.0112267  25.6524067  80.4806747  57.6566582  25.0875225
  58.5798492  69.4535446  30.1185513  58.7426682  69.9943390  30.8913746
  59.2638397  69.7085114  29.4993725  26.9306374  53.1009674  47.6229591
  27.1283703  54.0348816  47.5526581  27.5710468  52.7671852  48.2512054
  80.9575653  17.1030293  19.8037109  80.6653137  16.2779980  19.4162216
  80.9393082  16.9441357  20.7474537  86.5714035   0.4087388  46.5385704
  86.5899506   1.1588516  45.9442482  86.3272705   0.7806506  47.3861046
  67.3761673  35.1432571  17.9391689  67.9011765  35.7284012  17.3930950
  67.3899536  35.5483360  18.8063221  29.7247448  22.4130688  63.7234268
  29.1108131  22.9014874  64.2718506  29.2404518  22.2418575  62.9157295
  79.1958160   1.2420868  82.4765320  79.0384979   1.9432478  81.8441849
  79.7982178   0.6473362  82.0297394  59.9768639  14.9731979  12.7855778
  59.9331894  15.8017054  13.2629671  60.8371849  14.9835539  12.3660803
  12.3881350  60.8095932  58.0520172  11.5311499  60.3988762  58.1665535
  12.8624687  60.6026230  58.8572502  72.3930435  37.4497566  34.3619843
  72.6763458  38.2554131  34.7942924  72.8135681  36.7495232  34.8610535
   7.2508626  49.8384705   7.2229428   7.1991487  49.5569267   6.3095474
   8.0841837  50.3056221   7.2827678  13.7254171  14.4967442  81.6552048
  12.9875841  15.1030893  81.7198563  14.3996792  14.8792477  82.2167130
  66.1284180  56.3593330  40.0754433  66.4161606  56.2365265  40.9800720
  66.9067841  56.6765976  39.6175003  32.9065475   6.9036069  17.7339363
  32.1630554   6.3106680  17.6249771  33.0565987   6.9284468  18.6789761
  82.7939529  58.8517227  22.2745495  82.0272980  58.3313255  22.5146694
  83.5356293  58.3663406  22.6358604  67.4640274  46.3846893  65.5919647
  66.5727615  46.3044090  65.9317169  67.8909454  47.0043831  66.1835327
  15.8993225  26.9738026  79.3758392  16.5014133  26.3564148  79.7912369
  16.1628723  27.8296432  79.7139435   7.3310084  20.3682175  62.6181488
   6.7890906  19.7749653  62.0979462   6.9546542  21.2345333  62.4629555
  29.1290264   3.9754224  30.9462090  28.6816463   4.6736965  30.4681950
  28.5898056   3.8343406  31.7243938  64.0953369  45.0468216  10.7795715
  63.4486084  45.0313950  11.4850721  64.7370987  45.7005043  11.0572004
  86.0497055  23.5422955  44.5552940  86.0615158  23.1376209  43.6879234
  85.8727493  24.4675503  44.3855209  24.7874146  49.2132835  32.9524651
  25.4349289  48.5091705  32.9181252  25.2204533  49.9132881  33.4410400
  68.6828384  14.7916126  34.6611481  69.0044556  13.9157152  34.4476166
  69.1550598  15.0324526  35.4581642  50.7284622  20.1811867  74.4948044
  50.8302231  19.6870003  75.3082275  50.4987640  21.0658417  74.7791595
  78.3607788  39.7169647  54.1748543  78.1861267  40.5136070  53.6737633
  77.6397629  39.6658096  54.8023529  49.1342621   3.0237110  22.7799339
  49.3880653   2.1403129  22.5126820  49.0538521   3.5086129  21.9585705
  86.4048386  69.3268204   6.7920403  86.7593079  68.7444763   7.4639502
  85.6227722  69.7065582   7.1925354  49.8267746  10.5489931  52.7257500
  50.0273361  10.1644449  51.8724480  50.4146118  10.1014013  53.3343048
  58.6264153  60.1550026  11.3694019  57.9218102  60.7641754  11.1487856
  58.7422905  59.6266785  10.5796700  50.6285362  52.3879814  88.0912247
  49.7706680  52.0278702  88.3162003  50.9760323  51.7857933  87.4333191
  56.2103004  64.4458389  42.9149704  55.5677872  63.8801994  43.3432961
  55.6986885  65.1873779  42.5915375  68.2754974  14.8593082  57.8916283
  68.8001938  14.3398075  58.5007668  67.5846939  14.2633591  57.6020432
  54.8224640  41.9667397  62.9886818  54.7646332  41.1049538  62.5761070
  54.0915642  42.4600716  62.6163406  85.6575470  45.9258652  80.5893784
  85.5241394  46.3809586  79.7579193  84.8815842  46.1405296  81.1071014
  30.7844048   2.4100931  35.0203400  29.8416653   2.2647889  35.1001091
  31.1252689   1.5857646  34.6731720  55.2420425  26.8513203  83.7164536
  54.7746887  26.8657875  82.8812256  56.0980797  27.2311382  83.5185242
  36.8713531  33.0179214  79.0917740  36.1261444  33.5063095  79.4415894
  37.3361893  32.7026138  79.8668442  72.3047562  12.9797831  27.4246445
  71.8774414  13.1527166  26.5857601  71.6988220  13.3284721  28.0784740
   0.5796615  44.4765701  39.3811073   1.0903034  43.7731171  39.7818947
   0.4624488  45.1171074  40.0826836  13.3273392  69.4059067  50.7576180
  12.6614933  69.5990067  51.4176140  13.8865623  68.7459869  51.1675110
  54.5188065  28.5925808  38.7220039  55.4243660  28.5123196  39.0215950
  54.2133675  27.6893177  38.6380157  73.6443863  63.0531311  81.7566605
  72.7464828  62.7260246  81.8114319  74.0592651  62.7504387  82.5644302
  19.6126518  42.6135368  64.4381943  19.6151466  43.5018272  64.0815887
  19.3548203  42.0601921  63.7009239  64.6528015  35.3885345  63.8197060
  64.9560242  35.2964935  62.9164772  64.3572617  36.2968483  63.8817558
   8.2201862  17.6520729  85.9686661   7.5292158  17.9601078  85.3822327
   7.8940902  17.8483658  86.8469391  12.4198475  41.4328079  81.6966934
  12.1400051  40.7877083  81.0472565  11.6708403  41.5194817  82.2863617
  71.6732712  25.3948002  82.0784149  71.1982269  24.6259995  82.3938599
  71.0010071  25.9415531  81.6717758  37.7547073  51.6986504  48.5900841
  37.2132874  52.4311638  48.8842278  38.1826363  52.0205536  47.7966843
   4.4904971  16.5792789  78.3197021   3.8493819  17.2688046  78.4922028
   3.9632568  15.7964115  78.1604233  85.0687866  48.3099556  57.3055573
  85.2732162  48.9213181  58.0131416  84.3317642  48.7127647  56.8464546
   6.3122907  16.3340740   7.8417873   6.3974190  17.2707424   8.0196524
   6.8640785  15.9138918   8.5014915  56.7977753  51.0674744  51.6254807
  56.2485046  51.1860695  52.4003792  56.9226379  51.9524269  51.2826958
  81.2451553  59.6469078  30.2193584  80.9057159  59.5344925  31.1072617
  81.8313522  60.4011230  30.2807446  76.1111221  53.2319794  38.0679054
  76.5936508  52.6061859  37.5277367  76.6775131  54.0027122  38.1053772
  71.8786621  22.8019161  30.3882008  71.5454254  21.9537430  30.0953026
  71.4109955  22.9737129  31.2055168  76.6725693   0.5263913  57.1061516
  77.0526123   0.1100077  57.8797264  75.7303619   0.5304657  57.2748718
  32.7462692  54.9953880   2.4260778  32.8611641  55.8143387   2.9081037
  32.3312263  55.2573662   1.6042880   2.3287039  19.0061760  35.6779366
   1.4022317  19.2313919  35.7625465   2.4110429  18.1609898  36.1196556
  10.3424492  61.4945641  21.4217453  10.9906864  60.8379860  21.6765423
  10.7171535  61.9128723  20.6466026  48.3045540  70.9326248  83.7009201
  49.2446213  70.7801895  83.7972260  48.1833572  71.8481674  83.9525757
  -0.0016463  10.0903273  44.0118217  -0.2834742  10.3547659  43.1361046
   0.9479807  10.2102547  44.0042191   4.9325318  61.6523895   3.3490903
   4.0982170  61.2445602   3.5810940   5.5626984  61.2742767   3.9624033
  68.6414795  50.2360916  18.5459576  68.5163345  51.1443825  18.2710476
  69.5291901  50.0196571  18.2607307  49.1313705  45.0219879  30.2768173
  49.9511452  44.7259102  29.8811665  49.2053413  45.9761429  30.2955093
  19.5555897  38.1626167  87.4895630  19.5778332  37.3553619  86.9756775
  19.0079842  38.7575912  86.9773483  52.6082840   5.3880396  58.3966255
  51.7587891   5.6697965  58.0572166  52.9139366   4.7361212  57.7659035
  83.9313507  24.8868313  31.7874966  84.5079498  25.3469009  31.1774940
  84.4469986  24.8061504  32.5898895  37.5844536  10.4626760  66.1483078
  36.6439857  10.4776945  66.3258591  37.7394257   9.6060076  65.7503967
   8.5705204  22.4177151  16.3059044   8.0409899  23.0556927  16.7842464
   8.6732674  21.6867371  16.9152870  15.3826199  51.3383560  12.0704708
  14.6725931  51.7714233  11.5966063  15.0953598  50.4290810  12.1537161
  72.2370529  49.6038132  62.9017258  72.8071747  49.0289917  62.3910637
  71.4112015  49.6133842  62.4178810   9.7848825   0.7636372  18.6281853
   9.5494175   0.0609835  18.0223255   8.9519796   1.0384711  19.0115528
  28.6949406  15.3679895   3.0881178  28.7237549  14.7000446   3.7731378
  27.9487667  15.9197025   3.3227870  41.4812698  54.3313217  77.2658691
  41.8880997  54.7297173  78.0352859  40.5406342  54.4208450  77.4189148
  23.7492313   5.7538867  77.6549377  23.4949894   5.0709386  77.0343094
  22.9260769   6.0294471  78.0583191  12.1175900  30.6711006  25.9464073
  12.7163591  29.9301281  25.8533154  12.3276606  31.2430115  25.2081509
   3.5584025  39.6771278  70.0013580   3.5797260  38.8943214  69.4509125
   2.7143579  39.6311951  70.4504852   5.0345054  26.5265198  17.9233360
   5.5056534  26.1645718  17.1728382   4.1755953  26.1051216  17.8928356
  79.1421204  58.0318680  88.5543213  79.3470535  58.8385124  88.0815048
  78.6636581  57.4976196  87.9203796  67.1976395  52.8724785  46.9221611
  67.8368073  52.1957512  46.6991501  66.5155945  52.4074020  47.4066734
  46.2558708  14.6552782  60.4971504  47.0684090  14.5798712  59.9968300
  46.5032578  15.1410904  61.2839279  69.1637955  53.8665733  64.2184296
  68.5628510  53.1221199  64.2481766  68.7556000  54.5264397  64.7789459
  44.2417755  49.5680923   7.4746957  44.6327667  50.1408539   8.1344700
  43.2980690  49.6795311   7.5897222   0.4179934  15.8637533  77.1578064
   0.8996151  16.5477333  76.6925735  -0.0080613  15.3579016  76.4658356
  18.8086624  17.7705402  88.9566040  18.7984009  17.9339428  88.0135117
  18.0318680  17.2341995  89.1152267   8.5499258  13.6929541  58.8796158
   7.8075876  13.2637377  59.3049850   9.3163061  13.2135544  59.1943703
  30.4556999  51.0888023  73.6547012  31.3126392  50.8050346  73.3363266
  30.2056561  51.8014412  73.0666046   8.4742289  10.7321844  82.8736496
   8.2143269  11.3713427  82.2101974   8.5570173  11.2430096  83.6789017
  11.7358665  21.1211052  16.1614609  12.4639778  20.8753052  16.7321339
  12.0747547  21.8495274  15.6410875  66.8166122  29.6892090  29.0754890
  66.6989365  29.7694893  28.1289482  67.6499023  29.2288227  29.1750507
  48.5258751   2.7486637  34.4884071  49.0344925   3.4788074  34.8411522
  49.1835175   2.1313953  34.1679115  63.0106964  64.7593384  66.0163193
  63.6183624  65.4792404  66.1857605  62.2982254  65.1595764  65.5178986
  56.9556274  53.2416420  37.2258949  57.7629318  53.4796486  36.7700005
  56.8047867  52.3277321  36.9845390  41.3941498  49.7456665   7.7715898
  41.7897530  50.4601555   7.2723527  40.5405273  50.0852432   8.0403719
  50.2060928  59.4711189  20.5859356  50.9194412  60.0899086  20.7423611
  49.8717079  59.2654228  21.4589233  46.0662956  30.2088184  19.9476795
  46.8287659  30.7363834  19.7098827  46.2266083  29.9518433  20.8556957
  81.7165909  44.1034126  15.7298384  80.8451767  44.4706535  15.5815268
  82.0194016  43.8459778  14.8590517  80.0792999  59.6782608  74.9825897
  79.6642380  59.7242622  74.1212921  80.5274887  60.5186882  75.0776825
  42.4937553  12.3315544  73.3778687  43.0277023  13.1031647  73.1887894
  41.7796555  12.6621284  73.9228592  77.4251709  34.8706665  83.8389740
  76.8179550  35.5779915  84.0562515  77.7522430  35.0949402  82.9677887
  53.1727257  48.8562279  79.3501587  53.4143867  48.1975250  80.0012665
  52.6315384  49.4818192  79.8318024   6.7192230  64.1615448  64.1341705
   6.7670007  63.2283936  64.3419495   5.8506026  64.4295273  64.4340363
  55.4604645  52.6693077  81.8172531  55.9655304  52.1927109  82.4760361
  56.0907249  53.2713470  81.4215851  74.3549347  62.8697472  87.7591019
  75.1703796  62.4026260  87.9409866  74.2906723  63.5205269  88.4580917
  51.4526939  67.4059143  11.4350834  52.4028206  67.3708725  11.5458241
  51.1026497  67.1839752  12.2978945  30.7365837  44.8765488  80.6329727
  30.2628994  45.4250717  80.0076904  30.0497913  44.4363976  81.1337891
  12.9980202  15.1486654  62.6856804  13.9337616  15.3500042  62.6765862
  12.7466345  15.2199221  63.6065292  12.5810366  18.4228268  13.4473886
  12.8882160  17.5220184  13.5494595  13.0853481  18.9220905  14.0897560
  23.2629776  40.5384293  20.1641979  22.9777565  40.1205864  20.9767780
  23.2760334  41.4736862  20.3675671  11.1923418  42.0986366  75.4009476
  11.7255716  42.5144806  74.7234726  10.3012867  42.3993912  75.2226257
  49.2221718  50.7856522  11.9463444  48.5145226  50.1851311  12.1805162
  49.1834908  51.4725304  12.6118784  84.4464264  70.0261459  38.8890381
  84.3803940  69.5847168  39.7358055  84.7311172  69.3415680  38.2836151
  66.7161484  23.7109127  78.3922577  66.1890640  23.2324486  79.0321655
  66.1566772  24.4367523  78.1158752  26.2397938  44.1593590   0.2990512
  25.4608574  43.6191292   0.4318598  26.0106754  45.0075035   0.6790303
  53.7784309  15.4903231  58.2458267  53.3601875  15.6865749  57.4075012
  54.6997108  15.3504667  58.0269318  52.0535355   1.1534646  78.9737778
  52.2244263   0.2389866  79.1990738  52.8591728   1.6130152  79.2104034
  70.3544159   4.3474202  53.5781364  70.8131104   3.9415152  52.8425598
  70.7042084   5.2375817  53.6167297  68.7448120  40.0034714   4.4370284
  69.6136627  40.0663490   4.8337369  68.9090347  39.6825829   3.5502970
  31.9927769  37.6770668   1.9878118  31.6275883  37.2904968   1.1919256
  32.8718109  37.9595261   1.7353351  59.4740906   4.6603622  35.8180122
  59.0390701   5.3850360  35.3687515  58.8430099   4.3746772  36.4785805
  82.0559082  69.2808609  18.8144474  82.0418167  70.0041656  19.4412365
  81.7635803  68.5214310  19.3184738  52.0826073  23.4870224  82.2067719
  52.8981628  23.3571129  82.6907349  52.3475113  23.4881763  81.2869568
  39.9735031  44.3690529  57.6289368  39.9398193  43.4125824  57.6126556
  39.3757286  44.6177979  58.3339386  69.6259460  46.3899994  42.7263222
  69.2938385  45.6175499  43.1837730  69.9396896  46.0545692  41.8865128
  23.9843597   6.5528479  14.3408899  24.8822556   6.8834920  14.3146448
  23.7133408   6.5226212  13.4233570   7.7647028  60.5232353  46.2902679
   7.8470469  59.5771446  46.4101181   7.1965060  60.8068314  47.0064774
  35.9830589  60.1748848  87.6193390  35.2816925  60.8146515  87.7418747
  35.5343666  59.3796654  87.3320541  22.4638424  11.1541262  57.3528709
  23.2323494  11.6954317  57.1722679  22.7517014  10.2601814  57.1678505
  79.1398773  -0.1961413   1.1457098  79.3336716   0.7310278   1.0077549
  78.3291321  -0.3462883   0.6595225  35.1616058  27.6864758   4.5835581
  35.1264648  27.7207508   5.5394988  35.2489281  28.6008224   4.3141584
   6.3450999  12.4814224  15.2856226   6.7724037  12.4408083  16.1411896
   5.5047154  12.9061918  15.4575443  14.2325697  22.1504269   0.7373224
  14.7165766  21.6290607   0.0968957  14.2098732  23.0305367   0.3616600
  80.9948959  12.7170429  26.2942886  81.9250641  12.5534830  26.4500599
  80.8052139  12.2597713  25.4750462  21.4516830  54.4241066  55.2364197
  21.9960251  54.9328690  55.8373222  21.3336945  54.9957542  54.4777832
  65.5906982  50.8969765  17.7361050  65.4968567  51.8463936  17.8137760
  65.4246902  50.5668564  18.6191082   5.1090617  34.4054565  64.2623749
   5.4003801  33.6265984  64.7364502   5.6156974  34.3950272  63.4503174
  84.1988449   7.3613024  39.7585716  83.8717194   7.0581551  38.9116211
  83.4835968   7.8864560  40.1175499  44.2208176   5.5112610  75.5342712
  44.6551437   5.3066039  76.3623505  44.7432747   6.2198334  75.1585083
  41.4401245  31.7625637  75.5346375  41.0850563  31.6518555  76.4166260
  40.8206558  31.3031902  74.9676590  69.9913864  35.0779610  63.1261597
  70.3377609  34.3657990  62.5884933  69.1256714  34.7734184  63.3982315
  13.2251062   7.8796840  10.9310522  12.6939917   8.1737938  10.1910191
  13.5286427   8.6879940  11.3442497  78.1417542  62.3958168  65.2341843
  77.6119766  62.7459145  64.5179520  79.0195236  62.7426147  65.0745316
  74.6587601   2.9328587  42.9505539  74.2292480   3.6374776  43.4355965
  74.1783142   2.1432748  43.1994820  62.0535316  22.9589119  80.7656555
  62.8987198  22.8764896  81.2073593  61.4979820  22.3033199  81.1873169
  70.0632477  68.8486099  62.9018707  70.8427048  68.3165054  62.7420082
  69.7474213  68.5596085  63.7580070  66.5164490  23.0777206  23.3972111
  65.6502533  23.4777451  23.3202305  66.6507034  22.6341400  22.5596905
  59.9441528  30.7028999  28.8068199  60.1795197  31.1293392  29.6308250
  60.0231514  29.7668114  28.9904709  23.0554085  31.1759434  82.9039764
  22.5842495  30.8179455  83.6563568  22.4191170  31.1517487  82.1892853
  10.6622066  64.3128510   1.2340759  10.4955158  65.2069092   1.5325696
  10.8081264  64.3981781   0.2919199   7.6741924  65.6407700  67.8204651
   8.2663422  66.0212250  68.4691925   8.2328243  65.0719528  67.2907410
  63.7491074  41.4329529  77.1744461  63.2898941  40.5933342  77.1943436
  63.3334122  41.9497223  77.8646469  35.8398628  58.3976860  28.4147339
  36.2090797  57.5188293  28.3279896  35.0650940  58.2788315  28.9641323
  59.3806152  45.0482254  72.2217865  58.8403282  45.2916183  71.4700699
  59.7519150  44.1984138  71.9847488  37.2737770  54.0723915  75.6859436
  36.5176697  54.5453453  76.0335846  36.9308548  53.2090302  75.4552002
  70.2937622  54.2828484  68.6069183  69.6721039  53.8318024  68.0356598
  69.8221664  54.3959160  69.4321671  80.5421906  13.6400547  44.4199944
  81.1037216  14.3066559  44.0243225  79.8605118  13.4826021  43.7667274
   6.9194956  47.6031418  11.9920235   7.0682044  48.5288925  11.7993994
   6.5261579  47.2524109  11.1929579  62.3778610   4.5392742  62.1826134
  61.6528282   4.2193642  62.7194710  61.9639320   5.1149950  61.5396194
  34.6470795  43.9997215  28.5378628  35.1330185  43.3781204  27.9959164
  34.0881653  44.4705696  27.9196815  12.0349483  21.2844296   5.7986064
  12.9726334  21.1224518   5.9022450  11.9625635  22.2363605   5.7291837
  47.1812668  20.4651108   0.9279835  46.7500038  21.3189507   0.8933268
  47.5618629  20.3534794   0.0568247  52.0751114  50.4020348  59.2095451
  52.6367607  50.4279442  58.4348755  52.5785065  49.9043007  59.8538170
  84.5219727  43.3917427  83.0649948  84.0873871  44.2433052  83.1119690
  83.8215561  42.7567978  83.2149887  61.1127434  49.1534996  49.0412827
  61.9327049  49.3108940  48.5731735  60.7366562  48.3841667  48.6135941
   4.6696815   3.1802449   1.8164160   4.2549033   2.8966227   1.0017080
   4.9848771   4.0645232   1.6295065  66.7110672  22.9521179  54.2914886
  66.0452042  23.6397667  54.2909546  67.0125504  22.9099388  53.3839874
  21.5272655  15.5095253   6.9387064  21.2273750  14.6986322   7.3494983
  20.7224655  15.9813967   6.7245445  38.5198021  52.7294769  26.6414623
  38.5858154  52.8887329  27.5830097  39.2789192  52.1833878  26.4371128
  62.0872154  52.4004021   8.9398804  61.7526512  51.8470879   8.2340908
  61.3361092  52.5304337   9.5188150  16.1012039  62.5778732  11.8770752
  15.4695282  62.5921822  11.1580381  16.1611900  63.4899101  12.1613693
  75.1498337  36.6554375   8.6060219  75.3224716  36.1872063   9.4228373
  76.0175552  36.8256912   8.2395449  82.5353241  11.5620222   5.0160680
  82.9695358  10.8909988   4.4893613  82.3318024  11.1235142   5.8422170
  17.1113739  48.3627853  52.5544777  16.9254856  47.4913979  52.2046776
  17.2637634  48.2184753  53.4883842  37.1228104  53.9228172  80.1104813
  36.7828751  53.3133507  80.7656326  36.3472786  54.2199860  79.6345901
  85.9291382  37.4779015  15.9586668  86.0678864  36.6392746  16.3987694
  86.8054428  37.8548393  15.8797302  25.7622242   5.0105224  79.1358795
  25.0132561   5.4369950  78.7194672  25.6334972   5.1612458  80.0723343
  63.9641800  18.3984280  88.3090820  63.6434555  18.8316746  87.5180893
  63.8395348  17.4648991  88.1381378  39.1499710  58.0196838  14.7807875
  40.0206146  58.1893692  15.1405325  38.5511017  58.2112198  15.5025225
  63.3479233  15.3803406  77.8828812  63.6060181  15.3515263  76.9615784
  62.4493141  15.0506744  77.8902969  44.7060852  49.4498100  26.3689327
  44.9904594  48.5385132  26.4389687  45.5028534  49.9332390  26.1505470
  48.5172729  50.5712318   1.0373738  48.1652412  50.6406975   0.1499727
  47.9167976  51.0882072   1.5744007  55.2203941  17.3514824  43.8242035
  55.1218147  17.9252968  43.0644341  56.1616211  17.1861649  43.8789711
  55.7227173  51.0908966  68.7369461  55.3923531  51.8878517  69.1516266
  56.6702118  51.2192802  68.6921921  29.8905163  58.4363289  28.6464729
  29.8360233  57.5538025  29.0130939  30.7490063  58.7576180  28.9221535
  22.8077831  35.8266220   4.0080433  22.3127975  35.8697166   3.1898966
  23.7008972  35.6145325   3.7367499  19.0836506  26.0716419   4.0334105
  18.6616974  26.9183178   3.8873785  18.6049767  25.6891479   4.7688031
   4.1107469  18.7631035  50.1392784   4.9414530  19.1666183  49.8876114
   4.0452108  17.9847736  49.5859795  80.9196320  59.3730240  27.4694691
  80.5496140  60.2554970  27.4930935  81.3411560  59.2671432  28.3223114
  33.1887703  44.3988609  82.9930878  32.3071251  44.0588799  83.1458817
  33.4076347  44.8675842  83.7984695  30.3603821   8.1982670  41.3677101
  29.5199356   7.9911685  41.7763557  31.0128212   7.8174458  41.9555283
  86.7967224  67.1768646  47.7360535  86.3921127  67.1664352  48.6034737
  86.2579422  66.5830002  47.2132988  56.2109985  33.4648438  16.2698383
  55.6473732  33.7939224  15.5696478  56.9801598  33.1201973  15.8161402
  48.3488731  45.1421394  36.2066536  47.8180504  44.4693069  36.6329727
  48.6894646  45.6712151  36.9279785  76.2970505  16.6809196  55.8597679
  75.5302353  17.1599331  56.1740608  76.9787064  16.8705292  56.5044556
   4.7554011  39.3229713  20.5275002   4.2696157  39.4894447  21.3352947
   4.1790919  39.6395226  19.8318768  29.5593548  41.0262871  87.9880371
  29.9084358  41.8841362  88.2298355  28.6366997  41.0634270  88.2401428
  63.0119820  23.9784756  75.8162155  62.7622681  24.0141182  76.7395782
  63.7440224  23.3623238  75.7896881  15.5052414  20.0744591  20.4343338
  16.0795422  20.7737541  20.7464161  15.5105190  19.4274673  21.1397457
  65.2850800   2.4547060  69.4014816  66.0047684   3.0741014  69.5224533
  64.7129440   2.8747709  68.7592697  48.5568581  57.8261833   4.5217748
  48.8837051  57.9447289   3.6299510  47.7462006  58.3344269   4.5493016
  38.6639404   4.4990396  85.4657898  38.5585518   5.0901680  86.2112350
  39.6029320   4.3155560  85.4364929  74.2022552  64.1302338  14.7128372
  73.9552383  64.5031509  15.5590906  75.0612640  64.5088654  14.5258112
  12.6973047  10.7871056  20.0784874  13.2660675  10.0179729  20.1127567
  11.8234224  10.4475603  20.2715435  49.1673851  69.9238281  35.2902412
  49.0919762  69.7289429  34.3561287  48.7366219  69.1873169  35.7241020
  33.8534813  52.7735901  40.0831795  33.7559204  51.8224220  40.0385208
  34.2039375  53.0188789  39.2268829  25.2131577  35.5642891   2.7389574
  25.9195213  35.9845352   3.2295430  25.3690491  35.8185196   1.8293989
  82.4249115   3.6224339  25.1282043  81.6730270   4.2112556  25.0634937
  82.9440842   3.9754379  25.8507557  46.9428101  66.2202606   8.2371149
  47.4886169  67.0040741   8.1741028  46.0778160  66.5497131   8.4809895
  39.4378090  54.1603775  19.6855583  39.9542847  53.5900726  19.1161442
  38.8153992  53.5720024  20.1129379  49.2247925  69.3782272  51.4984207
  49.2867279  68.4990005  51.8717346  48.5149307  69.3175507  50.8591614
  74.4010544  39.1052856  87.9592056  75.1868973  38.9375763  88.4793472
  73.8862686  39.7116508  88.4917068  22.0591717  11.7927370  73.7175140
  21.8023281  12.6522884  74.0513306  22.1772175  11.9265146  72.7770844
  24.8096275  54.6764679  62.6262093  25.4841690  54.5007820  61.9701881
  24.5119724  55.5651588  62.4316216  15.1005735  57.0178528  21.7827053
  15.8963223  56.7413292  21.3282280  14.3870697  56.7277374  21.2143955
  72.4536896  24.8235188  12.9683599  72.9281235  24.5078926  12.1992540
  72.2374954  24.0303230  13.4585953  15.9882650  65.1681671  17.7934647
  15.7780266  66.0779190  18.0041447  15.6497622  65.0432587  16.9068737
  83.0925674  11.8223276  19.8244610  83.3371048  12.7424946  19.9230690
  83.8817749  11.3375473  20.0660572  74.1924591  24.4476871  22.2818127
  74.8119049  25.1346378  22.0356026  74.3994217  23.7180347  21.6978550
  81.2184906   8.2356462  39.0628853  81.4253616   9.1464729  38.8535271
  81.1641388   8.2159014  40.0183372  51.8663635  66.7429733  22.0503273
  51.9454880  66.7733688  23.0037670  52.5735893  66.1621933  21.7696953
   2.6057854  71.1182785  58.5238571   2.0893812  70.5204468  57.9833412
   3.1081870  71.6363449  57.8950195  15.7086277  18.8915501   0.4938151
  15.6653709  19.7378349   0.0486596  15.8958616  19.1103859   1.4066603
  40.4455986  65.5948944  54.7017517  39.7336273  65.5871277  54.0620155
  41.2379456  65.7087784  54.1769218  83.4792252  50.1344604  87.3866119
  83.6960297  50.5323334  88.2297745  83.0891342  50.8461876  86.8791580
  28.2718239  57.5296059  66.5270538  28.5218391  57.5640678  67.4503860
  27.3266850  57.6810646  66.5290298  26.7894440  36.6060448  62.9733734
  27.1518841  36.8669586  63.8200073  27.0516911  35.6910362  62.8722992
  45.3200798   3.1549942  57.0482826  44.8033752   2.4158914  57.3691826
  44.9905434   3.3113260  56.1632996  35.5004425  34.4867935   9.9952841
  35.8549805  34.3593445  10.8752222  36.0605125  35.1585922   9.6063852
  56.6904945  14.7218504  73.3726883  55.8391190  14.8037815  73.8024292
  56.8106003  13.7793074  73.2568436  27.2154102   3.1827326  83.4643021
  27.7148647   2.5961056  84.0323257  27.4459019   2.9098887  82.5762405
  15.6152792  64.7403946   4.8017464  15.4683847  65.6578369   5.0318599
  14.7782564  64.4467010   4.4420676  58.5655518  62.0182228  42.5694695
  58.5541306  61.0611038  42.5745850  58.0427322  62.2599068  41.8049545
  38.2023659  58.8603096  89.2203369  37.6552696  58.4537773  88.5482864
  38.7264671  59.5049057  88.7448883  69.0807877  44.7733040  11.9462585
  68.6462021  45.6244698  12.0000010  68.3814545  44.1373749  12.0971336
  65.2888489  41.5599098  66.3672867  64.6111450  42.1763268  66.6447296
  66.0029755  42.1145096  66.0531540  57.4290237   9.1149569  27.1984024
  57.1632385   8.8329477  26.3231544  57.4743309   8.3055573  27.7073746
  16.6481209  20.0089016  10.5283661  15.8607950  20.3239479  10.0844116
  16.9767437  20.7720737  11.0035553  46.7111702  43.4225502  56.7712402
  47.2552681  44.1906395  56.9450874  46.2315788  43.2791367  57.5871162
  78.1205597  26.9388580  48.0806885  78.3764191  27.8077412  47.7711601
  77.9347305  26.4451809  47.2819519  85.5852432  40.8661842  44.7028923
  85.3234634  41.3999367  45.4531021  85.0788116  41.2175789  43.9705772
  36.0958977  69.9623566  37.0092049  36.0794563  70.9025421  37.1881142
  36.3352013  69.5634995  37.8457909  50.0569801  48.2539825   0.1224585
  49.3637085  48.9004707   0.2553461  49.9677734  47.6518517   0.8611828
  37.7178192  32.0646667   2.8688087  38.6637764  32.0491600   3.0142543
  37.5878639  31.5361366   2.0814102  26.8149319  50.1609840  25.8737354
  27.0291824  50.4212303  24.9778557  26.6414833  50.9856339  26.3277168
   7.9503560  50.7848854  27.7773838   8.1373577  50.3189201  26.9624367
   7.7305527  50.0945587  28.4029770  41.7395821  58.5434647   7.2564425
  41.6028175  59.4576416   7.5050483  42.5660934  58.3025436   7.6748557
  31.4809189  65.6517105  25.5890846  30.9222775  64.8757248  25.6338806
  31.1048679  66.1771088  24.8828468  54.2045174  69.9414291  29.5879726
  54.9407883  70.0072250  30.1960945  53.7682724  70.7913818  29.6471939
  34.8910522  36.7846222  13.0695305  34.5855675  37.4499054  13.6862230
  35.7686424  36.5578308  13.3771601  64.8505096   4.7134957  39.2320290
  65.7231445   4.8184228  39.6111450  65.0080185   4.3206153  38.3735008
  24.9187069  69.1244431  20.3896751  25.8241558  68.9317398  20.1462383
  24.3976612  68.7854614  19.6617756   1.8791347  53.3098946  79.4086685
   2.6256311  53.6572037  78.9204559   2.2637203  52.9406929  80.2036667
  86.0951462  54.6507034  31.7440166  85.4394150  54.3049011  31.1384907
  85.9428482  55.5956993  31.7478924  65.9465561  32.7888260  46.6738815
  65.4745331  33.5475426  47.0170631  65.6125259  32.6816864  45.7832756
  51.4108276   6.9187179  53.0938606  50.6469307   6.6225920  53.5888329
  51.7401123   6.1283140  52.6660004  20.7369137  54.8536835  65.7038956
  20.0554657  54.3776398  66.1784897  21.3424969  54.1738319  65.4084244
  37.9122696  27.1486626   6.4151855  38.1501045  28.0473995   6.1872873
  36.9612312  27.1188126   6.3109403   5.8760262   6.4464459  66.3038788
   5.4921904   5.8181744  65.6921768   5.1234646   6.8888993  66.6964569
  74.8250961  37.3527069  73.0334549  74.2444534  38.1133766  73.0117798
  75.1696091  37.3397408  73.9264069  36.1955490  20.6303291   4.8289628
  35.6507034  21.1219063   4.2143679  36.5909729  21.2999668   5.3870454
  49.9599609  10.1386690  47.7949562  50.8715363  10.4296045  47.8198357
  49.4662018  10.8652258  48.1751480  35.5309143  14.2049046  80.6413498
  35.7521744  13.5488577  81.3023224  35.9696922  15.0019464  80.9387207
  31.3349762  58.5689583  42.8590164  31.3756046  57.6192970  42.9717941
  32.2507057  58.8463326  42.8319435  57.2732239   9.0941496  79.5132675
  58.0872879   9.2141733  79.0242691  57.4678726   8.3917704  80.1337509
  54.1309128  62.2258339  47.4654961  54.2694397  61.6653404  46.7020226
  55.0122986  62.4792709  47.7396469  45.2682343  40.1616516  75.3047562
  45.5784760  40.0573883  74.4052505  44.3616371  39.8553505  75.2824478
  72.1246033  64.6624222  32.8099060  71.7736664  64.0382004  33.4450645
  71.8827667  64.2989044  31.9580822  17.9682827  56.3336296  32.9015350
  17.2430763  56.6028290  33.4653091  18.0811043  55.4010391  33.0853157
  35.6645432  59.9904480  84.7487640  35.9498215  60.4215775  85.5543518
  35.9227104  60.5923004  84.0506592  68.8031311   4.8283057  11.1815643
  69.2227325   4.7959771  12.0412865  68.8283615   3.9240744  10.8685789
  77.0754776  40.8931961   9.5791855  76.3216782  40.4540825   9.9731245
  77.5766678  41.2237473  10.3246927  62.6454124  40.2372360  42.6970253
  62.5602722  39.7090950  43.4907799  63.5342445  40.5900879  42.7383080
  12.9768858  44.5239449  20.4942322  13.5779858  45.0056152  21.0624809
  12.1757793  45.0478363  20.4941311  78.9878540  22.5354633   5.1077938
  79.8243408  22.9806194   4.9723215  78.7222595  22.2531796   4.2325754
  36.5886612  59.3895493  44.4733353  37.2349625  60.0147057  44.1451454
  37.0442467  58.5477562  44.4655724  31.4139137  20.4144402  13.6633177
  31.3586445  20.5632877  14.6072569  30.8654613  19.6451473  13.5096350
   1.5530269  15.4843664  64.8728943   1.4668308  14.9482803  64.0845947
   1.4415578  16.3836040  64.5643768  24.9623528  10.0755615  24.6678047
  24.1648178  10.1924496  25.1840477  25.1440754  10.9437017  24.3078880
  45.3930740  45.4275665  12.0695000  45.6488037  45.3742828  12.9903669
  45.2987823  44.5157471  11.7939606  16.9089470  57.9105873  60.2900047
  16.0468540  57.6700935  60.6294022  16.8782482  58.8641243  60.2121964
   9.2546949  53.7831726  50.4348373   9.7576685  53.9088364  49.6301880
   8.8845892  54.6456184  50.6230965   0.6533970  14.1607199  41.7477379
   1.1379716  13.3516035  41.5841866   1.1323589  14.8297749  41.2586632
  59.3983879  41.7189484  18.6824837  58.6798744  42.3479309  18.6165199
  59.8234673  41.9272881  19.5144310  23.2623787  36.2946320   8.1394453
  22.9460888  35.4339905   8.4141941  22.5144100  36.6941490   7.6954145
  53.0101585  70.3675690  21.7890129  53.4546394  70.7199554  22.5600452
  53.6319733  69.7404480  21.4198189   8.0530701  29.5037441  87.9067612
   8.0649385  28.9046841  88.6532364   7.5422111  29.0451450  87.2397232
  50.0921364   1.0485127  88.1508026  50.1978188   0.1249205  87.9226761
  50.7801170   1.2163987  88.7947922  39.5424500   5.5877643  65.2597427
  38.8649483   5.9427223  64.6842194  39.6764145   4.6926150  64.9483032
  50.1539154  45.1881866  22.2226887  49.6239243  44.9031944  21.4782963
  51.0091705  44.7839622  22.0765114  59.6781693  41.5229149  11.1871710
  59.8633461  41.2242355  12.0775251  59.4074707  40.7321243  10.7206955
  76.8493042  20.5486393  32.5948753  77.0473251  21.1454811  31.8732128
  77.6129456  20.6055984  33.1692009  37.6238289  19.2868423  73.5381775
  37.1346550  18.6380329  73.0322266  38.2624969  19.6411514  72.9194717
  71.7792511  22.5467052  63.3163452  71.8233643  23.1587543  62.5817146
  72.6776962  22.2337704  63.4216537  27.2423897  28.0033646  12.7694473
  26.5649719  27.3924694  12.4793673  27.2041416  28.7211933  12.1373930
  61.3071098  51.8787804  41.6799736  61.6091614  52.7827568  41.5915146
  60.4584122  51.9514771  42.1166191  77.3769226  20.1079216  81.0472870
  76.5022354  20.1564732  81.4330368  77.9016342  19.6456814  81.7009277
  30.8373947  62.7942238  21.4261189  31.0215454  61.9175797  21.0887527
  30.7258072  62.6696053  22.3685894  22.7407455  39.4052238  36.4557419
  22.1114712  39.8350830  37.0349350  23.5084953  39.2532616  37.0068283
  84.4701080  45.2220612  49.2816429  84.6892090  44.6826782  50.0414391
  85.3166275  45.4477463  48.8960114  68.1401520   9.2630405  28.5353470
  68.6269989   9.8467884  29.1171112  67.2423325   9.5939884  28.5605221
  70.4012909  31.1175442   6.6002536  69.9420700  31.6597366   5.9588675
  70.8200378  30.4326515   6.0789099  67.0008087  26.4909058  24.1067810
  66.4764404  25.7346764  24.3701992  67.6579285  26.1309299  23.5110970
  53.1615524  64.6533127  28.0043983  52.3438759  65.1453476  28.0788136
  53.7031212  64.9785995  28.7235088  41.3903503  71.2282944  69.6695480
  40.7147598  71.0125961  69.0266800  41.9300041  71.8900528  69.2370224
  63.6081848  20.6055565  53.0446129  64.3814163  20.4787941  52.4948235
  62.9030571  20.1633663  52.5718575   4.2193141  68.3151855  88.8161697
   3.4058011  68.8195038  88.8063202   4.4377465  68.2310638  89.7443085
  11.4494057   3.2748959  45.4020920  11.8797817   3.1544805  44.5556259
  11.2579327   4.2118883  45.4422913  50.4971466   4.1688514  31.4434586
  50.8262596   4.3349447  30.5600967  50.3025398   5.0380678  31.7939205
  15.4832077  44.5889244   6.5447760  15.4809437  45.3019409   5.9061575
  14.6626368  44.1224174   6.3858247  32.3295021  66.2153015  54.0285263
  31.4902344  66.4291992  53.6209564  32.3069763  66.6647949  54.8733215
  14.0122261  58.7302475  72.0279999  14.5498228  58.2968750  71.3651199
  14.6409626  59.0479126  72.6760788  14.3301802   3.5717475   9.0529375
  15.2410908   3.6241906   8.7635880  14.1735849   2.6364107   9.1827631
  65.2942734  37.9242973  36.9873543  65.4384918  38.6593895  37.5832329
  64.7011871  38.2696457  36.3201141  56.2409592  35.9358864  51.5854301
  55.3096428  35.8421593  51.7856598  56.2673759  36.5475082  50.8495979
  73.8872147  46.5177536  33.6476746  72.9389267  46.4380760  33.7507973
  74.1925125  46.8527718  34.4907570  65.6373901  68.1941376  29.6720695
  66.5837631  68.3376770  29.6716518  65.3296127  68.6284866  30.4675884
  37.0450630   3.5107651   2.2782271  37.4474182   2.7584963   2.7123165
  37.7530174   3.8963745   1.7621430  71.7651749  25.5243111  44.0931015
  71.5437775  24.6026306  44.2262344  70.9811172  25.9041080  43.6965561
  16.1584225  36.6716385  67.5026245  16.3843517  35.7881546  67.2116928
  16.9610996  37.1777649  67.3770218  49.5940933  46.5652847  38.1161842
  50.1320419  46.6093712  38.9066887  49.3607788  47.4755974  37.9341736
  66.7914352  39.1917458  40.7299194  65.9756317  39.2184906  40.2299423
  66.7668228  39.9810715  41.2708397  61.1107903  63.5049248  42.8395500
  60.4406090  62.8976936  42.5259247  61.8237038  63.4228210  42.2061081
  27.0664120  66.0921402  27.5008755  27.9490643  65.9201279  27.8288574
  26.6005268  66.4631653  28.2502232  86.2263718  54.3813667  20.4047718
  85.3607101  54.7742653  20.2930241  86.6490707  54.4867630  19.5524540
  81.2725983  21.3484039  29.1383018  80.9641953  21.7039967  29.9717712
  81.6425781  22.1020718  28.6785889   3.5491498  28.3969822  78.7188416
   4.2865620  27.9919701  78.2623062   3.9415126  29.1109104  79.2214203
  70.9320602  39.0348778  77.0437164  70.5870132  39.8758278  76.7437668
  71.2357941  39.2049217  77.9353790  82.5712814  52.9716721  73.8629456
  83.5202942  52.9679222  73.7381210  82.4113770  53.7009315  74.4619751
  14.3891640  36.4291725  18.9201050  15.1455126  36.2895012  18.3503170
  14.3011265  35.6094971  19.4065323  84.0158310  44.6385269  54.1867409
  83.9989090  45.0311127  55.0595627  83.1161194  44.3479691  54.0373154
  33.2942581  58.9050484  35.9750862  34.2285881  58.9365997  35.7695122
  32.8591614  59.0120773  35.1292343  22.4892521  45.5289612  74.2588043
  23.0345058  45.1179199  74.9296036  22.5632610  46.4674568  74.4319458
  72.3331070  36.9765816   1.4331486  72.8251648  37.2126541   0.6467785
  71.6697388  36.3594780   1.1243432  12.7590885  66.8028030  64.1993332
  13.0266724  67.7168274  64.1035233  12.1340561  66.6604385  63.4884872
  62.0280876  39.0281181  79.8116837  62.6500511  38.4925728  79.3191528
  61.7093277  38.4491920  80.5041199  54.0120697  58.4452553   6.4194121
  54.8288422  58.6208801   5.9522171  53.5060844  57.8972168   5.8195257
   6.7584906  30.0803375   4.6239433   6.1812019  29.3363152   4.7954164
   7.2771320  30.1703091   5.4234104  30.3371925  13.3003902  69.8465195
  30.3426762  13.9063883  69.1055908  30.4960270  13.8547411  70.6105194
  35.7774277  16.4574413  82.2207336  36.4544220  16.8375397  82.7805786
  35.0620728  16.2452793  82.8203049  26.9354954  11.3829451  12.2225485
  26.1154900  11.6525612  11.8088694  26.9232082  10.4268627  12.1779747
   6.7497063  70.1805725  32.2634430   7.7062259  70.1864624  32.2278481
   6.5406561  70.5034256  33.1399689  76.8549042   5.1379695  30.4710732
  76.8069305   4.7701530  29.5886669  75.9487762   5.1393538  30.7795677
  58.0439682  25.8950710  67.1216125  57.8654861  26.6693001  67.6554184
  58.8682671  25.5514507  67.4661255  14.4318972   5.2485085  16.9816475
  14.0264101   5.7112808  16.2483978  14.2650499   5.8083549  17.7399120
  13.5024509   0.1354399  25.3340588  13.9516191   0.9748387  25.4335079
  13.7929459  -0.3821053  26.0850525  85.2055435  68.4474258  36.9893265
  86.1544876  68.4092484  37.1088257  85.0062485  67.7066879  36.4167671
  54.2287178  43.4898491  16.0609646  54.1331787  44.3319588  15.6160479
  53.4909210  43.4555779  16.6698246   6.7125859  13.2832298   1.7623748
   6.7348294  12.3266249   1.7370059   7.2523718  13.5551262   1.0201244
  58.0065079   9.1526823  45.7318077  58.8033714   8.9581118  45.2384720
  57.8346443  10.0774260  45.5542030  71.0820465  37.0011559   3.8243194
  70.2012405  36.7644501   3.5338154  71.6151886  36.9601860   3.0303996
  23.0690937  46.3744659  33.8769226  23.5421944  47.0904465  33.4529152
  22.1844635  46.7160225  34.0073166  31.9159546   9.1630650  66.7177734
  31.5011559   9.9159164  67.1389465  31.5977211   9.1880474  65.8153687
  56.9943924  15.4538383  45.6230049  57.4768066  14.7129822  45.9899368
  57.2249260  16.1924801  46.1864700  67.3181686  63.0149155   1.6150756
  67.6936111  63.8689117   1.8294740  66.6357498  63.2078705   0.9721836
  85.6839905   4.8928299  58.7421799  85.9288940   4.7698126  57.8250542
  86.0902176   5.7236109  58.9891968  83.9888306  66.2495422  85.8354721
  84.4078064  66.9369583  85.3176270  83.4446335  66.7221832  86.4653015
  10.3414698  44.1997643  60.5316582  10.5191593  44.1489754  59.5924683
   9.5309315  43.7043419  60.6492043  80.5392761  24.9312496  84.1744919
  80.8514938  25.2433281  83.3251648  80.0145874  24.1579189  83.9673920
  60.0526428  45.9170151  44.1254959  59.4893684  45.5767632  44.8206100
  59.5211449  45.8500977  43.3322334  47.6028481  10.8771963  58.1756096
  46.7600517  10.4326029  58.0846977  47.6552963  11.4499054  57.4104424
  63.9128685  43.8444405  88.9103012  64.6089859  44.2322884  89.4406128
  64.3699112  43.4450188  88.1701660  17.3336887  53.4115028  11.0307465
  16.4907093  53.0856552  10.7154055  17.8997116  52.6396751  11.0422049
  48.2779846  28.3186817  39.1562157  49.1889458  28.1666889  38.9046516
  48.3230095  28.5700817  40.0787125  46.0669556  49.5688019  37.2168121
  46.2567558  50.4980469  37.0875206  45.1116753  49.5137062  37.1916924
  80.7131805  14.0305901  21.1982098  79.8809891  13.6060400  20.9897690
  81.3552017  13.3208504  21.1804600  59.3288193  37.2988052  61.5474167
  60.1348991  37.7734985  61.3446045  59.5894508  36.3778343  61.5581322
   1.5691332  63.9698372  31.7016106   1.1996191  64.1207809  32.5716133
   1.3628598  64.7662430  31.2123070  26.7390823  66.1500092  24.7896900
  26.6961346  66.4121170  25.7093029  27.3476295  65.4112320  24.7793770
  68.5135345   3.5122879   2.7284200  69.0294037   3.2849035   3.5019886
  67.6226273   3.2376828   2.9454536  11.6858940  63.5174026  68.6126785
  11.7494593  64.4720078  68.5823517  11.5158157  63.3178139  69.5332642
  59.1907463  61.4110832  54.3447418  58.2377968  61.4035759  54.4345284
  59.5120506  61.6288605  55.2197113  45.2087746  20.7263203  18.7550564
  45.0747986  19.7978134  18.5648994  46.1589661  20.8231964  18.8181992
  13.6837015  24.6166000  80.8680344  13.6381378  25.1246758  81.6779861
  13.0617657  25.0459995  80.2806320   3.2634547  71.2970276   1.3338113
   4.1375341  71.1853561   0.9599844   3.3919213  71.1977158   2.2771380
  66.6973114  40.5995255  48.1173325  65.7760468  40.7757454  47.9264183
  66.8449020  40.9989052  48.9746208  66.7893295  15.0483446  42.4949532
  65.9712448  14.9629221  42.9845161  66.7160873  14.4031477  41.7916832
   7.0038238  67.3061142  21.8859959   6.5796580  66.5151901  21.5531902
   6.5321288  68.0255508  21.4662971  47.8294258   2.6638727  77.6549149
  47.3341827   1.9013380  77.9540863  47.9914703   2.4951231  76.7267456
  86.5597305  65.2859421  37.6458702  85.8071289  65.4430771  37.0756683
  87.3206329  65.4280472  37.0827904  30.6737213  46.9008293   5.1454377
  30.0052395  46.5388985   4.5637412  30.8587437  47.7688293   4.7868643
  16.9016514  49.3336067  47.4935112  17.2151413  48.4384613  47.3644066
  17.6927204  49.8402748  47.6771698  47.0236359   9.1524515  62.5558014
  47.9235306   8.9412899  62.3071289  47.1115608   9.8574619  63.1972542
  85.9912643  61.5898285  14.5360870  85.1508713  61.2610626  14.8552856
  86.5355530  60.8076935  14.4452868  62.1896172   7.9132414  77.2865753
  62.4507217   7.0287418  77.5429306  61.7969437   7.8054533  76.4203033
  33.3261719   3.1538692  25.5942383  34.2208405   3.3003283  25.2870750
  32.8613052   2.8195312  24.8271980  28.7102909   2.7500134   3.0316284
  29.6313305   2.4917688   2.9965968  28.5933971   3.3236086   2.2742934
  14.7652340   8.9342403  64.3120956  14.8023434   7.9777603  64.3125916
  13.9214411   9.1414022  64.7137527  81.4365540  57.6042557  39.2008018
  82.1555481  58.1854210  38.9527550  81.8008194  56.7231064  39.1164169
  52.4056816  58.8291283  36.1083832  52.6402931  58.0327644  35.6319504
  52.5383453  58.6050415  37.0294800   8.3373470   1.0653614  22.6666508
   8.4446774   1.0206228  21.7165413   9.2300558   1.1313562  23.0056896
  43.3873863  62.5305367  47.5765915  43.9374657  61.9945869  47.0052757
  42.7924271  62.9841309  46.9795113  51.8286285  41.2447815  16.8562450
  50.8814697  41.1311913  16.9351234  52.1985207  40.4611626  17.2628860
  58.6559486  50.8842735  16.8967934  59.1356888  50.9548645  16.0715065
  57.7402153  50.7907600  16.6342735  40.2567520  62.8845520  73.0658112
  40.7547798  62.8347130  72.2498932  39.6445770  62.1502647  73.0179825
  38.0168037  54.1186562  58.7714844  38.7843437  53.9833336  59.3271828
  37.3804855  53.4739532  59.0808220  50.3320656   2.7557836  48.5250893
  50.7361183   2.5914655  47.6730499  50.1341743   1.8844414  48.8683586
  74.9490814  68.9212646  73.7054825  75.7558823  68.4111862  73.6338577
  75.2450409  69.8135223  73.8858109  71.0784149  43.2740860  49.8103790
  71.1479034  43.9369354  49.1233330  71.4891281  42.4954910  49.4344330
  85.9932632  10.0688028  41.0576134  85.0587921  10.2442932  40.9471474
  86.0837860   9.1326017  40.8799477   8.2382622  15.4411449  17.6119747
   8.7616243  16.0823898  18.0927334   7.3356624  15.6253328  17.8720150
   3.6584191   4.9795880  52.1427002   3.9473956   4.2706656  51.5681114
   3.1811595   5.5759864  51.5658417  37.1248016  56.8042259  87.4106522
  36.7924232  56.5209274  88.2624207  37.5482330  56.0261650  87.0479431
  42.9111595   8.3913965  53.9962502  42.9795456   7.6311817  53.4186440
  42.2201271   8.1594324  54.6166496  44.4952393  10.3826056  55.1874237
  43.8972740   9.7331543  54.8174477  44.3040733  10.3773251  56.1253281
  80.5974274  30.1592293  12.4084625  79.9062729  29.9994965  11.7657967
  81.3299103  30.4974499  11.8933830  29.2346802  60.1645927  77.8170166
  29.2025986  59.5258865  78.5292358  28.3496170  60.1615028  77.4524841
  72.1709213  36.9902344  61.3730431  71.8890076  36.2910118  61.9628258
  72.0562363  37.7931404  61.8813934  72.5960541  16.3522587  66.7582779
  73.1467667  15.9530344  67.4317474  72.7842789  17.2887955  66.8191071
  68.4693146  10.2508707  46.1820374  68.5528870  10.3906879  47.1252785
  69.2180634   9.6997242  45.9543419  19.5198631   5.4726143  84.4230881
  19.1560097   6.2162323  83.9425888  19.6932888   5.8156185  85.2997284
  46.5249138   8.2874413  46.3774452  47.3172607   8.3604383  46.9095078
  46.4976730   7.3678150  46.1132889  50.3832321  62.2693443  29.6050587
  50.0705795  61.3762093  29.7492523  50.7550163  62.5318413  30.4471416
  34.5304871  42.2299690  77.6218033  35.0642624  42.2607079  76.8278503
  33.8857536  42.9276123  77.5041199   5.5510731  48.1038704   3.2078512
   5.7107215  47.7960854   2.3156564   5.2070079  47.3379669   3.6674657
  37.9698334   6.2278938  31.7109890  37.3264275   6.1206031  32.4115257
  37.4505539   6.2284875  30.9068851  85.5361938  56.6106224  73.3289261
  86.3243713  56.4629936  73.8516235  85.6316147  56.0219841  72.5801697
   6.7366276  45.8590965  48.9960327   6.0721240  46.5109863  49.2189789
   7.3293619  46.3157692  48.3990822  47.7637901  15.7162724  27.7284527
  46.9099922  16.1246376  27.5852642  48.3881149  16.3180542  27.3231049
  50.4990425  49.7232399  53.0068817  50.4733276  48.7973785  53.2484398
  50.7591515  49.7232971  52.0857010  76.4365082   9.3475208  76.6486130
  77.0070343   9.9504519  76.1719513  75.7784119   9.0821209  76.0061874
   4.0480433  61.5947075  33.4766579   3.7794149  60.6761284  33.4597092
   3.4816201  61.9977951  34.1346207  76.9999008  33.5611305  74.2139130
  76.8799286  33.7052231  73.2752609  77.6278839  32.8406982  74.2672958
  67.5144882  11.2125072   0.9128522  67.4455719  10.5681105   0.2084125
  68.2695236  11.7497396   0.6729966   8.0578918  64.2633514  75.9209061
   7.8934608  63.7653694  76.7216568   8.1684532  63.5968666  75.2428207
   5.1507888  16.3478985  15.9278784   4.4071727  16.7764988  16.3516369
   5.1000495  16.6284065  15.0141106  45.8386383   6.2830896  22.8540897
  45.1078720   6.8941550  22.9479733  46.1427345   6.4096527  21.9553471
  76.7602921  32.6730843  51.1668282  77.0061874  32.0694656  50.4658203
  76.5620499  33.4944572  50.7170677  36.8982010  27.1152096  70.3299789
  36.1394653  26.7640953  70.7961044  36.7048836  26.9587994  69.4056473
  22.1174240   4.3721738  19.2600021  22.7511139   3.8799715  18.7380772
  22.0300274   3.8677814  20.0688190  40.4675865  52.8632774  53.0226898
  41.1834793  53.4071617  52.6941795  40.4395447  53.0459404  53.9618797
  73.0862427  28.9052505  12.6409588  73.0614929  28.3792171  11.8416424
  73.8089600  29.5174160  12.5025368  34.1511078  46.3051338  48.3539734
  33.8032112  47.1967812  48.3410225  35.0503693  46.4034271  48.6668549
  17.9510803  29.2301502  -0.0962688  17.6570091  28.3500843   0.1387629
  18.1530285  29.6468964   0.7414491  24.2840023  26.5858212  87.6182480
  23.6244850  27.2793674  87.6020126  23.7799263  25.7782497  87.7180710
  59.8057480  30.8458157   2.3474104  60.4702835  31.4313622   2.7103910
  60.0206070  30.7875347   1.4164592  10.5253630  24.2647438  26.5884800
  10.2887878  25.1637440  26.8166542  10.5695992  24.2640514  25.6323032
  82.6900940   9.7943430  29.6891975  82.8185959  10.6677999  30.0590496
  83.5753860   9.4774590  29.5101032  69.8554764   1.7005424  85.9474564
  68.9358139   1.6470770  85.6874466  70.2502670   0.9020855  85.5969772
  46.1534500  70.4205475  14.8775969  46.2565498  71.3464279  15.0975008
  46.9673424  70.1885147  14.4304171  49.7253532  32.3646431  66.2010040
  48.7773857  32.3262062  66.0740662  50.0032692  33.1311340  65.6995239
  16.9101830  35.9668159  56.4069977  16.6611900  35.6873627  55.5260124
  17.6809330  35.4393692  56.6167030  47.0999298  28.2281322  79.8055878
  46.4570847  27.6238670  80.1768646  46.7793884  28.4051571  78.9211960
  45.9057121  10.5102549  21.9753551  45.4271660  10.5018291  22.8043022
  45.3305969  10.0526257  21.3621254  73.2070007  66.4799118  50.6220055
  72.6578979  66.6135788  49.8494415  72.8643112  67.0964966  51.2690086
   8.5392580  24.2797546  64.4457474   8.4810362  25.0396519  65.0248795
   7.6435876  24.1455650  64.1359100  65.9364243  67.2057953   8.5694008
  66.1969833  66.3160934   8.8076544  66.5395432  67.4523239   7.8681812
  64.7281799  50.4446449  20.4610538  63.9537392  50.7781868  20.9140701
  65.4558716  50.6493721  21.0482388  71.6356659  31.9272270  73.8082123
  72.4057922  31.8236923  73.2492752  71.9452515  32.4495430  74.5481949
  63.4447632  68.4382019  82.4331360  64.2421722  68.6935501  81.9692764
  63.3876114  69.0508270  83.1663818  77.7743301  42.4966354  21.9130821
  78.6455994  42.5076790  22.3093281  77.4126740  43.3617210  22.1055984
  20.0095844  35.4963303  86.1220474  20.8889236  35.5848312  86.4896927
  20.1429596  35.0464706  85.2877350  40.9593086  36.9049301  65.9029083
  41.2290916  37.6740685  65.4010315  41.7470818  36.6405830  66.3780594
  51.7359886  61.7255478  56.8587494  52.1992722  62.5365829  57.0680771
  51.7088127  61.2448654  57.6860580  82.4489441  51.1235619  12.4216986
  82.5002060  50.7256660  11.5526285  81.7127151  51.7324905  12.3632765
  23.4532814  40.5541344   8.4505062  23.3706684  41.5077591   8.4482946
  23.8409271  40.3453369   7.6005850  39.1142540   2.0224864  29.7400913
  39.3999519   1.1496494  29.4703407  38.2598801   2.1343253  29.3232327
  65.2450638   6.7981215  47.8848724  65.9953003   7.2953467  47.5590668
  65.0050583   6.2230792  47.1582680  69.1935349  22.3402958  56.0498199
  69.1154022  21.7977543  56.8345337  68.9924088  21.7461128  55.3268204
  23.3602886  39.1147766  80.1433716  24.1958237  39.5816727  80.1543274
  23.4049244  38.5261917  80.8969040  79.1817017  25.4983063   9.7415590
  79.1929169  25.8511009   8.8518162  80.0561905  25.1287346   9.8637133
  78.8633728  45.4905930  46.2554665  78.1172333  45.6702385  45.6834259
  78.9100952  44.5353622  46.2953148  58.5839996  32.9120827  56.4667473
  58.3823051  32.9768372  57.4002151  59.4418182  33.3273468  56.3776894
  36.0833282  29.2417927  76.2887726  36.9150581  28.8235722  76.5113754
  36.1417999  29.4052124  75.3474426  78.2350540   8.8626499  21.8918686
  78.8881836   8.4715757  21.3115959  77.4861832   9.0418835  21.3232708
  73.4032288  14.0635185  31.2200966  74.1046677  13.6871471  30.6885242
  73.8574371  14.5896988  31.8781738  66.1653824  55.8955421   1.7647375
  66.5406494  55.0240822   1.8911084  66.5000916  56.4093323   2.4997365
  50.6924858  28.4060364  68.8957443  50.1676483  28.5491924  68.1081619
  50.5152245  29.1704502  69.4439011  27.9287643  11.1580820  74.4260864
  27.3503838  10.4510355  74.7120743  27.7632198  11.8684664  75.0459061
   5.4020925   9.9517832  30.1601677   4.6319561  10.5019655  30.0172653
   5.3691196   9.3056898  29.4546833  50.2214203  37.2337189  85.3086624
  50.2010040  37.9025269  84.6241837  50.8966484  37.5341187  85.9169846
   3.0366304  24.5213966  14.8698921   2.9716020  25.1290493  14.1331682
   2.1901007  24.5889740  15.3115406  50.2534599  49.6614952   3.1863184
  49.5018425  49.0984840   3.3715875  49.9527969  50.2392616   2.4848783
  31.0371838  37.1391449  62.5357323  30.6498833  37.6778374  61.8457718
  31.0367508  36.2522049  62.1757736   5.0872078  14.0545187  17.3971443
   5.3065319  14.3579340  18.2780933   4.9636607  14.8575544  16.8910809
   1.2278086  20.6433525  18.7492409   1.7836894  21.2994556  19.1696663
   0.9050662  20.1045189  19.4715481  77.5992661  45.9352684  19.8291130
  77.6035919  46.5985374  19.1389790  78.4380341  45.4841957  19.7330513
  80.5388107  14.5204268   1.3935249  80.1737289  13.6589489   1.1915345
  81.3341827  14.3326330   1.8918744  70.7344971  70.6705551  67.3767548
  71.3016510  70.4647217  68.1198578  71.1560211  71.4186249  66.9537354
  52.7888412  11.0111055  16.0396900  52.5854454  10.0788183  15.9641819
  53.1744308  11.1023226  16.9110279   1.3043020  62.7432594  64.3739853
   0.5717991  63.2737122  64.6875000   2.0742993  63.2963638  64.5059357
   3.2543986  57.0010910  19.0077000   2.8319778  56.3857193  19.6069603
   3.7640586  57.5778999  19.5767078  34.1313248  33.9195175  66.9937439
  33.9165192  33.6574364  66.0985336  34.5314445  33.1412811  67.3816681
  19.4106979  54.8465424  41.9289627  19.6866016  54.4117241  42.7358322
  19.8240376  55.7089996  41.9682617  19.9330482  41.6291084  45.5429382
  20.7994347  41.2971497  45.3075523  19.4280434  41.5771255  44.7314606
  77.7342300  37.2420425   6.8601465  77.4614258  36.9326630   5.9963779
  78.5394897  36.7584953   7.0444336  58.5584831  59.8978043  76.3640518
  59.3703156  60.1162491  75.9064026  58.7942238  59.9153938  77.2915955
  41.3024178   0.6102566  74.7010345  41.9456100   0.9212456  75.3380737
  41.7697563   0.6176136  73.8657074  56.0916519  30.2002411  67.4464645
  55.6945419  30.4902058  68.2677155  55.4953651  30.5159550  66.7675018
  70.4972687  57.0188408  12.1126852  70.9225769  57.6157265  11.4969931
  70.7547302  57.3419533  12.9761353  15.2058811  32.9309196  11.6005421
  14.8521938  32.0418091  11.5755415  14.6946840  33.4104576  10.9486589
  75.7552261  67.3259277  57.8527908  75.8893051  67.9340439  58.5797348
  76.0695038  67.7999725  57.0828934  20.4927235   5.9529901  86.9893341
  21.4381428   6.1009779  87.0120010  20.3786488   5.0763516  87.3563766
  66.3646851  33.6845551  22.3357506  66.9780579  32.9568787  22.2332993
  66.7664261  34.2447472  22.9998474  25.5916939  49.3879623  61.5979385
  24.7691059  49.0279236  61.9295311  26.2709293  48.9214439  62.0850067
  10.3059225  17.7132511  69.1456375   9.7761831  16.9422321  69.3484650
  10.5330257  17.6114216  68.2213669  53.8711777  47.1333427  81.2553253
  53.7065010  46.9991074  82.1886520  54.6894112  46.6660652  81.0868530
  17.8157024  34.6627960  78.0188675  17.2942162  34.1344986  78.6231689
  17.1909332  34.9535408  77.3545151  32.6793900   0.7970989  44.3755646
  33.3766861   0.1413601  44.3716660  32.9138222   1.3917729  45.0880508
  79.7365112  70.8865662  78.8789368  80.4961700  71.4683838  78.9042206
  80.0689621  70.0751266  78.4951706  64.2063293  15.3112698  75.2714996
  64.2886810  14.3787346  75.0719299  64.6538162  15.7513037  74.5487518
  40.4393120  66.8740768  46.7796707  40.8153229  66.9440842  45.9022026
  40.1890335  65.9537048  46.8602715   2.7240505   1.9314920  70.8498611
   3.1948171   2.7615623  70.7750702   2.8445504   1.6691902  71.7625046
  85.5489044  36.4569855  55.8607521  85.2211838  36.1952705  55.0003242
  85.7452240  37.3893166  55.7688408   6.8376932  23.9023800  79.6625366
   7.6890993  24.3343964  79.5939636   6.4168644  24.3203239  80.4138412
  50.1469116  25.5595055   9.6708851  50.4033890  24.8430939  10.2515783
  49.4226837  25.2031708   9.1563396  71.8839264  41.1737633  47.9882431
  71.8531265  40.2171249  47.9993324  70.9861679  41.4400215  47.7898407
  31.6428528  54.7581596  40.5113831  32.0099525  55.6060600  40.2613144
  32.3642387  54.1403542  40.3923950  28.9095554  10.6983442  87.8015213
  29.7215824  10.7065830  88.3082504  29.0682468  11.3126440  87.0848007
  77.7729721   8.5549898  72.8221741  77.0008316   9.0088282  73.1599045
  77.6270065   7.6356177  73.0450592  28.3294277  69.7598648  66.4293671
  27.5226765  69.5536957  66.9014664  28.0416889  70.2803574  65.6793442
   6.1954255   5.5911512  44.5022736   5.2462134   5.4695282  44.4813843
   6.3524251   6.1160445  45.2871742  21.1136513   7.3782487  52.0223083
  20.2031784   7.0849867  52.0579338  21.2617092   7.5883317  51.1002579
  58.3393402  30.4336376  84.7871399  58.8798485  29.6437454  84.7748260
  58.9675026  31.1544342  84.7413635  77.1919250  50.6708031  37.3010750
  77.4573822  50.2437057  36.4866142  76.3177185  50.3241234  37.4794235
  82.7933273  13.8365145  88.5297928  83.1769714  12.9985313  88.7883148
  83.3978958  14.4934063  88.8750839  76.2157059  69.5637131  20.0919209
  76.3189545  69.9754715  19.2340012  77.0802536  69.2041092  20.2906036
  47.8482704  66.9273224  85.6960678  47.4299545  67.4008255  84.9770126
  47.5200958  67.3546448  86.4872208   3.5140615  53.7726326  53.2521286
   4.3798056  53.4608650  52.9884605   2.9093990  53.1080475  52.9220657
   6.0655460  46.9591675  68.9838791   6.9835668  47.1258049  69.1976547
   5.6121178  47.0012207  69.8258209  84.1259155  28.3115234  52.9505005
  84.6312790  27.8519821  53.6210709  84.6779861  29.0523510  52.7002487
  39.2384453  34.5677719  71.5479965  39.3582420  34.4138794  72.4851227
  38.7753029  35.4040833  71.4998932   5.2139959  56.2820396  54.9197578
   4.6652169  55.5547752  55.2132835   4.9060550  57.0338974  55.4258347
  23.9228592  35.7427368  72.0585785  24.5629349  35.7552834  71.3469772
  23.6057682  34.8398285  72.0796127   9.6064606  19.9015789  15.3095093
  10.1289244  20.5698471  15.7529964  10.2009077  19.1575108  15.2134523
  24.1349373   6.2859693  18.0457802  23.6817570   5.6252084  18.5694733
  23.5001125   6.5363398  17.3745537  79.1015091  27.0543041  26.8140221
  79.8935852  26.6489182  27.1668663  78.3832626  26.5571327  27.2054100
  36.0731773   7.3550806   4.5431128  36.0098305   7.5701799   5.4736781
  35.9636612   8.1939907   4.0953770   2.6805971   3.9667394  11.9371061
   2.6424732   3.0629821  12.2501564   3.4200592   3.9787257  11.3294182
  36.4764061  63.9450531  19.2438793  35.8520241  64.5313568  19.6712246
  37.1382179  64.5289307  18.8733006  56.2398872   6.9415751  61.2164383
  56.2111053   7.5002589  61.9931488  57.0472183   6.4367313  61.3143196
  51.0483475   5.2301764  39.3940201  51.1154022   5.1553702  38.4421082
  50.1512604   5.5262136  39.5484047  77.2638702  32.8342552  61.3742294
  77.6803589  32.2045860  61.9626961  77.9940720  33.2828522  60.9478493
  63.2777443  58.2183762  12.2143135  63.6401482  58.9589157  12.7006159
  62.3539276  58.4389610  12.0954218  49.3952332  42.1909828  44.5408211
  49.4636345  42.9605560  43.9757500  49.2233620  41.4665985  43.9391937
   4.7219062  32.1072121  86.7143402   4.5981259  33.0561142  86.7364883
   5.1995783  31.9091129  87.5198288  73.9196320  48.3871346  60.9844398
  73.8499374  48.8031006  60.1251717  74.7980804  48.6138000  61.2897186
  70.9657364  32.8186722  61.7645340  70.6060867  31.9467125  61.6015244
  71.6263504  32.6821671  62.4436378  60.1851730  16.2455044  50.6011009
  60.8114243  15.7847137  51.1594124  60.5925179  17.0956707  50.4352150
  76.9187317  61.4448128  86.9619522  76.8726196  60.5010986  86.8086243
  77.5406494  61.7636261  86.3078766  81.5212097  19.2819252  39.5605812
  81.4150925  20.0227585  40.1573524  82.4655304  19.2252045  39.4147415
  49.2196236  52.6441460  26.7785435  49.8829269  53.3261490  26.6730175
  48.5080795  53.0735130  27.2534962  66.8179855  43.0501404  76.6432419
  67.4138260  43.0842972  75.8948822  66.8044739  42.1272087  76.8967133
  42.6401138  39.6372185  82.9021606  42.9541664  40.1034546  83.6769028
  43.4244308  39.2320633  82.5321274  58.6680298  25.4799080  64.4457703
  58.2554893  25.3935184  65.3051758  59.0276413  26.3669739  64.4407959
  30.8157883  46.2768402  15.4001980  30.3530178  47.0907898  15.2013025
  30.1480522  45.5957870  15.3193846  51.3066902  36.8860283  23.4561310
  50.6908722  36.1716232  23.2929554  50.7699547  37.5837326  23.8320961
  79.9550095  30.7595654  59.0718498  80.4524765  31.4076691  58.5731354
  79.0399170  30.9481812  58.8638496   3.3285570  23.7518959  45.4325943
   3.1233838  24.2179985  44.6221123   2.8255725  22.9394989  45.3755913
  74.6680603  62.6183395   8.0614157  75.4588394  62.9712257   8.4693098
  74.9573517  62.3151398   7.2008276  21.1451244  37.3771019  25.5016785
  22.0922318  37.4437981  25.6232243  20.8364677  38.2829094  25.5235443
  58.3769836  70.1112137  76.2554779  58.1813278  71.0068130  75.9800720
  57.6341667  69.8620377  76.8053589  60.8881493  68.7125854  23.3581123
  61.8158607  68.6060791  23.5684452  60.7224159  68.0662384  22.6718178
  32.2522163  18.1829529   0.9959418  32.8077698  17.4174423   1.1428666
  31.5623608  18.1083431   1.6553072  31.1201973  48.0104370  88.2376480
  30.3278370  48.5446815  88.2922440  30.9575768  47.2792206  88.8335571
   0.2278236  42.6947708   9.9489450  -0.4639829  43.3263664  10.1457281
   0.7503087  43.1166077   9.2668190   9.8254471  11.5907469  45.1032295
  10.2101564  10.9179945  44.5414162   8.8836651  11.4236212  45.0665321
  58.8588181   5.7537060  60.9066048  58.6435432   4.9691572  61.4109573
  58.5701561   5.5528255  60.0163498  65.9105988  51.3309364  60.6685333
  65.6251373  52.0148277  60.0626984  66.8659744  51.3897934  60.6632347
  44.3333359   1.1876708  79.9769669  44.1927986   1.9661955  79.4381027
  45.2235260   0.9070105  79.7647705  39.6053734  54.6309967   3.5405722
  40.5266266  54.7671165   3.3192184  39.1476479  55.3579102   3.1183000
  83.0199051  22.6244411  72.2578735  82.1005783  22.4891872  72.0281601
  82.9918442  23.1131077  73.0804596   2.7020354   1.3214334  63.8434448
   1.8768275   1.7831476  63.9920502   2.6055517   0.9321898  62.9743004
  27.8848267  22.7671509   9.1690502  28.5101299  22.9635506   9.8666563
  28.3132648  22.0884724   8.6474495  46.6612968  47.3809433  61.9209290
  46.1435738  46.8174171  61.3459206  47.5197067  46.9592438  61.9600296
  81.1191254  66.7165146  38.3543892  80.7801819  67.5875244  38.1477623
  80.8472137  66.1721954  37.6154594   5.7643604  68.3259354  50.5463753
   6.0498767  68.3270416  49.6327515   4.9450603  68.8208694  50.5418701
  43.8363724  52.4899406  66.6552658  43.0083237  52.3200836  66.2061310
  44.5055122  52.1530647  66.0594482  68.2983704  31.4949169  45.9298019
  67.4389725  31.7929363  46.2278824  68.1521378  31.2043724  45.0295639
  55.4305916  34.9938469  70.0467453  54.8359909  34.7962303  69.3231277
  54.8772354  35.4184151  70.7023163  21.7627201  54.5698776  37.5686722
  22.3863869  53.9571075  37.9582672  20.9536629  54.4341316  38.0618553
  70.3267899  62.8674393   7.5855107  71.0152969  63.4984055   7.3755856
  69.7781219  62.8419724   6.8015780  33.2418327  20.7630882  69.1159439
  33.1732368  20.9033756  68.1715622  32.4363403  21.1373291  69.4728088
  75.0092621  67.4763565  25.3240089  74.6602097  66.5854111  25.3485870
  74.3691559  67.9978256  25.8083382   1.1935809  36.5587425  13.0056467
   0.3487659  36.6851463  12.5737419   1.5060008  37.4455872  13.1849041
   4.9545627  63.3714371  73.8805618   4.9397926  63.5151863  72.9343338
   5.8421264  63.0623627  74.0620422   8.8478832  37.7837944  21.1820621
   9.7703543  37.9983826  21.0433884   8.8564892  36.8776245  21.4903069
  65.7422104  57.7310600  50.7017899  65.5942917  56.8147774  50.9358330
  66.6644669  57.8847656  50.9068794  69.6778488  68.8342361  70.2831421
  70.5719452  69.1270218  70.4594879  69.2111816  69.6300354  70.0278778
  71.0157166  11.7860374  16.3503990  71.8642731  11.6796961  15.9204264
  70.8179550  10.9202194  16.7074432  36.2692947  53.9338188  62.6761208
  36.1422424  54.5576973  63.3908691  36.0337524  54.4221344  61.8872604
  24.3683510  58.9651833  65.8928299  24.7797298  59.5004196  66.5714493
  24.7022953  58.0818672  66.0492477  80.9067307  47.3658371  46.2581863
  81.6793289  46.8035736  46.3146629  80.1669617  46.7585983  46.2733307
  12.3016815  13.8531418  79.5506592  12.7743979  13.9724302  80.3743973
  12.2058535  12.9046383  79.4646912  53.4821434  35.5090103  31.2930717
  54.3029060  35.5962639  31.7778072  53.4831429  34.6040001  30.9813232
  16.7871304  46.3109398  44.4982452  17.3580933  46.4732475  45.2491722
  16.1236343  46.9990234  44.5487022  82.2018661  28.2699471  55.0402756
  82.6430740  28.2463207  54.1911469  81.8983688  27.3725758  55.1775398
  78.3021240  51.4066658  39.8003464  79.2348328  51.6195259  39.7691002
  78.0897293  51.1294746  38.9091225  77.3444595  50.4729233  75.6987534
  76.4679337  50.7755280  75.9361572  77.3307724  50.4256172  74.7428207
  86.4249573  16.3878174  69.3948441  86.9110489  17.2080574  69.3102341
  86.5607910  15.9415951  68.5589828  17.9288368  39.4173889  43.8567848
  17.4533863  40.0381012  44.4089584  18.5971107  39.9469147  43.4217567
  35.7131042  30.9511757  16.0469246  35.5842171  30.6366825  16.9417515
  36.1705933  31.7856407  16.1498909  38.5947800  70.3743286   6.2166862
  38.7766418  69.4480515   6.3753281  37.8474884  70.5718155   6.7812982
  27.2771130  57.5056381  82.2007217  27.5411720  58.0415192  82.9486084
  26.3981323  57.1993866  82.4239578  36.3945580  45.0432510  69.1722183
  36.3105965  45.7595940  69.8015366  35.7208099  44.4152679  69.4328613
  78.1537933  32.4297333  28.5601902  77.4119034  33.0294037  28.4812737
  78.2962799  32.1066170  27.6705132  56.2261391  58.4011726  76.9111176
  56.3929634  57.7553368  77.5976257  56.9134979  59.0571327  77.0272293
  41.1904221  13.8815737   8.0534620  41.5853233  13.5029545   8.8389120
  41.9186440  14.3064594   7.6002579  68.1610336  70.7518539  33.6955185
  67.4236374  71.1672287  33.2483749  67.9423904  70.8127899  34.6254196
  82.0511246  46.1057625   5.4625311  81.6184311  45.8144569   6.2651243
  81.3999252  45.9659119   4.7750568  79.7354660  51.8377762  64.8275528
  78.9091492  52.0868454  64.4135513  80.3027573  52.5993080  64.7072067
  35.0906334  71.1372223  65.7358856  35.4357491  70.3890915  65.2486191
  35.7748375  71.3447876  66.3722916  33.0601501  50.7311325  13.8579569
  33.2854996  51.4278336  13.2414732  32.9241791  49.9595070  13.3081045
  50.4351082  60.7568779  36.6402359  50.9847794  60.0870323  36.2335396
  51.0353470  61.2546349  37.1953735  15.6986494  18.1842251  26.9793968
  16.1605167  18.8395519  26.4564629  14.8857918  18.0245762  26.4998074
  32.2675667  59.7913551  56.0280571  31.5143070  60.0260391  55.4860687
  32.2023354  58.8419037  56.1306000  67.2440872  34.3789520   9.1444893
  66.4169617  33.9415550   9.3464212  67.8867493  33.6705589   9.1071024
  80.9808655  30.1798038   6.9615173  80.6259155  29.5977859   7.6334548
  81.1448059  31.0036278   7.4205046  46.0332985  17.9950008  75.0490875
  46.5518532  18.0496273  74.2463760  45.2111168  18.4352074  74.8335190
  68.2479477  13.3022470  64.8848419  68.3954849  13.8247833  65.6731415
  68.9746628  12.6794090  64.8708649  49.7882576  47.0724220  61.2210197
  50.7041435  47.0061531  61.4911880  49.8278694  47.2428970  60.2799568
  56.5412483  23.8738003  71.1893845  56.0219307  23.1435699  71.5259933
  56.6693726  23.6696262  70.2630310  16.6467247  36.0110435  74.6185150
  16.0888729  35.8115997  75.3703461  16.0350475  36.2615166  73.9261627
   2.7149932  63.1254005  86.3202667   2.8122857  63.1454735  87.2723007
   3.5272086  63.5080109  85.9883881  50.4369698  61.3994522  47.3255730
  50.3487549  61.4835892  48.2749786  50.6705055  62.2786980  47.0278778
  43.1863670  70.3510437  37.5210381  42.5449333  70.8296967  36.9959869
  44.0165367  70.7951584  37.3483734   0.1612336   1.7662067  73.2565689
  -0.3473015   2.2632103  73.8973618   0.4676590   2.4236858  72.6320267
  68.5796814  44.2156601  24.1102524  67.7957382  44.1559258  24.6562309
  69.2704697  43.8155785  24.6384392  86.2567749  68.5701370  15.9929028
  86.1039200  67.7002258  15.6239576  85.5158081  68.7142563  16.5814781
  65.1748581  48.3711319  64.2970581  64.6214294  47.6584549  63.9776192
  65.9899673  47.9427223  64.5583801  43.5874519  10.9802742  58.4912376
  42.8824806  10.3468494  58.3569984  44.1845589  10.5482235  59.1019974
  51.5558777  56.2558937  52.4926224  52.2920837  55.7562752  52.8456306
  51.9470749  56.8197289  51.8253250  60.5103226   7.8689194  13.4127178
  59.7814369   7.5234585  12.8973398  61.0998039   7.1230030  13.5238628
  65.3502808  51.8772202  48.5658112  64.5347214  52.2327499  48.9189339
  65.6806946  51.3036079  49.2572060  23.0979691   1.2156727  74.1176224
  23.5503216   0.6323228  73.5082703  22.2359848   1.3512806  73.7241440
  60.4021111  44.0690804  40.3259392  60.3629265  43.8149490  41.2479553
  60.6355362  43.2632446  39.8650970  57.1475906   7.4701958  69.5337524
  56.8578300   8.3166189  69.8741074  58.0645561   7.6086121  69.2965851
  63.1296234   6.6831050  88.1429062  63.7368431   7.2703171  87.6926804
  63.6451416   5.8966408  88.3216400  62.8138351  15.8118410  64.5436249
  63.5026474  15.1664886  64.7026443  62.3910637  15.5170994  63.7370148
  62.6590195   7.9681706  61.7424469  63.4745560   8.4049597  61.4967842
  62.5858994   8.1105919  62.6861610  23.1500530  64.6390152  29.9470043
  23.7652569  64.3385468  29.2780685  23.1678905  63.9529724  30.6142845
  16.0724678   2.5509436  13.0275040  16.9469376   2.5872405  13.4150820
  15.8443651   1.6213753  13.0376940   1.7903131  56.9446297  85.9812469
   1.4410609  57.5644531  85.3408737   2.7405002  57.0166893  85.8907776
  37.3255196  41.5954323  71.5183792  37.6169968  42.5054474  71.5744324
  37.9368362  41.1853828  70.9065094  14.9770155  33.9150276   2.8899882
  14.8185520  32.9711418   2.9041646  14.4780302  34.2303734   2.1364610
  39.5102005  23.7927818   6.8723912  39.1661301  24.3763657   7.5486155
  39.8218651  24.3808460   6.1844397  15.6213169  55.8012886  75.2376480
  16.2841415  56.1662827  75.8238907  14.7884245  56.1021996  75.6009369
  69.4655075  43.5425301  70.4152985  69.3986816  43.1804237  69.5317535
  70.2963028  44.0179367  70.4170990   4.6041460  66.0718918  83.6563721
   4.3464174  65.1746979  83.8681335   5.0766244  65.9960327  82.8273697
  67.5027695  61.5133247  24.3078022  67.0305862  60.6818581  24.2637482
  66.8791199  62.1606560  23.9787865  82.6199188  61.5180779  80.4337921
  81.9027023  61.0039062  80.0630341  83.0031967  61.9709702  79.6826401
  33.9062347   3.6563296  71.1091614  34.8043747   3.3348937  71.0300751
  33.7932014   3.8235266  72.0448380  35.4849434  33.1183243  74.8422852
  35.8335800  32.4755707  74.2245865  36.2485237  33.4111443  75.3397141
   2.1660094  42.5614700  88.9708710   1.7210606  41.9934959  88.3418579
   3.0265801  42.1595192  89.0895462  65.2852936  64.3136902  81.0078583
  65.1263504  64.3946381  81.9482956  64.5182877  63.8480492  80.6745300
  66.5035553  38.5010223  71.9475784  67.4555511  38.4272766  71.8806000
  66.2440033  38.9762230  71.1582413  35.0469475  69.7147675  62.4503250
  35.1565208  69.0507431  63.1309891  34.2679901  70.2036209  62.7158089
  57.2970161  17.8720169   3.5029874  56.4242783  18.1170006   3.8104727
  57.8736954  18.5509892   3.8532252  56.4051514   7.6705871  58.6305962
  56.7586899   6.8222561  58.3630524  56.2797699   7.5903783  59.5761528
  35.1110878  59.7599449  19.0696564  34.2433929  59.6996384  18.6700306
  35.5729675  60.4115868  18.5421467  68.8206787  27.2135868  87.8022079
  69.2943268  28.0080566  87.5558090  69.3053665  26.8686256  88.5520859
  77.6451492  41.6018143  57.6987076  78.3308716  40.9612350  57.5098495
  77.6660004  41.7014236  58.6504822   7.9241638  21.0064220  52.2095947
   7.0421271  20.6963463  52.4147682   7.7876015  21.8535194  51.7853241
  75.5768280  53.7477074  53.8861694  75.4087830  52.8728104  53.5361023
  76.1798401  53.6022377  54.6151733  27.0284042  48.8595314  30.1963844
  26.3481541  48.4983101  30.7647247  27.8377171  48.7584229  30.6974049
  14.5657501  30.4423046  76.3316956  14.1841850  29.6066761  76.0626907
  14.5654736  30.4088306  77.2883148  32.1464195  61.6275444  46.2440186
  31.4787025  61.5400162  45.5637817  31.6660862  61.5255508  47.0656700
  38.3789520  62.9788818   3.6163275  38.4262886  63.4542046   2.7868328
  38.5285721  62.0642090   3.3771231  52.1303749  41.6631699  70.4455338
  52.3136444  42.1131744  69.6208267  51.1945343  41.4656715  70.4077911
   1.3687487   9.5488691  16.5959892   1.9287008   9.0319290  16.0168018
   0.8668610   8.8984098  17.0871544   4.1521382   6.2735224  77.9805832
   4.0377612   7.0250034  78.5623322   3.8062668   5.5316572  78.4768143
   3.0396419  50.4665031  66.0932007   3.1842067  50.6274338  67.0256348
   2.5088692  49.6703720  66.0670242  80.7870636  63.8957863  86.0219116
  81.6242371  63.4344482  85.9715195  80.8525925  64.4247971  86.8169479
  80.2961731  39.0268707   5.9394898  80.4439163  38.0823936   5.8907962
  79.8682327  39.2453499   5.1116228   5.8156862  20.7146549  24.6528168
   4.8990536  20.6975517  24.3776379   5.8953810  21.5157089  25.1706924
  18.8816566   2.4213359  63.4588814  18.3323822   3.1964357  63.3416176
  19.7463017   2.7708850  63.6743698  74.8276062  22.6662941  50.7115364
  74.3616867  23.3101196  51.2450600  75.5776901  22.4088345  51.2475510
  72.2970657  42.3005524  76.0218582  72.3232574  42.3489838  76.9774780
  71.4094238  42.0037193  75.8213196  84.6329575   6.3165765  10.3196554
  85.5431747   6.0462747  10.4408064  84.1790314   5.5169463  10.0536261
  38.0310974   2.6377196  78.9661636  38.4291763   3.3996084  79.3872299
  37.4036255   3.0078094  78.3452454   4.5639677  58.1463127  43.6213875
   5.4998612  58.2274628  43.4376755   4.1600118  58.8589592  43.1262245
  68.8176651  52.5596237  73.5632629  69.7010117  52.8063278  73.2892838
  68.5608521  51.8700256  72.9511108  73.6429291  13.3445091  34.1616478
  73.7983627  12.4565687  33.8397255  74.5162048  13.6855116  34.3548889
  29.0680752   3.9720500   0.6775091  28.7615166   3.1676507   0.2589462
  29.9972858   4.0198793   0.4527613  63.3910675  62.4540558  44.6312790
  63.9465446  62.1395493  43.9180031  62.9379997  63.2135239  44.2649918
  55.4130020   1.9791836  40.0931015  54.5391960   2.3361583  39.9341507
  55.4944611   1.2583025  39.4686584  46.5176506  10.8569021  15.0260735
  46.5911293  10.9549465  15.9753990  46.2927933  11.7325401  14.7115450
  26.7803745  41.4245872  10.6983891  27.5363293  40.9158859  10.9916229
  26.0394001  41.0476189  11.1728172  78.4973526   4.6972632  51.9309464
  77.9422607   5.2194309  51.3517723  79.1054764   4.2510324  51.3416290
  44.8851242  66.3388519  37.8265343  44.1233864  66.7895813  37.4620705
  44.5775719  65.4486771  37.9974937  70.9978638  40.7521133   1.8233080
  70.4801712  39.9470787   1.8353593  70.3821716  41.4286079   1.5413367
  54.6987305  69.6228561  13.3632326  54.6710968  68.7642899  12.9409475
  54.0171890  69.5818634  14.0340929  35.4361343  13.5304337  63.2592621
  34.8808517  13.8630161  62.5540810  35.7053566  12.6611652  62.9624062
   3.0827701   6.7737322  50.0160408   2.7328393   7.3781214  49.3614464
   3.5389435   6.1051126  49.5050735  64.1236649  31.3912144   3.5412233
  63.6020432  32.0632286   3.9800243  64.7570801  31.1104679   4.2016735
  46.7169838  57.2845764  63.2466545  47.6718216  57.2226067  63.2726669
  46.4627762  57.4484863  64.1548080  28.6373978  37.4596634  86.8307266
  28.9827538  37.1715469  87.6756821  28.0673485  38.1983604  87.0442734
  47.9006729  37.2567520  86.7789536  48.6737747  37.1856194  86.2190552
  48.1335907  36.7731209  87.5714722  29.8559780  71.6611404  46.3854523
  30.7498074  71.4863663  46.0909081  29.3032608  71.3650360  45.6622276
  11.7372122  53.3314438  57.0022202  11.6987553  52.6464272  57.6696815
  11.6772776  52.8599281  56.1713676  82.1028671  30.9119396  33.8190117
  82.0846634  31.5457363  34.5360909  83.0312271  30.8187733  33.6052170
  29.0954418  25.3561497   7.0766644  28.2564182  25.1120205   6.6859317
  28.8638706  25.9553471   7.7862897  54.8403435  42.2649307  65.9986496
  54.8070946  41.8968964  65.1156616  55.6308060  42.8047295  66.0035324
   4.8540502  55.9669762  68.7825394   5.1015368  55.5941277  67.9363937
   5.6002512  55.7825851  69.3529892  28.3738422   2.5804265  69.6049194
  29.0307941   2.4989986  68.9135361  28.8822212   2.7312202  70.4018173
   4.2387171  47.0905876  73.6503067   4.0576587  46.4241905  74.3131485
   4.7049713  47.7792778  74.1241684  42.1428757  20.0663376   9.2574987
  42.6167526  19.8861923   8.4455748  42.6024284  20.8125267   9.6425228
   8.2971830  63.1632767  17.6828251   8.3661261  63.4642792  18.5888481
   7.3944316  63.3603935  17.4329929  29.0779552  10.7443924  82.5551529
  28.5684052  11.3772068  82.0490570  29.9899731  10.9740477  82.3770676
  78.5245590  57.5912094  61.0612946  77.9338531  57.9413452  61.7281570
  79.3305588  57.3903198  61.5369339  49.9409370  44.0906868  72.5365677
  50.0597725  44.4156532  71.6440964  49.4818382  44.7978249  72.9897995
  78.3543167  64.3886414  53.9278412  77.8724976  64.8010941  53.2109261
  78.4776993  65.0895538  54.5679474  67.7241135  61.4687462  42.6478157
  68.6104736  61.5874443  42.3064728  67.8197327  61.5517349  43.5966034
  10.4527912  41.0353432   3.3258276   9.9952841  40.8286018   4.1407981
   9.9407816  40.5973167   2.6459665   5.9220719   6.1079526  60.1522789
   6.4621220   5.5794740  59.5646667   6.0705504   7.0097704  59.8678284
  18.3115578   7.4996524  56.6206627  19.1465149   7.4401608  56.1564026
  18.0624523   8.4210415  56.5484047  79.0537949  56.4836502   8.6766138
  78.5786285  57.0231285   9.3086033  78.3761139  56.1515846   8.0877905
  84.2338486  27.1205864  88.9635010  84.0159302  26.3785801  89.5275650
  83.4004288  27.3714676  88.5651169  74.8803406   4.2868915  34.2683601
  75.1900787   3.9998798  33.4093361  75.3302460   5.1180935  34.4197502
  74.8156967  20.6105900  29.0508347  74.2284164  20.3654346  28.3358345
  74.3953171  20.2611523  29.8365841  56.4350586  55.0811920  74.4169312
  57.3244667  55.4342613  74.4399796  56.4843216  54.3478012  73.8037872
  75.3615417  36.2032013  66.2466354  74.9794922  36.5302925  65.4322128
  75.9890976  35.5370483  65.9662094  48.9593086  29.9647942  24.9286957
  48.2359581  29.6171761  25.4503803  49.4741173  30.4823017  25.5478821
  22.3502254  71.6651611   4.7163625  22.2554436  71.9226074   5.6334071
  22.5711918  70.7344437   4.7504849  62.7596245  35.5437012  51.9707527
  61.9633636  36.0749016  51.9656181  63.1278152  35.6724701  52.8448753
  42.7791405  41.3936501   6.1046228  43.4809494  42.0303154   5.9691343
  42.0712357  41.8989563   6.5043340  18.8896027  63.3334999   0.8932127
  18.5481720  64.1835327   0.6155459  18.1623917  62.9251289   1.3629249
  12.4740658   0.3480301  62.1996918  11.7861071  -0.0093292  61.6382294
  12.4204636   1.2950183  62.0709610  61.4843102  44.7593765  82.8311615
  60.8779335  44.4033241  82.1817322  60.9637222  44.8304787  83.6312714
  65.0652618  24.9890614   3.0178761  66.0082245  24.8249741   3.0060043
  64.6991043  24.2472095   3.4993477  47.8474121  43.5476990   6.8458643
  47.1159897  43.8304405   6.2969427  47.8043709  42.5916290   6.8284144
  83.2155914  17.4274158  29.6037464  83.7538376  17.4527855  30.3948708
  83.4209290  18.2437630  29.1480694  63.5953484   7.9200397  22.2988739
  63.9470100   7.0368352  22.1869965  64.0296783   8.4383659  21.6214333
  65.8999863  39.3745117  67.9940262  66.4217987  39.6603699  68.7438431
  65.7531052  40.1725235  67.4862518  43.6651688  41.4699440  80.7512894
  43.8356590  42.2247620  81.3146820  44.5264511  41.0767403  80.6105194
  15.9908199  70.8083420  68.2418137  16.0923939  71.5310974  68.8611145
  16.4373379  70.0713196  68.6585236  43.7553940  17.6895962  61.0199928
  43.2767982  18.4601002  60.7142143  43.1578331  17.2652073  61.6356621
  18.1589451  55.8524323   7.2305989  19.0391617  55.4970322   7.3536520
  18.2970695  56.7876549   7.0805535  80.6132278  70.8360214  48.5077934
  81.1420670  71.6113968  48.6958313  80.4671631  70.8692398  47.5623856
  33.9115944  37.7993660  81.2840729  33.2877388  37.2900429  81.8013992
  34.3778419  38.3324585  81.9280167  55.1526947  18.8940849  78.6104431
  54.7725372  18.5697975  79.4268646  54.8061142  19.7818298  78.5208664
  46.8541946  26.5929661  19.4763317  46.7381248  25.6691189  19.2543736
  47.4339943  26.5853062  20.2379150  42.2749863  56.5954704  10.4483309
  42.7659416  56.1187782  11.1176281  42.1984520  55.9772224   9.7215986
  53.8864517  36.9744644  23.2818565  52.9311523  36.9567947  23.3394737
  54.1593933  36.1002121  23.5600929  64.5495300  14.5833244  55.3142281
  64.6369324  15.5099516  55.0907249  64.5525970  14.5664616  56.2712746
  67.0171890  70.5118103  17.5204716  66.1130219  70.6018982  17.2194614
  67.1843948  69.5695953  17.4978485  35.4357376  65.7116165  16.3912773
  35.6922302  65.4684525  17.2808342  35.9311371  66.5101013  16.2089787
   1.8919870  68.2465515   4.0042586   1.6380366  69.1122894   4.3239923
   1.9725683  67.7133102   4.7950773   8.5143070  27.2345810  13.9145527
   7.8920078  26.8120441  13.3225737   8.2761183  28.1613655  13.8907099
  25.8103123  68.7909012  16.6848049  26.3449974  68.1857834  17.1987839
  25.0448761  68.9600067  17.2341156  56.6876526  47.6083565  76.5531845
  56.3513374  46.7122116  76.5459518  56.0438118  48.1017113  77.0614166
  43.6344795  44.1338196  60.9196053  43.6571388  43.6787987  61.7614326
  42.7492638  44.4939880  60.8657684  52.6059608  64.4746628   7.8753185
  52.1567879  63.6644859   7.6343160  51.9044533  65.1195374   7.9661770
  17.5075779  27.8120384  61.9368935  18.0678043  27.1711254  62.3746262
  17.1596222  28.3508644  62.6474037  78.7720947  43.0661583  69.4890976
  79.6717377  42.7428627  69.5376663  78.2424164  42.2807503  69.3519897
  74.8514709  56.4158325  64.7890701  74.5696716  55.7818108  64.1296539
  74.4311676  56.1231880  65.5977325  85.6083527  51.9271698   4.9296350
  85.6555862  51.2443542   4.2604833  85.9446640  51.5092773   5.7224116
  78.4416199  62.1832466  68.1479950  77.9963303  62.4066124  67.3306503
  78.3255005  61.2369385  68.2331390  19.3562145  32.8285484  67.0742493
  19.6468163  33.6071167  67.5492325  18.8405952  32.3366547  67.7133179
  77.6783905  70.4759445  49.0192223  77.4035034  70.8507767  49.8559837
  78.6343689  70.5197220  49.0396690   3.0180204  38.3802605  72.2960129
   2.3103824  37.7390366  72.2303391   3.7701650  37.9493294  71.8900528
   5.9096103  26.7809353  66.8369980   5.9830499  25.8412914  67.0040588
   6.7585402  27.1377201  67.0982513  26.5660000  61.4126625   5.6630211
  26.6733150  61.2142525   6.5932617  27.0578098  60.7255783   5.2132812
   3.6348104  65.0741043  64.9709015   3.6517944  65.5172424  64.1226196
   3.6525106  65.7842331  65.6124878  66.7693863  16.1215534   4.5187144
  66.7042999  15.2080040   4.7969642  67.6984329  16.2475662   4.3257999
  37.5633469  65.8905716  81.4812698  37.6720123  66.7515106  81.0772858
  36.7136955  65.5832367  81.1652527   4.8738346  44.4406395  25.9800777
   5.3956852  43.6986427  26.2855930   5.2201009  45.1916237  26.4621105
  29.0621204  41.4875145  26.9543991  28.4825325  41.5585098  26.1959343
  28.7867603  40.6817780  27.3916664  28.0361996  43.2974167  59.0301399
  27.4420795  43.9271393  58.6218491  28.0632439  43.5561295  59.9513168
  11.7272663  37.2083168  70.1154099  10.9898043  37.7702484  69.8774643
  12.3785381  37.8086777  70.4782333  82.0087662  68.2170486  51.0144615
  82.9381027  68.0393143  50.8695908  81.9978561  68.9240799  51.6596069
  18.8276234  35.6904716  51.1347885  18.2199745  34.9675636  50.9785919
  18.2764778  36.4730148  51.1249046   5.5002313  27.7756424  12.2059479
   5.0851169  28.6048756  11.9687014   4.8312840  27.3071251  12.7051792
   2.4467402  13.3689270   1.9834270   2.9028068  12.5933609   2.3101251
   3.0869455  14.0757303   2.0658770  66.9973068  66.6420212  64.2389069
  66.5630646  66.6449051  65.0919342  66.3541260  66.2564545  63.6440315
  56.9989433  14.5622396  26.9694653  57.7181129  15.1160908  27.2732391
  57.2048302  13.6927242  27.3126640  68.9975510  29.4985580   8.1749125
  69.5937271  29.0599308   8.7818871  69.4748383  30.2785873   7.8920984
  40.7969055  67.2904892  22.6611958  41.2101707  68.1530914  22.6982288
  40.1305466  67.3144760  23.3479424  44.1958313  35.6502571   6.8417978
  43.2904510  35.9448547   6.9404373  44.3501205  35.0912361   7.6033220
  77.0325317  69.5466766  86.4159393  77.2589188  68.8866272  85.7607269
  77.4664307  69.2490845  87.2155609  82.9589996   0.5867198   0.9913134
  83.6609421   0.1529588   0.5061769  82.6789932   1.3015523   0.4196111
  10.5123529   7.8652024  64.1084442   9.7760906   7.8550935  64.7200394
  11.2375402   8.2340746  64.6127014   5.6184869  23.2844696  75.6484451
   6.5488801  23.4107819  75.8345795   5.3951740  23.9969349  75.0494843
  75.3349609  25.3905602  39.0929337  75.9798965  25.1820965  38.4170418
  75.3147430  26.3472252  39.1177826  66.8655930  18.2817020  33.0763359
  66.2473679  18.6329746  33.7171440  66.7323761  17.3343925  33.1093292
  59.8522224  34.1269493  87.6627045  60.3664970  33.3341827  87.5101471
  60.3923264  34.6530304  88.2524109  24.5286770  17.6340542  42.5066757
  23.9218330  16.9285660  42.7308655  24.5977802  17.5964317  41.5527153
  43.0136795  39.4445381   8.5697117  42.1442795  39.6526794   8.9118433
  42.9750748  39.6978149   7.6474352  25.8757000  68.6455688  67.5991135
  25.1390285  69.2566299  67.5867996  25.7035904  68.0482330  66.8712387
  73.8517532  59.1868401  87.4625549  74.1605377  59.9280930  86.9415665
  74.5988617  58.5893631  87.4953232  60.9170456  26.4690228  35.2104950
  61.4880447  25.7809200  35.5521164  61.0704880  27.2164612  35.7884407
   9.0485458  20.1897259  77.3759842   9.0063057  19.6767063  76.5689774
   8.4669380  20.9333267  77.2177963  73.7458038   6.7253780  56.7462387
  73.3613129   7.4175286  56.2083473  73.0009995   6.1845489  57.0089188
  59.7857895  66.6422729  16.4587231  60.6884384  66.8891525  16.6599998
  59.2557182  67.3448105  16.8351517  80.5664978  51.8625946  49.7523384
  79.7335510  52.2636185  50.0005646  80.3497238  51.3016014  49.0076714
  46.4043770  52.2094612  36.8724480  47.1975060  52.7445068  36.9025307
  45.8756447  52.5235100  37.6059685  49.4881210  54.8554306  51.5469437
  49.5676575  54.0818520  52.1050453  50.1600800  55.4549599  51.8713913
  74.3253555   9.3037844  63.1336021  74.4307861   8.9325132  62.2576637
  75.0389023   8.9205065  63.6436768  78.5727844   6.6161456  34.6966324
  78.3339920   5.7452612  34.3791847  77.7462158   6.9987450  34.9909706
  68.2963333   7.7013021  14.2326927  68.8588867   7.3233104  13.5567617
  67.4296951   7.7412763  13.8282413  81.8301773  36.7901688  69.3576126
  82.6065216  37.3340263  69.4907684  81.1951675  37.3759842  68.9455261
  69.1226273  24.7279396  61.6462555  68.5962524  25.4297199  62.0292244
  68.7020798  24.5442314  60.8062401  61.0253220   3.1746144  28.7276669
  60.4031448   3.2219608  29.4535351  60.5685463   3.5852315  27.9935131
  40.8898430  66.4475021  16.4955807  41.4700928  67.1553802  16.2154980
  40.9738312  65.7838821  15.8109007  22.3025684   5.1104188   8.2404423
  22.0988789   4.1762424   8.2857933  21.5356083   5.5413752   8.6176434
  47.7640305  68.4778519  42.5485992  48.3359642  69.1331787  42.9481888
  47.7397766  67.7620010  43.1835785  34.9713593  46.6076317  79.9155884
  35.2091484  46.9528847  80.7761002  34.0849762  46.9350319  79.7627411
  79.3553238  39.7574654  48.7758827  80.1690826  39.2651978  48.6676903
  78.6838608  39.1994514  48.3834724  59.2817764  19.8290710  47.4498138
  58.9363289  20.6825218  47.1880531  58.8450470  19.6382751  48.2799339
  83.7231064   0.6979963  42.7829514  83.7822723   0.3486775  43.6721687
  83.0850220   0.1339441  42.3460007  29.3860550   9.2619762  64.2261353
  29.1092052   9.2269611  65.1417542  28.6066666   9.5503225  63.7511139
  79.1168137  10.2230921  13.7543087  78.2195129  10.5329151  13.6314697
  79.5740280  10.4912930  12.9572811  57.4095421  43.5049629  18.2685852
  57.8269463  44.3633423  18.3406563  57.0537987  43.4854584  17.3801613
  40.5894203  43.1859245  74.2977371  40.5945396  43.0849342  73.3458939
  41.3332787  43.7595520  74.4817429  51.0772247  26.2478809  29.1646633
  51.1428413  25.5953064  28.4674740  50.6216431  26.9859505  28.7597847
  35.2050323  13.2636986  66.1596451  36.0509415  13.7087727  66.2104034
  35.2528038  12.7497444  65.3535385  73.4236755  37.9423790  52.1105881
  73.2328186  38.3555450  52.9526711  74.3356552  37.6608696  52.1831551
  48.9956818  55.9980698  21.2796974  49.8113747  55.7634697  20.8371601
  48.4789085  56.4441681  20.6087456  65.2161789  51.2023621  27.4804802
  64.4078369  50.7331810  27.6870785  65.0732040  52.0862961  27.8187904
  65.3122559  14.2667227  39.9835434  65.9048462  14.3120327  39.2332001
  64.9593887  13.3773451  39.9566917  44.1912613  31.7595539  18.4704418
  44.6933289  31.3369217  19.1672497  44.8174477  31.8649864  17.7541943
  85.9851227  19.6079464  56.5430489  85.2800903  19.8748760  55.9532127
  86.2168121  20.4069996  57.0164032  53.4326744  52.5034409  52.1756592
  54.0793915  52.2945976  51.5015907  52.5901108  52.4466324  51.7250023
  74.4780807  49.0868378  23.9220467  73.7220612  48.6384506  23.5430813
  74.7787704  48.5027580  24.6182308  26.0613194   5.4794879  82.1746368
  25.2597198   5.8011789  82.5871735  26.2780685   4.6837854  82.6605453
  64.3693466  23.8937931  66.5020752  64.5063248  23.0782528  66.9841156
  64.7692642  23.7365322  65.6467590  62.5524864  45.3943024  79.7042007
  62.3337097  44.9370346  80.5161514  63.3346634  45.9025879  79.9188461
  22.2396889  33.4102974  64.4571533  21.9564590  34.2922859  64.6982117
  21.6441059  33.1512871  63.7539978  23.6245766  69.0425034  85.8173294
  22.8232517  69.5026321  86.0671082  24.3204308  69.6875381  85.9436340
  54.9455376  42.5243988  80.3009872  55.2124481  41.6143341  80.4304886
  55.3695602  42.7842941  79.4831314  27.0664902  41.7629776  52.0176773
  26.6704884  40.9155006  51.8147087  27.5353069  41.6176224  52.8394508
  37.6306915  67.0204086  59.8684387  37.7192345  67.9678802  59.7650986
  37.7020073  66.8746643  60.8117867   8.4001961   0.4150182  34.1302032
   8.7895803   0.7874777  34.9213333   8.5775185  -0.5233840  34.1949310
  59.1917229  39.5167999  17.0287628  59.2963181  40.3553391  17.4783669
  58.2607307  39.3124313  17.1165886  73.3009796  31.4655628  84.1480331
  73.2490921  30.5275555  84.3315659  73.0369797  31.5452347  83.2314148
  33.4001122   9.9597130  12.5846882  33.3830910  10.8506346  12.9342585
  33.9974213  10.0066938  11.8381977  20.4704762  28.7708817  28.7787857
  20.8697567  29.6408253  28.7769547  20.9927902  28.2663059  28.1552277
  74.3868408   5.9255433  86.2792664  74.9870911   5.6591573  86.9756699
  73.5155182   5.7450790  86.6320496  14.9376097  57.0730324  79.2699051
  14.3428316  57.5751839  78.7128448  14.6910715  57.3148155  80.1626434
  50.1611176  59.5589027  88.2140503  49.2855186  59.4590263  88.5876541
  50.0058060  59.8116455  87.3039780   7.3908172  69.5015411  12.1958418
   6.6373649  68.9228668  12.3127918   8.1468639  68.9582977  12.4183483
  61.1261559  67.5939484  10.3448076  61.2672768  68.0583115   9.5197706
  62.0072060  67.4301605  10.6812000  14.6903009   8.7621145  14.9260473
  15.3178177   9.3219843  14.4688816  15.2241812   8.2507076  15.5340490
   7.5765777  53.0321007  43.8902016   8.0308924  52.3705444  43.3684998
   8.1810894  53.2296371  44.6055870  13.7279272  49.9021645  25.5918827
  14.1951056  50.0692482  26.4104557  12.8576984  49.6139336  25.8673038
  37.1901855  53.6479492  10.1031990  37.3329849  54.5906067  10.1882944
  37.4501076  53.2887878  10.9515362  75.4573441  39.8612289  45.9707642
  75.6966019  40.1781502  45.0998154  76.2696609  39.5002136  46.3257790
  17.8449173  61.6847801  85.9004364  18.6034927  61.1272812  86.0736160
  18.0166092  62.4842186  86.3980865  61.7439423  46.5831947  17.3516045
  61.9983673  45.7750969  17.7971172  62.1033096  46.4934387  16.4689770
  25.1524620  45.2628288  68.5762405  24.7996635  45.7989082  67.8660355
  24.7799339  45.6435928  69.3715210  54.1369705  67.1354599  12.3312473
  54.7944031  66.9766693  11.6538992  54.1818466  66.3627625  12.8944139
  14.8922663  33.3822098  16.7387810  15.5953417  32.9395561  17.2141495
  14.4393711  33.8975868  17.4062443   9.9365215  16.3479214  84.2489624
   9.3256941  16.8993301  84.7379150  10.3286591  16.9375954  83.6049576
  75.3495712  51.0836067  88.3557739  75.6151581  50.1670647  88.4309387
  74.9635391  51.1502571  87.4824066  58.0058212  10.5204954  20.5407543
  57.3566170  11.1402922  20.2081623  57.5568161   9.6751919  20.5312519
  22.5633163  10.3090248  25.7945824  22.5552902  11.1071062  26.3230095
  22.2394199   9.6280975  26.3842106  78.6758347  62.1005478  18.3949261
  78.9362335  61.2457466  18.7380562  79.4160995  62.6739693  18.5934887
  55.4186592  18.3683033  39.8597412  55.1640930  19.0546856  40.4764290
  56.2261848  18.0061455  40.2244034  78.1690750  51.9906807  52.3923645
  77.3623352  51.6641655  52.7908325  77.8786621  52.4457550  51.6019211
  13.0337477   0.7063648  28.8949299  13.4257135   1.4561985  28.4473324
  13.2321148  -0.0403681  28.3298893  26.5771427  66.0891113  47.0240555
  25.8219528  65.5317612  47.2118797  26.8550396  66.4126892  47.8809700
  83.9941864   5.3484840  88.9467239  84.8640671   5.7477345  88.9587860
  83.8647156   5.0838561  88.0359879  74.4637527  33.2907753  11.4516735
  74.1301575  32.9234161  10.6331444  73.7549438  33.8499565  11.7696829
  16.6907349   5.3632717  74.8161163  16.1671238   4.5787926  74.9793777
  16.8225956   5.3702006  73.8680649  52.7094612  15.6572504  63.7767143
  52.9513588  15.8475571  62.8703461  52.7014999  14.7013969  63.8268356
  77.4095535  62.1869202  26.3220577  78.3399582  61.9624672  26.3362198
  77.0945587  61.8497162  25.4834213  76.7649765  48.0106354  76.6571884
  77.0460968  48.7922363  76.1814804  75.8857803  48.2238579  76.9698944
   1.9935054  17.7431412  68.3492203   2.6602671  17.0812626  68.1659775
   2.4040482  18.3263474  68.9876251  60.7772636  45.5208855  31.2639751
  60.1621475  45.1296883  31.8843212  61.0292320  46.3512955  31.6679115
   1.6031638  47.5481071  19.3742981   2.1621511  47.9125137  18.6880226
   1.4269770  46.6516151  19.0888252  57.9647713  48.3901405  80.5567780
  57.6655464  47.5394402  80.8777161  57.5669899  48.4725723  79.6900558
  74.2800827  66.3123016  79.5366058  75.1136093  65.8884277  79.3321609
  74.2056274  66.2475204  80.4887085  77.7908936  60.9698029   0.3771826
  77.0732117  60.3538475   0.5246892  77.7149734  61.2092705  -0.5464644
   3.7148514   1.0668341  66.4088135   3.6094935   1.2370166  65.4727707
   4.6421800   1.2317890  66.5793533  69.6690369  59.9926910  45.6986618
  69.9232788  59.4595871  44.9454041  70.1297226  59.5970078  46.4385490
  46.1268120   8.3726263  34.8992691  45.7852249   9.1907101  34.5383148
  46.6359215   7.9897342  34.1848221  13.7852564  48.9988480   7.5809011
  14.6662292  49.2598610   7.3125935  13.4595947  49.7418785   8.0889168
  65.3224335  34.0980988  66.0926361  65.4509277  33.4147186  65.4348297
  65.0303421  34.8601418  65.5924454  22.3831253  52.7923355  64.8291855
  22.9855785  52.2671432  65.3559265  22.2953415  52.3059921  64.0094299
  65.2077866  69.2951508  46.6116104  66.0775833  68.9351044  46.4382172
  65.0165558  69.8381958  45.8469162  84.9254761  35.7321625  73.8485565
  84.5424957  36.6092148  73.8302155  84.4253769  35.2663994  74.5187836
  19.1823254  55.9556503  13.5101099  19.3703804  55.1341171  13.9639273
  19.0294743  55.6975937  12.6011133  11.9116240   8.1487474   4.2729163
  11.2247276   8.6342859   4.7297063  11.4613504   7.3913307   3.8990097
  66.6878738  51.6907539  40.4712791  66.1147995  51.7189178  39.7051048
  66.2316666  52.2132072  41.1309395  72.3740311   2.7769272  32.1897011
  72.4798965   3.6617165  32.5392342  73.2509918   2.5282974  31.8975468
  13.8984985   3.2090995  68.8629074  13.8468819   3.0132396  67.9273834
  13.3025351   2.5817654  69.2721939   2.6363566  13.8096752  30.5252972
   2.7388234  14.2662907  31.3603020   3.5256977  13.7441559  30.1774292
  67.3562546  26.0104084   6.2334676  66.5580139  25.5086365   6.3986077
  68.0544815  25.3556519   6.2307639  77.6721725  37.8294258  83.3902435
  76.8447571  37.7668266  82.9130554  78.2859955  38.2022629  82.7574387
  10.7365799  12.2299652   6.6919961  11.4669857  12.2768211   7.3088779
  10.2151756  13.0107479   6.8784032  59.7592430  49.8000107  58.0537567
  60.2998238  50.3549309  57.4915543  60.0207520  48.9065475  57.8311119
  49.1952171   3.5455623  57.1635208  49.8297157   2.8288734  57.1622391
  48.6688347   3.3980253  57.9492607  63.2049828  41.5199661   4.0375690
  63.1720047  42.0974731   3.2749233  64.0166321  41.0245476   3.9279344
  49.3133202  42.2956276  18.6392994  48.4120026  42.0696297  18.8690434
  49.2331009  43.0835724  18.1017704  13.7605591  17.6078529  25.0719299
  13.3491583  16.7732162  25.2963486  13.1968241  17.9777184  24.3924923
  70.8500137  50.8887787  70.9427109  70.6321259  51.5087700  71.6386795
  71.8051605  50.8300743  70.9646301  41.3709221  60.0913353  61.5551186
  40.6767807  60.4838257  62.0845985  41.9387894  60.8258247  61.3221283
  44.4117661  65.7502136  45.6990242  44.5723877  64.8311462  45.4851303
  43.4915047  65.7778854  45.9609070  70.5337982  27.2603436   5.0665927
  70.6517410  26.6381931   5.7844033  71.2476807  27.8887863   5.1746030
  68.1733627  15.0099468  53.1846161  67.9131012  14.9617233  52.2647400
  68.0261993  15.9240313  53.4275627  52.4905090  58.8273582  73.0055923
  52.0882721  58.5594101  73.8318176  52.8521576  59.6951370  73.1856003
  53.8041954  30.2552681  87.3984299  54.5768166  30.4127426  86.8557587
  53.7636909  31.0122356  87.9828873  45.2745132  53.1110611  75.9599152
  45.4504051  53.0098000  75.0244827  44.8441162  52.2942429  76.2125015
  69.7885284  12.5687828   0.3692483  70.6589203  12.1849852   0.2627325
  69.8570938  13.4337797  -0.0348693  77.9742889   3.2727399  45.9605331
  78.1275711   2.6409526  46.6630859  77.5663300   4.0210810  46.3961792
   5.9270029  43.4910889  15.5242281   6.5828261  44.1162300  15.8329744
   5.0928822  43.8497353  15.8272886  62.4166336  70.2292938  10.9281368
  61.7514801  70.3404160  11.6074419  63.2215843  70.5630569  11.3242311
   2.5135012  22.3212242  73.4068527   2.6729708  22.6616898  72.5265808
   1.6451335  21.9218102  73.3555069  29.2404633  33.7145500   5.8096862
  29.1520386  34.4560623   6.4084921  29.7942486  34.0432777   5.1015263
  64.8443451  40.0228691  58.2049599  64.0902481  39.7495384  57.6826057
  65.2595901  39.2032318  58.4732780  37.1663666  55.6091728  28.2787418
  36.9351311  55.1616783  29.0926895  37.8704376  55.0788574  27.9055367
  60.5907745  52.1454430  23.5555248  59.7536354  51.8549461  23.9175282
  61.0040436  52.6322708  24.2685719   5.4466481  17.3986282   3.2599769
   5.4802337  16.7221489   3.9363496   5.2602253  18.2065201   3.7382960
   7.1982546  52.3190613  85.5223541   7.1025448  52.8918877  84.7614670
   6.4070945  52.4726295  86.0387955  63.1816788  33.9833832   7.6126304
  62.6824875  34.7474785   7.9010768  63.1397858  34.0167503   6.6569300
  72.8459473  42.5700569  31.7464962  73.6402512  43.0924721  31.6351833
  73.0068970  42.0549469  32.5370598  81.7832947  36.2428589  35.9161377
  81.5676880  37.0004272  35.3722305  81.8198776  36.5904312  36.8072548
  62.9901733  61.5662384   2.4222965  62.5538368  60.7172775   2.4937892
  63.8687706  61.3579636   2.1046183  53.1872139  32.6476707   9.8850689
  53.3894234  33.2059822   9.1343164  52.5833015  31.9905357   9.5390921
  32.7706604  22.4233322  79.1445312  33.0195503  21.5071411  79.2665253
  33.5809479  22.8583508  78.8791504  86.3340149  48.8749504  26.0017509
  86.7399750  48.0228233  26.1608448  87.0280991  49.5085754  26.1834011
   8.7405920  48.0471001  82.7412643   8.4000254  47.3632774  83.3180008
   8.9625893  48.7683945  83.3300552  51.9917908  33.8234787  62.7980919
  52.4411545  34.4236908  62.2030716  52.5010109  33.0142937  62.7517090
  55.2825050  35.2943687   8.5466719  55.6227341  34.4585648   8.8658953
  54.3475075  35.1376228   8.4146118  20.9918842   6.4141517  59.1872559
  20.3004532   7.0663490  59.3003654  21.8045025   6.8992891  59.3305206
  69.3222733  62.5706100  73.5532608  69.1812134  62.7163963  72.6178055
  70.2242050  62.8523026  73.7062378  19.6362495  48.1242828  87.0945816
  20.4101238  48.4932671  86.6688995  18.9463806  48.1878281  86.4340668
  19.7439041  12.6469221  51.4468803  19.8091621  12.4628162  52.3839378
  18.8292198  12.4660549  51.2303848  10.0868607  18.4420414  63.0984955
  10.2596884  18.4959049  64.0384216   9.4138403  19.1040688  62.9403954
  44.5226784  57.7097435   7.5289464  44.8570251  57.9747581   8.3858070
  45.0496254  56.9466476   7.2917876  69.1921310  10.8652554   9.4648991
  69.0724869  10.3567848  10.2670050  68.5182953  10.5362329   8.8699865
  72.3193130  60.9463272  75.5367432  71.7299652  61.3694649  76.1611328
  71.8214645  60.9166985  74.7197342  86.1694717  43.3524780  88.5112610
  85.4728622  43.4430428  89.1614532  86.9779816  43.3619881  89.0235596
  57.0832062  59.7334328  24.9913921  56.6478310  59.6299744  25.8375454
  57.8843117  59.2153664  25.0692997  50.5634995  15.6769896  79.3648605
  50.0040283  14.9493866  79.0931702  51.2658043  15.6948223  78.7147217
  67.7502975  24.5385780  73.3260880  66.8180695  24.5621223  73.1101608
  67.7990723  24.8890514  74.2154770  68.4352798  47.6917877  12.5681286
  69.3253860  47.3513412  12.4784679  68.5454178  48.5399857  12.9978495
  48.7115555  16.8535995  76.3598557  49.1761436  17.6876698  76.4285431
  47.8208427  17.0957375  76.1064148  28.2388344  53.5556412  11.8443537
  29.1309376  53.2793045  12.0541697  28.3486824  54.2339096  11.1779356
  14.3678026  70.4917374  53.6075172  13.8267260  69.7022095  53.6186104
  15.1800880  70.2194366  53.1805725  27.4217110  33.1094933  11.9236269
  28.2505207  33.5604210  12.0847845  26.8238678  33.8012161  11.6401901
  57.6035881  46.3735123  30.8992844  58.5548477  46.3966141  31.0032234
  57.3840866  45.4418755  30.9095306  64.0194855  40.9176979  47.8826408
  63.4173317  41.4152489  48.4358940  63.4509888  40.4443665  47.2751884
  32.0863419  70.5283432  63.4462357  31.6874275  70.0058975  64.1420441
  32.4774742  71.2742538  63.9010506   1.2494001  13.7875290  38.4032402
   2.0984669  14.1271982  38.1205025   1.4413106  12.9115810  38.7380829
  10.0996132  43.7229309  14.3942881   9.6525927  44.3985977  14.9040737
  11.0198383  43.9862785  14.4024591  12.9153805  27.1132202  16.1444302
  12.5408306  27.4100704  16.9737816  12.3651333  26.3745918  15.8838720
  65.0693512  29.2990208  77.5639496  64.8272324  29.2217751  78.4867935
  64.3701477  29.8252678  77.1761246  46.7714882  65.1693573  48.4920578
  46.7118950  65.4886551  49.3924637  46.3561707  64.3072739  48.5156555
  82.0349960  64.4902573  88.3536530  82.7520828  65.0543900  88.0642166
  82.3970490  64.0035248  89.0940857  25.3898869  18.2496681   2.1890955
  24.8252144  18.4369583   2.9389622  24.7903767  17.9445744   1.5081125
  56.8378792  36.9922142  15.8954487  57.6390305  36.9708786  15.3720589
  56.2682800  37.6095390  15.4364309  35.2070541  12.0546942  87.1845245
  34.3497429  11.6963997  86.9545822  35.6219139  11.3673744  87.7057877
  39.2935600  55.1974564  73.9847641  38.7619362  54.6583366  74.5703888
  39.2385559  54.7561836  73.1371231  20.0487251  11.8179293   5.8854933
  19.5761795  11.9495153   6.7074528  20.9296188  12.1493263   6.0599480
  86.3614731  11.9241581  20.4393845  86.9870148  11.7849159  19.7283745
  86.3144836  12.8754921  20.5341816  52.6778069   1.0792930   6.8809805
  51.7544899   1.2860279   7.0258164  52.9630775   0.6715507   7.6986594
  47.6870804  17.9907513  83.0513153  47.9395866  18.4654045  83.8432617
  48.0572472  17.1157970  83.1682053  31.4048023  60.4778328   4.1333380
  31.4484615  60.3504753   3.1856530  32.1165428  61.0881844   4.3260221
  35.0448647   1.6998005   4.8639150  35.5327415   1.9236593   5.6564412
  35.0273247   2.5111086   4.3562703  76.6058731  12.0451040  36.6202126
  76.9355469  11.9498749  37.5137901  76.4917374  11.1467800  36.3100204
  78.6167374  52.5970879  16.6843090  78.7427597  52.8825645  15.7794027
  79.1271057  51.7903252  16.7542229  83.3733826  11.5182981   0.9739831
  83.0504074  12.1410675   1.6251950  83.3376617  10.6698256   1.4156291
  55.9443741  36.3549690   2.0574963  56.8329926  36.2844887   2.4062397
  55.7974701  37.2962608   1.9646662  10.0734577  20.7671967  43.5596504
  10.1502390  21.1172962  42.6720886   9.1435385  20.5620499  43.6565857
  44.9959755  21.2000008  33.5813408  45.2610435  22.1191635  33.6147079
  44.5908737  21.0986671  32.7200317  71.8642426  63.6527061  73.8567352
  71.6442108  64.1420670  73.0640564  72.3290024  62.8785629  73.5390320
  33.4398079  57.5377464  49.6114502  33.2430191  56.6551514  49.9253464
  33.6215897  58.0395660  50.4060364  43.4028664  56.6743088  43.1951752
  43.0395279  57.4317627  42.7363930  44.2008553  57.0044708  43.6080132
  11.9705410  50.7514992  29.4306049  12.6667385  51.1084290  28.8791161
  11.9209089  49.8275070  29.1856461  67.4484558  23.5438557  48.8977928
  67.4758301  24.0892735  49.6839256  66.8940659  24.0305080  48.2878304
  54.6972389  42.1873703  34.7884636  54.1198807  41.5239296  35.1662636
  55.5735245  41.9370384  35.0811958  45.9644241  70.7482834  43.2571907
  46.6983032  70.3927841  42.7559204  45.6404762  70.0056839  43.7669296
  71.9161911  61.3615074  47.5984154  71.1081696  61.6947975  47.2082176
  72.5990295  61.5912895  46.9682083  36.0700760  65.8483505  54.4014206
  36.8755035  66.3531647  54.2888374  35.7881279  65.6451416  53.5095444
  45.1661263  12.9795027   2.7199314  44.5866203  13.4725752   2.1391709
  44.5764542  12.4315491   3.2378721  61.8583336  32.8195763  74.4039459
  62.7381554  32.7034912  74.0452423  61.3320541  33.1089058  73.6585922
  49.4813232  18.3003616  87.1094360  49.7382317  19.2194443  87.0351562
  49.2991562  18.0291233  86.2097321  73.8421173  33.5785294  22.8346100
  73.7781067  34.0238152  23.6795082  73.2409668  34.0583305  22.2648449
  54.7607384  62.3277664  84.1029587  54.9194374  63.1791840  84.5105591
  54.4599113  61.7708321  84.8209839   3.2534518  65.8239212  55.5911369
   2.7693348  66.4695511  56.1059456   4.0539794  65.6692429  56.0925980
  79.6147842   5.3616056  59.1552391  78.9479523   6.0166512  59.3613472
  79.9363022   5.6114841  58.2889671  79.2070923   1.8935227  76.6344223
  78.4282455   1.6939284  76.1149979  79.8375168   1.2156295  76.3909912
  18.7378139   3.2445982  18.5443745  19.2790813   2.8028224  19.1986637
  17.8593388   3.2501922  18.9244843  65.3936844  58.9877548  55.5061302
  65.8002930  59.2323189  56.3374481  65.2671738  58.0411530  55.5707054
  80.6502838  23.1972980  57.9856720  80.5482254  24.1488914  58.0025597
  81.0874252  23.0180359  57.1532021   3.3730950   5.1707768  44.2785645
   3.1161149   4.5413861  43.6047249   3.0770435   6.0164580  43.9417992
  11.5108728  41.9520836  40.0719681  10.6563520  42.1310616  39.6795464
  11.3235989  41.3428955  40.7861443  27.5223808  18.1275311  60.5761185
  28.2252827  18.6250343  60.9940338  26.7730312  18.7230968  60.5788994
  69.1405106   0.0784142   5.3020167  69.3840942  -0.4976941   6.0265832
  68.3083572   0.4658496   5.5734124  34.6987534  16.9031162   7.7700028
  35.5844421  17.1116791   7.4728651  34.1634674  16.9483280   6.9777555
  83.4063721  23.3780842  17.2956181  83.9694138  22.6200809  17.4526138
  82.7546463  23.0663795  16.6676693  71.7529755  52.5936928  82.6610641
  72.2396164  53.2912064  82.2218704  71.9614410  51.8046379  82.1608963
  20.1258564  68.8306427  33.5296669  19.9785004  69.3181381  34.3401375
  19.8995972  69.4481888  32.8342018  20.0712471  52.2150536  18.8414154
  20.0680466  51.3614578  18.4082909  20.3388824  52.0262566  19.7408352
  37.3961716  58.1193771  16.8134594  36.5067406  58.0420761  16.4682465
  37.3299484  57.8110809  17.7172279  12.1107922  51.7246895  48.7829933
  11.4150372  51.2284698  48.3518066  12.7523584  51.8879128  48.0916290
  63.8092422  28.9037628  35.8813248  64.3408356  29.1682014  35.1305161
  64.3291702  28.2283630  36.3169174  26.1479034  45.0767365  57.9738235
  25.9315662  45.9552803  57.6614342  25.4539261  44.5195770  57.6213989
  58.6760597   8.3634071  15.4146624  59.3169556   8.0222206  14.7909021
  58.8365021   9.3069239  15.4309711  21.4302750  11.4958010  87.8603363
  21.4019070  11.0054054  87.0387878  22.2958069  11.3063955  88.2225647
  39.7908020  67.8567581  38.9782906  39.0026054  67.3515091  39.1775475
  40.4810295  67.4358749  39.4908104  16.8646946  30.8015671  59.0721474
  16.4919662  31.5124626  59.5936203  17.6942387  31.1520138  58.7476883
  80.9066620  39.7888527  84.0159607  79.9651260  39.8076172  83.8445053
  81.0603485  38.9326935  84.4154587  85.7200241  11.9273014  65.8463669
  85.9255981  11.6757870  64.9459763  86.5620422  11.9001989  66.3008041
  11.9436426  26.9076061  79.9491272  11.1799679  27.3745995  79.6100845
  11.8914833  27.0204372  80.8982239  42.0376587  63.4358635  45.5989151
  41.9332428  62.5655594  45.2143364  41.1448784  63.7193642  45.7958832
  80.8391342  71.0444412  71.1590576  80.7423782  71.6687622  71.8781509
  80.8274155  70.1865616  71.5834885  71.2049255  47.1695557  37.6284752
  70.9456406  46.4380226  38.1887054  70.3800888  47.5925026  37.3897705
  74.2449265  28.9412975   9.8651705  74.8419571  29.0762062  10.6010952
  74.0259399  29.8248959   9.5693207  50.8176079  30.2020302  70.9699554
  51.4688416  30.5482616  71.5800858  50.3559837  30.9761391  70.6476440
  51.3128853  12.2481260  14.1973801  51.7196159  11.7147083  14.8802185
  52.0228615  12.4317904  13.5822115  70.2811050  21.0836830  65.1501770
  69.8176117  21.8826904  65.4011688  70.4284439  21.1778412  64.2090836
  49.9607468  43.2089386  40.5844383  49.5810471  43.0809441  41.4537354
  49.7200432  44.1045532  40.3474426  23.5299950   4.8093352   5.7024636
  24.0632191   4.0504127   5.9389825  23.1326618   5.0892487   6.5270886
  16.7962189   5.0076690  28.1453018  17.0279140   4.0834560  28.0537624
  16.3070068   5.0517144  28.9668636  60.1851845  25.2295265  68.4030304
  60.5103226  25.0885296  69.2922058  60.5713463  24.5187378  67.8912811
  14.4461031  23.2482090  22.6684914  14.9561005  24.0147171  22.9304047
  14.7499256  22.5491295  23.2474651  67.4882660  26.0453930  53.2920151
  66.5890350  25.8315449  53.0432625  68.0266876  25.4250889  52.8005333
   5.9929380  49.3408089   9.7110157   5.0576248  49.1604042   9.6168089
   6.3103623  49.4349251   8.8128986   3.2271338  34.5912704  18.7021618
   3.7536392  33.8612823  19.0279541   3.7733572  35.3638840  18.8468781
  11.8000393   7.6051826  83.5773315  11.4323587   8.3406286  84.0673981
  12.5757599   7.3488913  84.0761337  18.9294548  69.4806671  80.6287231
  18.2118092  69.8418198  81.1490860  19.7163868  69.8880310  80.9906845
  54.8054047  26.8278198  78.7361832  55.0270920  26.5621929  77.8436966
  55.6013527  26.6600323  79.2407074  78.7710648  48.3439293  43.8934059
  78.8169479  47.5866890  43.3096962  79.6675262  48.4576721  44.2090836
  57.2610970   3.6023498  15.4293499  57.5734978   4.2217293  14.7697992
  57.9877663   3.5238557  16.0474300  84.6227341  23.3779259  26.2157574
  84.3648300  24.2494717  25.9155483  84.2646637  22.7822151  25.5576210
  56.5361633  48.3680458  32.3843231  56.8099327  47.5455322  31.9784241
  55.7732086  48.6435928  31.8761845  31.8631802  53.5073929  71.3069839
  31.9913082  52.9763870  70.5209579  32.4693794  53.1363335  71.9481354
  78.1387253  65.0354004  12.2944393  78.1041718  64.0874939  12.1659489
  78.6813431  65.3551865  11.5736475  70.0314102   9.3411598  76.7069244
  69.9391327  10.1822691  77.1544189  69.4796143   8.7411299  77.2086411
  40.9938354  57.2656441  33.0406876  41.5537186  57.8928413  33.4982758
  41.5266304  56.9601479  32.3064995  27.0144958  71.3537216  16.7770424
  27.0732231  70.4232788  16.5601158  27.7588558  71.5117188  17.3577290
  77.8081589  47.1424446  13.3875370  77.0813980  46.5314674  13.2660389
  77.8757477  47.2485886  14.3364296  57.0725136  47.4122505  14.8884678
  57.8481064  47.8440628  15.2465534  56.4077225  47.5100746  15.5701647
  49.0046120  58.8458138   9.3082962  48.6501884  59.2211456  10.1143618
  48.8627129  59.5225410   8.6463766  24.4272785  62.2179527  60.2106819
  24.0588684  62.6717262  60.9687042  23.6918640  62.1280823  59.6046104
  35.2939758  60.2965698  77.4260406  35.2990723  59.8525085  76.5780945
  35.2867813  61.2286377  77.2082520  14.4263754  13.9408493  72.5985413
  13.5604839  14.3488388  72.5957413  14.5053110  13.5524368  73.4698257
  53.9915962  32.3707352  -0.1833587  54.4607162  31.9762897   0.5518760
  54.0284843  33.3120575  -0.0137057  25.5954571  20.6973991  72.5631485
  25.6611671  21.2839661  73.3167038  24.6885281  20.7849827  72.2698212
  25.8054104  52.9384155   1.5863872  26.0421028  52.0861130   1.9521601
  26.1668034  53.5732346   2.2049608  76.5534592  24.0378895  43.6771431
  76.7590714  24.6675510  42.9861412  76.6461639  24.5352497  44.4897156
  11.3189821   9.1806145   9.4803295  10.4868603   8.8280764   9.1648579
  11.8972082   9.1480885   8.7182093  77.9574661   1.6671093  48.1258125
  77.9152374   0.8011516  48.5314827  78.7285233   2.0776134  48.5172119
  39.8741608  15.4879093  68.9002075  40.3152351  16.1845131  69.3864517
  40.0697899  15.6757002  67.9822235  20.2087917  42.8112946  56.8530312
  20.2792263  42.2562180  57.6296654  19.4185181  42.5032959  56.4093704
  47.9468079  41.6675606  23.0865135  48.8264389  42.0322151  22.9890251
  47.4051781  42.1863937  22.4917984  70.8725586   9.5080996  34.7206230
  69.9415436   9.7289543  34.6947670  71.0960464   9.3057966  33.8121300
   0.9092661  48.4633102  66.2868805  -0.0169244  48.3977127  66.0542908
   0.9182538  48.4386406  67.2437210  68.1725998  69.3303757  29.0435696
  67.9540558  69.8953323  28.3024254  68.6602859  69.8971863  29.6411610
  51.5636940   5.1717596  81.3434296  51.7010155   5.7415590  80.5866547
  50.8151360   5.5559545  81.7998123  62.5682335   4.6440358  19.0212479
  62.1064873   5.1113238  19.7174244  62.5962715   3.7352560  19.3205223
  10.2695961  36.0677185  66.1713181  10.9913483  35.8082352  66.7440033
   9.4941788  35.6713943  66.5686646  81.4552078  56.5588493  11.5389385
  81.6161652  56.9104004  12.4145737  81.9470520  57.1361465  10.9549370
  77.9426270  37.5896759  74.4001465  77.2509613  37.2830505  74.9865036
  77.7609863  38.5220871  74.2824707  86.6377029  51.0244865  58.4305382
  86.4206848  51.8822975  58.0654449  85.9755936  50.8771667  59.1059227
   1.2517818  60.0021286  69.4365692   1.7181407  59.2153015  69.7187881
   0.3277219  59.7967224  69.5785294  13.7760944  45.9475098  84.7285614
  13.0305901  46.5301399  84.8734589  14.2997999  46.0258102  85.5259552
  26.1246643  46.0933762  84.3106918  26.1233082  46.2284393  85.2583160
  25.3382225  45.5745888  84.1415787  48.3583870  45.7901001  26.5262623
  48.9633484  45.0872421  26.7634220  48.0112877  45.5296478  25.6730824
  81.0719147   3.9602568  69.7938080  81.3544540   3.8393335  68.8872910
  81.4632492   4.7930279  70.0575943  71.9928284   2.3667796  76.2706604
  72.2977295   3.2602322  76.1125183  71.0391006   2.4414341  76.3033447
  11.4509439   5.7796435  86.0225754  12.1392517   6.3326278  86.3922729
  10.7569990   6.3920584  85.7784042  85.2624512  45.4487991  77.1224518
  85.5757675  44.6658249  77.5752411  85.0283890  45.1414871  76.2466660
  82.8926239  54.1205215  77.9940720  82.9810638  54.8883171  78.5587845
  82.0715942  53.7133141  78.2703400  18.9899502  30.7309589   2.0949955
  18.2700043  30.8097992   2.7208493  19.5037117  31.5289993   2.2191510
  12.5244541  53.7102814  76.2396774  12.9085913  54.4567032  75.7797623
  11.9020414  54.1012611  76.8528442  31.5514545  66.2302094  59.4433403
  32.0391617  65.5421600  58.9906158  32.2133484  66.8835144  59.6698799
  25.0884418   5.3327231  64.9262924  24.6790810   5.8922443  64.2662964
  24.3747387   4.7835708  65.2507782  75.6858749  56.7562370  72.6480942
  76.3094482  56.8248901  71.9251251  75.2021561  57.5819321  72.6263885
  81.1855011  15.7653065  73.2002792  80.3321686  16.0960903  72.9198456
  81.4266434  15.1260042  72.5299301  46.9479256  50.5529594  77.1422195
  47.1375465  51.4251366  76.7964096  46.0319633  50.3978081  76.9116211
  84.3208160  33.9140053  57.6932793  85.2726898  33.9597054  57.6033821
  84.0486221  34.8224373  57.8232613  45.8329239  18.1760845  18.8535290
  46.4542923  17.6860809  18.3149853  45.8702316  17.7500763  19.7098923
   2.9857621  35.2726479   3.8718321   2.1367135  34.9075699   4.1209655
   2.8754430  36.2191277   3.9625902  65.5417938  60.2040482  41.0803490
  66.2541122  60.6256447  41.5610733  65.4923935  59.3224220  41.4498405
  52.5646324  41.5580254  10.9899149  53.2679901  40.9107590  10.9393072
  53.0129623  42.4026947  10.9478807  65.7805023  55.8693504  72.4927368
  66.4234543  55.6454430  73.1655731  65.3512650  55.0391693  72.2858963
  53.7803345  25.8178940  88.9628372  54.2795486  26.5184841  88.5430832
  53.6972771  25.1450081  88.2871399  37.9195328  24.9730988   3.4792988
  38.6219292  24.3311348   3.3756037  37.8269348  25.0759163   4.4264450
  26.1541920  15.4271154  60.4590149  26.7695942  16.1120014  60.7206268
  25.4531326  15.4740057  61.1090546  82.7112579   4.9537024  56.2465897
  83.4127274   5.5600228  56.4843903  82.5489120   5.1270795  55.3193283
  77.4887619  49.5394440  31.6945629  77.7201157  49.5562668  30.7658939
  78.3301086  49.5399513  32.1510429  57.5584183  36.1530418  56.4072952
  57.0586281  35.7711983  55.6857414  58.0219078  35.4114380  56.7964401
  65.4903870  31.9923878  64.2436829  64.5992432  31.7911568  63.9580269
  65.8338318  31.1578350  64.5627441  85.5539780  33.3281898  72.7507324
  86.0589981  32.9652672  73.4783859  85.4355698  34.2504883  72.9778519
  19.2797432  47.1836700  23.1460915  18.6092491  47.3285294  23.8136883
  19.5575657  46.2772789  23.2783813  46.6800232  54.8908997  86.1897583
  46.4452477  54.3304291  86.9293442  46.4371872  54.3814583  85.4166260
  58.9584694   5.1748424  53.6031685  59.8946457   5.2875381  53.4385223
  58.5571060   5.2059360  52.7347374  86.6063995  19.2572613  36.6200409
  85.9631119  18.5903778  36.3798828  86.6881866  19.1798306  37.5705910
   8.8735476  57.6473503  85.6522293   8.2501612  57.3460655  86.3131714
   9.0127277  56.8856888  85.0894394  83.5996628  59.8853035  68.3037643
  82.9741974  59.1791306  68.1414642  83.6301575  59.9638100  69.2572479
  24.2803230   1.2547923  38.6288757  24.1579018   2.0621772  38.1295013
  24.0511627   0.5566617  38.0154190  52.4576530  23.5227051  55.3882599
  53.3327827  23.2532959  55.6671829  51.9577751  23.5919876  56.2016220
  19.8359356  69.2557907  46.1639328  19.2087517  69.1319885  46.8763580
  19.3362942  69.0673599  45.3695259  77.4729462  22.7323818  30.9635468
  77.0335999  22.6316929  30.1191139  76.9797745  23.4209423  31.4095306
  58.6859169  66.1546097  48.9959183  59.2801323  66.2661743  48.2538338
  58.0247955  66.8367004  48.8780212  84.7067032  15.9365396  25.9370117
  84.3860931  15.6717052  26.7991638  83.9251404  16.2356682  25.4723434
  12.5051699  44.3288383   4.6087208  12.7688093  43.4327545   4.8179145
  12.0237656  44.2507668   3.7850785  24.8335323  60.5619888  34.1506882
  25.0204639  60.2359695  33.2703476  25.6949997  60.7395668  34.5282745
  53.3170776  50.0107307  16.6893005  52.5044708  49.9126358  16.1930313
  53.0306358  50.1837120  17.5861053  56.3565674  26.3084793  76.6591339
  56.9617996  25.7285061  76.1970139  56.8386497  27.1297321  76.7559280
  70.0362930  14.5460567  28.7667141  69.5493851  14.3783092  29.5735664
  70.6726990  15.2195873  29.0066566  82.5823288   8.2664003  84.1869507
  83.1125641   8.9179487  84.6458282  83.0695038   8.0839491  83.3834610
  13.8148174  41.3249092  58.2891121  13.2138920  40.8683815  58.8779259
  14.2734709  41.9489326  58.8516655  79.3280945  42.0658531  66.2437363
  78.4570160  41.9749756  66.6299896  79.2361374  41.7112885  65.3593903
  37.6885605  17.4410210  84.1358032  37.2285500  18.0540466  84.7092361
  38.1821404  16.8788509  84.7329483  48.0147362  38.0687256  66.1443405
  47.6768379  37.1734352  66.1669846  47.7552834  38.4009857  65.2849655
  26.7352066  24.6050739  83.6037292  26.9973240  25.3716545  83.0939407
  26.6062546  24.9401684  84.4910355  57.0971260  40.2711182  88.5177078
  56.6517448  41.0974464  88.3304901  57.9588852  40.3662453  88.1120529
  85.9059067  27.0895061  50.9754028  85.8995972  27.0158634  50.0210609
  86.2449265  27.9683361  51.1455727   5.7733560  67.1704102  73.5280991
   5.6104722  66.3105469  73.1403503   6.5016427  67.0265808  74.1323700
   6.1022549   3.7426498  42.2472839   6.1995726   4.3486876  42.9817772
   5.9389791   4.3067112  41.4913673  44.6975327  55.4806061  54.0520630
  44.8027000  54.5435944  54.2169495  44.1406174  55.7885895  54.7670593
  57.8439445  28.4126492  68.6887054  57.3560715  28.2435493  69.4946976
  57.3583488  29.1161003  68.2579117  11.7005434  18.3045406   6.6946168
  12.1942015  17.5485954   6.3766847  12.3349190  18.8071423   7.2056856
  79.2603378  42.9793358  25.9099140  79.0212860  43.3921280  26.7397842
  80.1419830  42.6371918  26.0578098  37.5539551  50.5017471   5.0937347
  37.6579933  51.4091682   5.3800826  36.6284065  50.3082504   5.2425528
  45.7975960   5.3239493  38.6735611  45.4529495   5.9862051  39.2726173
  45.5545006   5.6388044  37.8029289  60.7187309  10.2144594   9.5435133
  60.2816658  10.8093452   8.9341564  61.4208832   9.8172264   9.0283232
  26.9988365  60.9758453  31.4398785  27.3339157  60.1351204  31.1282177
  27.7709923  61.4325371  31.7737045   9.2277060  62.0687218  80.5816879
  10.1340637  62.1895409  80.8647919   8.8601665  61.4498405  81.2126617
  67.5568314  23.8654366  25.8811283  66.7499084  23.7440586  26.3815002
  67.3677597  23.4815254  25.0249176  77.2224197  64.8139496  83.9586716
  77.4475021  64.0109711  84.4285507  78.0544968  65.2776794  83.8646317
   7.2913518   5.9794259  88.7723846   8.1915264   6.2697639  88.6253433
   7.2163196   5.1680498  88.2701187  65.0501709  40.7231483  18.3238964
  64.3491669  41.3744431  18.2986603  65.5909576  40.9821167  19.0700302
  75.4548721   2.6886826  74.6543503  75.2606583   2.1076558  75.3898239
  74.8634567   3.4318225  74.7735443  78.2708740  51.6913567  20.3840466
  78.7281189  52.4775925  20.6823730  78.8862000  50.9778481  20.5529099
   6.6479111  38.0675163  70.7098923   7.0846634  37.4567947  71.3036118
   6.9892015  37.8449440  69.8437424  26.2762871  68.5450363  35.1311035
  26.8590813  67.8109283  34.9370308  26.5839577  69.2516632  34.5634308
  57.0539474  69.8715057  23.1723804  56.7829475  69.8491516  22.2546158
  56.3067665  69.5132294  23.6515408  44.9840393  32.0150642  79.6352386
  45.7438965  32.0585175  79.0547562  45.3397408  32.1811790  80.5082321
  69.1789627  31.1208611  26.8857441  69.7110138  30.5746288  27.4643536
  68.5013962  30.5308495  26.5555706  35.0652809  69.9956665  87.5565643
  35.1391945  69.7448807  88.4773636  35.4622688  70.8655548  87.5126419
  29.1200314   6.3984914  68.1123352  29.1220226   5.9095840  67.2894211
  29.9202957   6.1206017  68.5579681  69.0156784  14.5049381  74.6861038
  69.1566696  15.0489092  73.9112167  68.4137497  13.8210945  74.3923874
  35.4733696   6.9287992   7.6577473  34.6760368   6.9885626   8.1839819
  35.7268372   7.8387299   7.5027881   9.6451263  40.1125031  33.7181892
   9.9411879  40.4228897  34.5738983  10.3982410  40.2436638  33.1421280
  46.6755409  62.4256897  77.8244476  46.8872643  63.1587410  77.2464905
  47.1181412  62.6338348  78.6472549  29.2023773  47.0736008  74.0124054
  29.6881237  46.2533226  73.9262161  28.6507492  47.1085472  73.2309189
  58.0531311  62.2810478  81.7571716  58.5558548  61.7572365  82.3809662
  57.6622849  62.9753532  82.2876511  70.9215012  26.9261684  52.0013657
  70.9674225  26.4613876  51.1658401  71.5588684  27.6352291  51.9163551
  54.0757408  46.6084557  64.5558548  53.8709526  47.4931602  64.8584976
  53.8442421  46.0435371  65.2930832  21.5710793  48.3330345  35.8484535
  21.2470665  49.1858025  36.1383400  21.0925617  48.1578178  35.0381737
  77.6542130   9.6071777  56.4069099  78.2423172  10.1112194  55.8444939
  78.2322311   9.0157194  56.8888893  29.5519791   8.1015091   1.2244518
  28.8979797   8.7910681   1.3385801  29.4672375   7.5589061   2.0084369
  64.6054230  26.8315392  65.6557693  64.9103241  26.1357002  66.2380676
  64.1071777  27.4185677  66.2244339  78.8277588  40.9732552  89.0090714
  78.8865128  41.8335075  89.4246979  78.1971664  41.0929070  88.2989502
  85.7572021   9.9244967  22.0903950  86.1674881   9.2670631  21.5285435
  85.7618637  10.7248344  21.5653515  13.4725628  10.4482098  75.9705505
  13.1718178   9.9566545  75.2062454  13.2180939   9.9075785  76.7183456
  77.2463684  69.9393311   6.2509928  77.1467896  70.5775833   5.5446291
  77.1071548  70.4447556   7.0518684  25.9881725  71.1524048  12.6813898
  26.1395302  70.9374008  11.7610130  25.7303371  70.3221970  13.0820246
  74.2141724  18.6629810   9.5884609  73.5017242  19.2068253   9.2524710
  74.1361618  18.7272930  10.5403070  13.0214643  12.1427984  22.3385773
  12.9409847  11.8729343  21.4237385  12.2073727  11.8490248  22.7474556
  13.2309523  48.6586342  58.7608414  12.5752354  48.1574860  59.2457314
  13.1001530  48.4035950  57.8475609  75.6712265  53.6628265  89.2446899
  75.6052094  52.7653198  88.9185715  76.5858231  53.9042320  89.0981674
  20.3594360  34.2548485  83.2918243  20.0537319  34.3320541  82.3880463
  21.2544823  34.5935516  83.2716751  38.6356049  63.1350555  21.1126328
  38.5934944  62.1918144  21.2699795  37.9896851  63.2920570  20.4238892
  67.0798492  63.3018723  63.8975983  67.9108734  63.7682838  63.8075829
  66.4137039  63.9571800  63.6900978  47.8573456  36.8080025  13.8262730
  48.2950859  37.6022530  13.5200377  47.8656158  36.8827171  14.7805166
  76.8356934  34.0926208  71.4472351  77.4443512  33.5209465  70.9793091
  75.9815521  33.9013672  71.0598145  86.3013229  68.7536926  88.7864227
  86.2928009  68.0060883  89.3841248  87.2300644  68.9430771  88.6529770
  55.3665848  28.8038273  31.7687416  54.7857513  28.7562809  31.0093956
  56.1527977  28.3291264  31.4990025  56.0648308   1.8141114  23.9767418
  55.5882187   1.0264808  23.7146111  55.7370644   2.4979262  23.3926201
   5.7225947   3.9144681  31.9774284   6.3471251   3.2072513  32.1387901
   4.9346409   3.4711001  31.6631260  60.9198494  71.1764374  48.8288612
  61.6206932  70.5983582  49.1303139  60.2154427  70.5830765  48.5681572
  83.0019302  43.9171944  33.8928986  83.3018341  44.1780396  33.0221252
  83.4702759  43.1021309  34.0733299  26.8156357   1.4871963   9.7950993
  27.0833664   0.5721476   9.7100267  27.2827129   1.9397011   9.0927401
  78.7108383  31.4700222  73.4712372  78.6044159  31.9563427  72.6536789
  78.8638535  30.5666122  73.1943512  34.5150681  67.7127457  49.6559639
  33.8647385  68.4150620  49.6630516  35.3563728  68.1659012  49.6004028
  17.0174675  13.7208176  71.7470016  16.1493778  13.8470898  72.1300278
  17.4860325  14.5321684  71.9429321  84.2662506  63.8123932  33.9814224
  83.4404221  63.5308266  33.5877647  84.0744553  63.8816032  34.9166527
  74.4082260  31.4535904  29.9103870  74.4286804  30.9770489  29.0804939
  75.3292618  31.5594959  30.1485252   8.9284868  62.9767990  48.0470428
   8.9477034  63.8632736  48.4076271   8.3141975  62.5033112  48.6080132
  10.1061840  68.6177368  75.6585312  10.5204687  67.9491730  75.1129837
   9.3677988  68.9299011  75.1354904  73.4164047  51.3979034  52.3148384
  72.8003464  52.0981522  52.5301208  72.9624786  50.8741074  51.6546745
  21.1133537  51.8594589  88.8703308  20.9982224  51.0194168  89.3145218
  22.0254993  52.0961533  89.0382538  77.5163574  46.2837563  74.4314270
  77.1837463  46.1531105  73.5434341  76.7317963  46.4117165  74.9646454
  74.9252930  30.7269039  19.7380810  75.6741638  30.3685322  20.2145157
  75.0613556  31.6742210  19.7555714  82.1535263  38.4470978   9.9644356
  83.0119400  38.6901932  10.3112221  82.3244324  37.6799812   9.4180317
  30.1241760  60.8946877  69.3857956  29.6210060  60.4398537  70.0612106
  29.9037399  61.8185883  69.5043106  63.0815239  63.8008003  26.3550205
  63.2065926  62.8601112  26.4802933  62.2119598  63.9767609  26.7143631
  30.4162979   5.6780939  75.1415482  30.7946053   5.7342334  76.0190277
  29.6696758   5.0872469  75.2399750  44.1567879   7.2367363  50.0320892
  43.7329292   7.0966678  50.8788223  45.0635452   7.4516535  50.2507896
  65.4170532  61.4516792  31.1282272  64.6852036  61.7499619  31.6682816
  65.1186905  61.5810242  30.2279587  34.3199005  66.8363647  58.1325378
  34.1872673  67.3917618  58.9007645  35.2668915  66.7021866  58.0946083
  38.1220665   8.9511013  16.4727936  38.7869072   8.2643051  16.4225025
  38.1947975   9.2899847  17.3650379  69.6704025  17.0222492  33.1912155
  68.9033508  16.4955750  33.4158821  69.5541916  17.2314339  32.2644081
  82.6486893  55.2063026  38.8421936  82.4349976  54.2738266  38.8097229
  83.0806046  55.3237228  39.6883011  60.8537521  22.8389091  39.4946785
  60.4820061  23.5477161  38.9696770  60.1735306  22.6338272  40.1361389
  42.0529366  30.3653488  83.6897736  42.6672592  29.7185097  83.3427277
  41.3053589  30.3299541  83.0930328  52.1619682  26.6673679   7.6480584
  51.6783943  26.6174736   8.4726171  53.0197449  27.0137043   7.8940320
  24.3158455  49.5657578  35.9477654  24.1756134  48.8402214  36.5561790
  23.5234470  49.5848999  35.4111366  18.8308411  49.8610573  80.5697174
  19.3858604  49.1861687  80.1789322  18.2586575  50.1433678  79.8561783
   2.5040848  32.8687248  67.9146347   2.7470312  33.2462845  68.7600098
   1.9676865  33.5424042  67.4967117   2.3334548  50.0153122  11.9189939
   1.9027244  50.7537994  11.4884825   3.2686384  50.2013130  11.8349276
   3.8558407  39.9977875  42.2732468   2.9263246  40.1898575  42.3971062
   4.0932517  40.4683456  41.4742241  54.8281136  47.1734009  36.2147255
  54.8620148  46.2180214  36.2630615  54.4667511  47.3566704  35.3475113
  12.2031622  47.1142731  23.9484406  11.3668356  46.7300758  24.2114639
  11.9616346  47.8790741  23.4259663  17.3430634  14.9372654  84.4055939
  17.7290173  14.0645123  84.3309479  17.9500084  15.5086069  83.9350433
   2.9208775   3.4873693   8.4830484   2.3407898   4.1997428   8.2142477
   3.5618162   3.9046497   9.0586405   4.7763834  37.4647713  74.2938461
   5.1295037  38.3512650  74.2185593   3.9723730  37.5696259  74.8025742
  86.0325394  13.6201344  53.1405334  85.4064865  12.9099283  53.2816048
  86.2936325  13.8878155  54.0216751  74.8317795   3.1522429  40.0339928
  73.8841400   3.0565925  39.9387589  75.0518036   2.6129837  40.7936134
  32.8405800  52.5217781  79.6738281  32.5853271  52.1673126  78.8221054
  33.7965431  52.5580215  79.6414261   5.6061802  43.1973648   4.9369836
   6.3112860  43.0084991   5.5561666   5.8130217  42.6650581   4.1688075
  33.5868263  62.3231468  81.9102402  33.5188713  62.9652405  82.6168747
  32.8995018  62.5730019  81.2926712  19.5565910  36.2261047  27.5101471
  20.2425518  36.3821640  28.1592503  19.9266891  36.5484314  26.6883411
  48.6503029  20.5834427  27.5763111  48.7786064  21.1206093  26.7945042
  49.4568443  20.0734768  27.6515274  51.0674591   9.5676413  71.5975876
  50.8374786   9.5041008  72.5245743  50.3167496   9.1912718  71.1382217
   5.6115828  49.7242661  29.8576412   6.4538670  49.2767448  29.7769241
   5.7674575  50.4134712  30.5033436  11.9599142  63.0421028   6.7873645
  11.1597261  62.6599808   7.1478014  12.5426445  62.2947617   6.6526895
  37.4979630  46.2985840  87.1682663  37.8091240  45.5875206  86.6080933
  36.7126846  45.9469452  87.5876923  54.4084587  27.8243866  43.5675240
  54.4099655  27.2770367  42.7822609  53.8501930  28.5679359  43.3401337
  26.8176842  37.1366959  65.9360733  27.1846256  36.4339409  66.4724655
  27.4378529  37.8595543  66.0314713  37.3553886  41.8577156  12.2604036
  36.5061913  42.2521248  12.0615606  37.2069511  40.9156342  12.1786661
  53.5809708   5.6227655  20.5314445  53.1076965   6.4417219  20.6782551
  52.9400177   5.0472302  20.1141071  43.2421112  50.1241913  32.6830788
  42.9064560  49.8691597  31.8237038  42.7973366  49.5397987  33.2969971
  41.1408005  47.8031616  56.6174126  40.7509766  48.6209717  56.9263687
  41.6479111  48.0559959  55.8459549  34.5357590  63.8917618  87.4620285
  34.4243774  62.9933815  87.7730637  35.3916473  63.8924561  87.0334473
  29.2575169  41.7277946  63.4703751  28.4531364  41.4913521  63.0085297
  29.9590836  41.3590584  62.9336510  54.8864555  16.6650295  88.0457458
  54.4716568  16.0984764  87.3952179  54.1695557  17.1957073  88.3931198
  29.9114990  59.9326324  66.5222397  30.1007729  59.9324341  67.4605331
  29.3179436  59.1921196  66.3974762   1.4327533  12.2102900  33.0053864
   0.9988797  12.1378441  32.1552467   1.5342698  13.1520910  33.1429939
  52.5181847  23.6345005  18.1242752  52.0467186  24.2007198  18.7353001
  53.4267082  23.9315929  18.1747723  53.3221207  10.8207474   3.1407921
  53.5634460   9.9078569   3.2977169  52.9612656  10.8240900   2.2542248
  53.0001717   9.5421791  56.8655815  52.2040558   9.3827581  56.3586159
  52.8359871   9.1194839  57.7085571  28.3274708   2.6895754  36.4637260
  28.3986301   3.5042267  36.9612312  27.7082520   2.1572459  36.9631500
   9.3596268   8.6237907  18.2513180   9.9084320   8.5646133  19.0333290
   9.2115278   7.7140145  17.9932384  60.5769310   0.4448169  81.5275116
  61.1330910  -0.1462465  81.0200119  59.7447891  -0.0210102  81.6098557
  59.8536835  51.4269714  60.2984009  59.7512856  50.6562195  59.7401123
  60.6534500  51.8472214  59.9821739  -0.2542884  17.2892532  14.4266768
   0.4983272  16.8561859  14.8294849   0.0708754  18.1554222  14.1812124
  70.2400894  30.6013412  48.1660805  69.9571381  31.3836136  48.6396027
  69.5091934  30.3970051  47.5827522   1.5561804  39.2007637  13.7066355
   2.3286510  39.3412743  14.2541561   1.4800187  40.0026817  13.1895695
  49.0338593  36.1938972  74.4580231  48.4439201  35.8573418  73.7835388
  49.8143234  36.4699974  73.9775314  30.0575314  65.0485992  16.4105034
  29.8522720  64.3692856  17.0528717  30.8360157  64.7233429  15.9583941
  31.3336182  61.6904755   0.0868110  31.2350979  62.4075356   0.7131894
  30.6852875  61.8752632  -0.5927123  41.3558998   5.2578044  80.7908020
  40.4857330   5.6557126  80.7641678  41.7621689   5.5146718  79.9630356
  78.4375229  21.3753433  14.6148710  77.9846115  20.9127464  15.3199301
  78.5086899  22.2773399  14.9272327  26.5676785   6.7586021  69.5202103
  26.0077572   6.1731219  69.0103760  27.3995285   6.7669530  69.0467224
  86.3269730  27.6610317  54.5846748  87.2405624  27.8173523  54.3456268
  86.3149338  26.7604637  54.9088097  77.4263840  67.0816040  77.4883957
  77.2253952  67.9040909  77.9348907  76.5916061  66.8034439  77.1115570
  20.2634659  41.9297943  69.3580246  20.4699097  42.3132401  68.5056305
  20.7467556  41.1036835  69.3724136  70.5974960  70.5074234  17.3212662
  71.1437378  71.2821503  17.1884594  70.0936127  70.7022324  18.1114502
  44.4804420  27.0980225  35.1664047  44.4087791  28.0366650  35.3397408
  45.3977013  26.9682961  34.9254799  20.9740524  41.2305908  18.4900551
  21.5315285  41.0910683  19.2555504  21.4932995  41.7924919  17.9148312
  16.8276234  46.5905762  36.5859337  15.9292212  46.4240150  36.3006935
  17.1453648  47.2705383  35.9918594  40.2577133  62.8585358  32.2431030
  40.7008781  63.5612869  32.7184792  39.5438919  63.2962036  31.7792778
  41.0036469  58.8781242  18.5122852  40.2484322  59.4639168  18.4600334
  40.9576149  58.5059700  19.3929749  53.4663925  38.1711006  11.6276836
  52.9070816  38.3648758  10.8754511  54.2182884  37.7108154  11.2548275
  60.8074303  27.2904530  54.8989296  60.7729149  27.9868908  54.2431755
  60.3787537  26.5446777  54.4790688   8.8435555  58.7976875  32.7842331
   9.2491770  59.1025314  31.9725857   8.7221260  59.5920181  33.3043518
  25.7292061  46.1063461  23.7986755  25.0920792  46.4761353  24.4098682
  25.2297707  45.9508057  22.9970512  18.6503544   4.9714112  40.6693382
  18.0106850   5.6686845  40.8137817  18.5613003   4.4025183  41.4339676
  79.9319305  49.7086372   5.8631802  79.6795425  49.7466545   4.9406366
  80.8874741  49.7638397   5.8525472  80.5221252  15.4061937   8.4236689
  81.4315186  15.6731339   8.2896080  80.0847931  15.6237965   7.6004887
  17.0032787  65.6201324  79.2770767  16.8732586  66.3171616  79.9200974
  17.6158886  65.0170822  79.6981049  72.5128021  48.2914772  14.7187271
  73.1012802  48.8671303  15.2071409  71.6412277  48.4975967  15.0565300
  40.7447662  57.2921486  67.6015244  41.3999557  56.5951462  67.6353378
  40.3607559  57.2177124  66.7278976  40.4036713   0.4695848  24.9881802
  40.8849030   1.2305720  25.3130531  39.7932053   0.8291445  24.3445320
  75.3838577  61.5014458  68.1284256  74.7488022  61.1943474  67.4814072
  75.1432571  62.4144936  68.2855453  81.4813919  15.1932116   4.9059253
  82.2521057  14.7677460   5.2816973  81.8276596  15.7291098   4.1923823
  44.5048981   0.1012071  30.6729012  44.4772987   1.0579132  30.6593552
  43.8409004  -0.1484862  31.3155460  51.2302437  50.2832832  14.7725801
  51.8568382  50.2420349  14.0501451  50.8383789  51.1536064  14.7003546
  24.4409180  61.6782722  13.2622519  24.6576309  62.4610252  12.7557344
  23.5144081  61.7821960  13.4790707  48.6799316   7.2765718  10.9108515
  48.2750816   6.9341402  10.1139383  47.9844742   7.2400570  11.5675364
  36.2446632  64.1043777  69.5008774  36.8313370  64.7890854  69.8221512
  36.8301201  63.4156494  69.1860352  68.7071915  64.4718170  68.0731964
  67.8671722  64.8229828  68.3686218  68.7226562  64.6474304  67.1323700
  85.5977554  59.6777458   0.9226993  85.7165833  60.6008987   0.6993139
  85.8877487  59.2035103   0.1434478  38.5940933  58.6847305  29.9374619
  37.7265930  58.3364906  29.7315388  38.6717491  59.4699974  29.3956509
  49.9474182  39.5565300  62.8523636  49.6763115  38.8754501  62.2368431
  50.6103821  39.1350288  63.3992157  80.6411972  11.0491543  65.0452271
  80.8102417  10.1246624  64.8636551  81.3985901  11.5071983  64.6808319
  55.7962837  50.7914505  72.2198257  55.3875351  51.6206131  71.9715500
  56.0191841  50.9016113  73.1441650  30.6767540  22.5192108   0.9166532
  30.5547600  23.4460659   0.7110077  31.2851486  22.5158939   1.6556236
  54.8703270  63.1118851  56.7304878  54.7568130  62.7135162  57.5934143
  55.7996979  63.3376350  56.6912842  64.5643387  14.2712536  81.8598251
  64.4042664  15.1267214  82.2583008  63.7211494  14.0215855  81.4817657
  58.3234444  64.5789032  17.7995377  58.8540764  65.3032227  17.4678402
  58.6588020  63.8074951  17.3427010   0.6333748  43.9277573  31.0953178
  -0.1571846  43.5014191  31.4261990   0.7915518  44.6468735  31.7069416
  38.2810135  20.7281437   7.8140841  38.9289093  20.5604935   7.1297164
  38.2572327  21.6817913   7.8929477  55.8914261  37.9170227  49.7136993
  55.8110657  37.8639488  48.7613564  55.0122528  38.1449432  50.0159149
  19.6147480  55.1774483  30.2335911  19.2716713  55.7912140  30.8830681
  19.9720287  54.4558868  30.7512150  70.1941071   1.7930653  55.8454437
  70.7469482   1.1273499  56.2546158  69.4219284   1.3126500  55.5468140
  69.6049347  67.2947235  47.8291550  70.4260712  67.1535950  48.3003731
  68.9416046  67.3550491  48.5166092  23.0628967  27.3389587  55.3823662
  22.7499332  28.2176056  55.1672707  22.7434464  27.1817627  56.2708893
  72.6185608  61.7762985  15.1514931  73.2591934  62.4700966  14.9950590
  71.8525467  62.0379829  14.6406355  42.8187485  68.5155411  61.3340569
  42.2019157  69.1286850  61.7338142  42.3342285  67.6920776  61.2759514
  35.8640976  49.0236397  25.7002068  35.3625450  49.4756966  26.3786774
  36.4751778  49.6842041  25.3739090  21.0696087  42.5929489  21.8524075
  20.7247086  41.8298798  22.3160915  20.8971214  43.3285027  22.4401512
  11.8588066  63.3753204  78.3580017  11.3601017  64.1913071  78.3169632
  12.5434017  63.5453033  79.0050430  30.7943745  68.7917938  39.9444580
  30.8067570  69.3538513  40.7191658  31.1002617  69.3560104  39.2342949
  71.4187927  52.9370270  72.8990784  71.7980194  52.6842537  73.7408218
  72.1274796  53.3919258  72.4440384  82.3203278  14.6387644  57.8223724
  81.7532654  15.3639078  57.5600052  82.9170380  14.5217619  57.0831223
  54.6582565  35.1965904  48.1098976  54.8927917  36.0135880  47.6697350
  54.1510162  34.7110939  47.4593353  83.9013290  31.7286987  64.0936661
  84.4575882  31.4095287  64.8042603  84.4423981  32.3726578  63.6367302
  71.4034042  60.7006493  87.5425568  70.8230133  61.1198006  88.1779251
  72.0758743  60.2766685  88.0757065   2.1320899   0.6138983  55.0433426
   1.5907496   0.7009059  54.2587357   1.9468108  -0.2681915  55.3655586
   4.6127748   6.8038564  39.3552589   4.4376521   5.8839583  39.1568909
   5.5528846   6.8358979  39.5324593  33.2485542   3.8833406  13.0523109
  32.7465858   4.6870661  13.1875248  32.7682953   3.4127581  12.3710365
  17.3840656  21.5393887  64.4593735  16.9496078  21.9893265  63.7347794
  17.1891041  22.0773525  65.2267151  25.1250687  70.8389435  86.9976273
  24.5548916  70.8499756  87.7663956  25.7308674  71.5665817  87.1382751
  46.4018860  46.7086868  28.3514442  46.5416222  45.9352264  28.8977642
  47.0850029  46.6563568  27.6829834  45.3264771  40.5312653   0.0821919
  45.7171059  39.9969749  -0.6093098  44.9512138  39.8963280   0.6923302
  69.5997772   9.9274626   2.5182786  68.9969711  10.2248869   1.8368127
  69.5757294   8.9723940   2.4591362  85.7802734  69.7807922  47.8057785
  85.8498611  68.8348236  47.6771851  86.4661407  70.1492920  47.2489815
  52.8411446  17.4336662   8.8712597  53.1382141  17.2270813   7.9850860
  53.1830711  16.7207642   9.4107838  10.8390980  60.9972305  74.3671188
  11.3213568  60.3813210  73.8154755  11.2937899  60.9714203  75.2090378
  58.6633339  41.8593102  57.0843048  58.6364059  42.2453995  57.9597702
  58.2306671  41.0112190  57.1831436  84.6380768  50.1200714  60.3999786
  83.7260590  50.3697624  60.2513123  84.6961441  49.9763947  61.3445511
  45.4733658   2.6607478  67.5697556  46.2630119   2.4126236  68.0505066
  45.7565651   2.7178454  66.6571884  27.7524948  63.1606407  28.8829441
  28.2270069  63.3423805  29.6941414  28.3295307  63.4829521  28.1905746
  14.2912846  70.6219711  30.9342022  13.9826460  71.4015656  30.4724560
  13.7145557  69.9204407  30.6317654  45.7317009  63.7911263   3.1810842
  45.8529625  64.0850143   4.0839453  45.0338745  64.3499146   2.8389919
  16.9736023  56.1881485  20.2705994  16.1836491  55.6500511  20.2190495
  17.6198578  55.7157478  19.7457905  61.6716461  48.0778008  62.0200348
  60.8021469  48.4507561  62.1652985  61.5457573  47.1334610  62.1128006
  74.2844620  65.2671280  39.4344788  73.4404221  64.9403534  39.1229553
  74.0748215  65.7455139  40.2366180  51.3751221  28.2697697  59.7972298
  52.0659904  27.8136463  59.3167305  51.0695496  27.6310329  60.4413376
  85.3897934  56.3045349   3.5274420  85.0951233  55.4126091   3.3434079
  84.7772980  56.8627663   3.0484178  22.0789986  46.0775185  11.1826181
  21.5062008  46.5696602  10.5944567  21.4799042  45.5877838  11.7460718
  22.3686142  68.9804230  21.5826817  21.5426998  69.1809616  21.1423645
  22.9924088  68.8415909  20.8700542  56.7530098  36.0931053  64.6641693
  56.0152931  36.7022362  64.6952515  57.5227356  36.6411362  64.8171921
  76.9166946  29.8425636  39.2296028  76.9439163  30.0213318  40.1695671
  77.8235855  29.6429062  38.9974022   7.7613697  48.8488159   4.7046161
   7.9242187  48.0561523   5.2158852   7.1388040  48.5755577   4.0308414
   8.2579126  64.6488495   4.0137920   8.1391325  63.8585930   3.4868963
   9.0817051  64.5046844   4.4794240  57.5050888  55.5325775   9.8279991
  56.7345009  55.9299660   9.4224091  57.1491165  54.9512558  10.4999981
  47.0939026  62.0207367  70.0810394  47.5111275  61.6978340  70.8797226
  47.2813148  61.3496208  69.4247589  69.3788528  53.3483162  24.1546669
  69.1430893  52.9774895  23.3042946  70.1269684  52.8262558  24.4445133
  20.7376423  48.8932877  59.2596626  21.0317268  48.4552689  60.0583382
  20.0881577  49.5288925  59.5603485  29.6563625  62.8323517  41.2392006
  30.4349689  63.2214775  41.6374245  29.9393215  62.5749702  40.3617477
   0.2372864  19.2773933  24.0132008  -0.5523278  18.8164482  23.7298794
   0.7613558  18.6072979  24.4520130   0.7800049  15.6387024  44.1978683
   1.0098629  14.8419018  44.6758919   0.1018348  15.3612852  43.5819473
  61.1410179  64.0858841  35.9657898  61.1550407  63.3016129  36.5143890
  62.0626678  64.3233719  35.8638458  19.0923290  64.3597565  49.2907791
  19.7499428  63.6984863  49.5064163  18.7364864  64.0777817  48.4481049
  58.5784264  67.4195404   9.4401989  59.3199577  67.0677109   9.9327259
  58.9398537  67.6263962   8.5783329  10.2337236  65.6227341  77.7549820
  10.1142035  65.4169617  76.8278351   9.4812212  66.1708298  77.9776154
  27.0867329  38.5698776  78.8105621  27.8995800  38.9936867  79.0860596
  26.6757298  38.2863541  79.6272202  50.0523491  69.3586655  73.5208664
  50.7077789  69.4991302  74.2041779  49.8220520  68.4326782  73.5965958
  12.4796581   5.3380022  63.7116470  12.8701954   5.7498102  62.9408493
  12.7714920   4.4273086  63.6703911   8.3937035  70.4070206  74.0471573
   8.1878166  70.9072189  74.8368683   7.5572810  70.3287659  73.5883484
  68.5905457   2.3020461  65.0333939  68.0864563   1.5564735  64.7074280
  68.0472183   3.0643098  64.8334198  27.1522236  57.4923401  21.7902241
  27.0322514  57.9765282  22.6071701  26.7647839  56.6339645  21.9614372
  60.1182480  37.7065430  57.2304306  59.5693359  36.9556618  57.4565010
  59.4963760  38.4046288  57.0250435  45.2633018  41.5358086   8.2639179
  44.9766617  42.3359680   7.8236694  44.5729485  41.3526001   8.9011612
   2.0136802  11.3616362  52.0944901   2.5940592  10.6263456  51.8976669
   1.9697037  11.8575602  51.2769585  25.9815826  39.4170532  51.2877350
  25.2381458  38.9892426  51.7126007  25.7486858  39.4358139  50.3594933
  11.3143997  32.8162384  66.4325943  10.3708763  32.7114410  66.5551300
  11.4622498  32.5970955  65.5126266  56.2577705  67.8083191  58.4120941
  55.5187531  67.6251831  58.9922180  56.9351883  67.1893234  58.6844559
  79.1408920  44.9599075  39.2101173  78.6461105  44.2689362  39.6505432
  78.4761963  45.5891914  38.9300957  19.0056744  26.8181629   1.1694007
  19.5972805  26.8626232   1.9205726  18.5143986  26.0069599   1.2991285
  37.9680328  24.2597122  76.9582291  38.0675659  24.1827221  76.0093384
  37.6927834  25.1658535  77.0974426  51.8525200  48.1747780  18.6076126
  51.8646164  48.9538078  19.1636677  51.9270248  47.4425278  19.2195721
   6.8505497  56.2398949  79.0342102   7.7872829  56.2788887  79.2271881
   6.7854867  56.4877586  78.1119537  75.5242310  51.7784119  29.7309284
  76.3900223  52.1330681  29.5287952  75.1630020  52.3831825  30.3790016
   1.8459078  27.6215706  18.4456940   1.6094358  28.2065506  17.7258949
   2.4541123  28.1326027  18.9797039   9.8799419   3.4017460  32.0665550
  10.4288149   2.8227947  31.5376091   9.0977421   2.8834343  32.2556305
  13.4887342  53.9681854  50.4800835  13.2118006  53.0645294  50.3286095
  12.8649530  54.3052635  51.1231308  24.4225101  48.1987457  40.9733429
  24.8248081  48.8954620  41.4919701  23.5003910  48.2112274  41.2298050
  83.8855896  70.5577469  13.2622023  83.6343918  69.8105927  13.8052454
  83.1230316  70.7166290  12.7058821  77.6849442  63.9711151   6.7281823
  76.9285278  64.4766006   7.0257759  77.9880447  64.4317551   5.9457698
   3.4876781  32.6941719  49.9337616   3.8590026  33.4402199  49.4628448
   2.8666718  33.0842552  50.5489197  10.1551771  47.8649635  58.3864059
  10.2867689  48.1717491  57.4892998   9.3588467  48.3094406  58.6771507
   5.1279664   6.1455870  86.9510269   5.6272335   5.7767591  87.6796799
   5.0649004   5.4306331  86.3177109  51.2966042   1.9387007  42.6692009
  50.5436668   1.6087134  43.1595268  51.4521751   2.8122065  43.0283928
  69.5860062  38.3701820  40.1608887  69.8406982  39.2740593  39.9755020
  68.6629639  38.4272652  40.4077835  18.4491825  36.8781242  72.9944916
  18.5259571  37.8317871  73.0239182  17.8029556  36.6689415  73.6689301
  78.6843109  23.9523106  41.0712204  78.8660507  24.0246048  40.1342163
  78.8468246  23.0315876  41.2763786  11.9781418  41.7579842  18.9331131
  11.8522844  41.5296631  18.0121021  11.1467018  42.1512985  19.1981487
  60.6611061  19.4283905  68.9741821  60.6684227  18.8264618  69.7183990
  59.7838402  19.3384018  68.6019669  33.5743599   1.8715003  80.5969162
  33.5715828   2.6730614  81.1201019  34.1257973   2.0796635  79.8427124
  57.2238274  10.0640001  55.9138794  57.5329514   9.1582670  55.8959236
  57.8371925  10.5375996  55.3519897  31.6711922   9.5726452  88.3014984
  31.2487087   8.8797674  88.8091049  31.7364998  10.3090935  88.9094543
  59.9183617  12.0015230  79.9672546  59.5396080  12.2709970  79.1304932
  60.1033783  11.0688534  79.8571320  49.0905800  57.8186264  52.5408936
  48.2104530  57.5177879  52.3148232  49.6627312  57.0917854  52.2947617
  79.5121078  63.7944260  22.3208828  79.8432312  63.9713974  23.2013760
  80.1624451  64.1853256  21.7373676  24.3661270  58.5970612  84.3690872
  25.2718563  58.3953857  84.6040649  24.0217419  57.7764740  84.0165710
  81.6441574  64.7594070  68.7166061  81.6736603  63.8724747  69.0753784
  81.0815964  65.2436523  69.3209763  48.0377007   2.3097420  54.5047340
  47.5213928   1.5038990  54.4881592  48.0249214   2.5835643  55.4218445
  17.6545048  18.0257149  72.9388962  17.0548000  18.1741772  73.6700211
  18.1055107  17.2110748  73.1606827  49.3543167  20.1502934  22.6522179
  49.1018753  19.2651176  22.3895950  50.2621346  20.2367058  22.3613014
  65.6597366  41.3993073  51.3495979  66.2838593  40.7503815  51.6745758
  64.8226242  41.1404343  51.7348938  37.9507904  42.1625404  19.2862053
  37.7934189  41.6540756  20.0817738  38.8347206  42.5127983  19.3967419
  43.2054787  28.4391823  32.3415146  43.3188705  29.2240906  31.8055172
  42.7362022  28.7449532  33.1177330  11.4779749  35.1648140  18.0502796
  12.0295753  35.9087334  18.2922649  11.6817217  34.4936752  18.7016582
  85.8308258   8.1369095  68.3403091  86.1602783   8.4915047  69.1661148
  86.4693680   7.4671402  68.0955429  16.3991127   4.1350284  38.1645279
  15.9347897   4.4890003  37.4060135  17.2801666   3.9483202  37.8403091
  72.7882462  57.8763733  38.2291336  72.9906540  57.3658485  39.0131187
  73.6014862  57.8726196  37.7243004  56.2323227  41.0028534  36.8636131
  56.2210884  41.5478172  37.6504555  55.7584496  40.2099686  37.1146278
  48.9065208   4.9515791  78.9136581  48.5800018   4.1448798  78.5150909
  48.2815628   5.1432662  79.6128845  33.5272636  66.4128723  87.1318893
  34.3093987  66.7191315  86.6728668  33.7394028  65.5174408  87.3953781
  13.1435280  63.6885643  71.9768982  13.0988979  63.2327194  72.8173981
  13.4831266  63.0336609  71.3669815  78.6631241  68.9779282  81.6034775
  79.4485550  69.3537827  81.2058945  78.0419693  68.9000320  80.8793716
  40.9081841  47.3753242  67.1211395  40.3173981  47.3040199  67.8708878
  41.1672096  48.2967033  67.1070862  23.8252430   3.7749994  15.4350090
  23.8254261   4.6948686  15.1702976  24.7353191   3.4963300  15.3333426
  44.4485779  14.6383915  82.1300430  44.8269234  15.3729038  82.6133423
  43.5565872  14.5627298  82.4689484  25.0525799  27.2078476  74.4595413
  25.8052654  27.2780037  73.8723679  24.7193050  26.3219471  74.3169174
  48.5381851  51.7305679  85.0696640  49.2630692  52.3509521  85.1464691
  48.3096581  51.7431145  84.1402283   1.3303118  40.8250732  21.2545185
   0.4129786  40.7946892  20.9828415   1.3023523  40.7156525  22.2050343
  59.9772186  68.1523590  57.6282578  59.0702095  67.9163208  57.4337082
  60.4089737  67.3170319  57.8072624  32.0125351  47.6679573   9.7389965
  32.2916985  48.5428505   9.4690657  31.3426590  47.4227409   9.1007423
  29.5541382  36.6289177  76.9119568  29.0175819  36.8567581  77.6711884
  29.0623055  35.9367332  76.4701309  29.6306896   6.4284582  72.3671722
  30.3202934   6.4399643  71.7034378  30.0911713   6.2539492  73.1879883
  60.7647514  15.6094589  29.2224693  59.8971252  15.9384098  29.4575214
  61.0444870  15.1046629  29.9861202  14.5038671  30.3198242  79.0848007
  15.3012524  30.0631866  79.5479889  13.8498459  30.4274654  79.7753830
  60.0482674   6.5421252  10.5728588  60.9998322   6.5666890  10.4720726
  59.7127609   6.5281072   9.6764936  17.3180923  68.6842651  30.1376286
  16.9479313  69.4037018  29.6261349  17.7382660  69.1121902  30.8836632
  26.2756233  70.4528122  50.4679909  25.4809780  70.8525925  50.1145096
  26.9814186  71.0367508  50.1903267  49.9066887  59.9978333   6.2097769
  49.5313950  59.2043610   5.8279533  50.1407204  60.5389481   5.4556847
  13.3106070  56.1627808  68.6313553  13.0299349  55.9804153  69.5281296
  12.6482515  56.7639847  68.2906647  32.6125107  16.1171875  69.5478058
  32.1758652  15.5777988  68.8885345  32.2976875  15.7746353  70.3843307
  13.7399549  36.1888924  57.4023209  12.8486414  36.0505486  57.7227173
  14.0929766  35.3065605  57.2878647  42.2361832  49.0217972  23.5987434
  42.0646248  49.1680069  24.5290241  41.8937645  49.8040352  23.1662121
  86.1550598  68.2032394  44.7721825  85.3803177  68.1097260  44.2178688
  86.0984421  67.4727554  45.3881531  53.0602036  -0.3328874  42.6799088
  53.7271080  -0.0243510  43.2933197  52.4828072   0.4202822  42.5550766
  48.8340187  23.0249043  55.9708214  48.6832275  22.0843449  56.0648575
  48.3575020  23.4181442  56.7019348  60.1817970  27.9391327  28.9764900
  60.2584534  28.0287228  28.0265808  60.2053986  26.9947262  29.1306744
  15.7847004  32.1857567  67.8995438  16.5284252  32.1805916  68.5021057
  15.6548681  31.2652454  67.6714249  34.5796013  45.7445374  30.9463539
  35.2946739  46.3392563  30.7200489  34.4772377  45.1882744  30.1741314
  51.6609650  50.7987442  19.8514328  52.0732880  51.6481247  19.6940308
  50.7348404  51.0025597  19.9817600  34.8459549  53.3219414  32.7240562
  35.4937973  52.9186935  33.3019142  34.3670731  52.5830688  32.3485832
  67.8522491  30.3690662  15.5295906  67.6475296  31.2125835  15.1261072
  67.1083603  29.8097477  15.3059301  77.9146576  15.7523632  11.0018768
  78.6835938  15.4384651  11.4777355  77.9495392  16.7046795  11.0919275
  75.0042877  49.7292824  73.8607330  74.4380798  49.0733948  74.2674866
  75.3898315  49.2796707  73.1087799  80.3648987  64.9501572  43.2835121
  80.4518433  64.3661499  42.5301170  79.5018387  65.3504257  43.1779404
  22.4348392  71.2706223  60.2248001  21.8368759  71.6099319  59.5588112
  21.8610649  70.9455414  60.9185867  37.4107246  59.3226013  69.8809967
  37.6794357  58.7520065  70.6010284  38.1827202  59.3771591  69.3177261
  43.9995461  49.5816689  85.2067337  43.4959259  49.0002174  84.6370773
  44.7941208  49.7751122  84.7092743  28.6316662  35.5070305  67.2819138
  29.1002579  36.3289833  67.4269791  28.7198505  35.3435593  66.3429031
  29.0547581  28.0666122   8.2319078  28.6655350  28.8347549   8.6498728
  29.5272923  28.4181614   7.4773502   6.3049502   8.6725435  82.6310577
   6.1888356   8.4945230  81.6977539   7.0164037   9.3119402  82.6662292
  65.8325272  30.6559620  81.5967331  65.0956726  30.3720245  81.0557556
  65.8090820  31.6117706  81.5507889  74.9150848  11.4598207  44.5082817
  75.8073425  11.3655996  44.8417969  74.6389999  10.5657015  44.3068924
  79.1412125  69.6465073  27.3058586  78.5516586  68.8927689  27.3292122
  80.0049744  69.2809830  27.4970112   1.4130504  11.5765057  67.0452042
   2.1522791  12.1843500  67.0279236   1.3490351  11.3032036  67.9603195
  80.2512436  16.1347885  22.9227161  79.3221283  16.3445683  23.0174351
  80.2642975  15.3415298  22.3871765  17.2993622  68.8621979  65.6278458
  16.8649940  68.1748581  65.1227570  17.2349033  68.5686569  66.5366440
  62.3921165  51.6652298  21.4314117  61.6619530  51.3353615  20.9076939
  61.9839172  51.9888000  22.2344723  37.2969742  57.9638405  63.2164917
  37.2641869  58.1851349  62.2858009  37.6906204  58.7313576  63.6314507
  22.0798073  49.9039497  80.1062469  21.3707104  50.0122337  79.4724579
  22.1733494  50.7664528  80.5106812  73.3815002  58.6896591  42.2437897
  73.2880783  59.5892982  41.9304962  74.1490173  58.7135353  42.8152618
  66.5011826  56.7316284  25.9492130  66.9807053  55.9232826  25.7679138
  66.6474609  56.8929634  26.8813114  56.0634842   7.0351233  65.0775757
  56.5036774   6.7715340  65.8856430  55.7096901   6.2203889  64.7208252
  38.9136848   9.6707239  63.1998672  39.6035919   9.9815130  63.7861023
  38.3805046   9.0908689  63.7436676  65.8825226  10.8368130  71.6748352
  64.9495773  10.6391783  71.7572403  66.1013336  10.5893135  70.7764511
  79.4861832  18.6669579  82.5686188  80.3653488  18.3459816  82.7693100
  78.9426346  17.8793373  82.5476913  86.5499191  11.6959381  76.2757034
  85.7407608  12.2066917  76.3008347  86.2594757  10.7934294  76.1439667
  17.9559422   2.3167362  73.9660645  17.4274902   2.6434546  74.6942291
  17.3350277   1.8417497  73.4137192   6.1823297  65.1786957  50.7663078
   5.5176067  64.8829117  51.3883133   6.5668697  65.9531250  51.1769333
  38.6325569   0.8534921  18.3402710  37.7939796   0.8154795  17.8802948
  39.0664062   0.0303257  18.1157684  64.6050873   3.7818964  23.0453644
  63.6838417   3.9379418  23.2531776  64.9139252   3.2053080  23.7442188
  38.3025703  40.9217491  16.5763493  37.6642227  40.3043213  16.2192345
  37.8776932  41.2821465  17.3546963  44.8989105   6.7749062   0.0772758
  45.4156227   6.2741618   0.7085397  44.9953613   7.6851640   0.3572053
   6.3121166   0.7655970  49.3407707   7.1601052   1.2093681  49.3261452
   6.4060183   0.0917310  50.0140610  69.2013321  62.7513428  16.6254654
  68.4119720  62.2099304  16.6281681  69.6837082  62.4753990  17.4048271
  75.5994263  32.7088356  68.3509064  75.8453979  31.8263683  68.6283569
  76.4321442  33.1411743  68.1614609  24.2703018  29.5015564  87.3828049
  24.4387226  30.2516098  86.8124695  23.9698429  28.8126392  86.7900620
  68.9288254  50.7751884  46.0821648  69.6321793  50.3958015  45.5552979
  68.1918564  50.1756668  45.9651756  65.9055328  38.8246002  88.1888351
  66.4715042  39.5947723  88.2412872  65.9887314  38.5275002  87.2827225
  85.6760635   2.4003510  33.5587578  85.2392273   2.7834566  32.7980728
  85.1678238   2.7105350  34.3082314  25.7578983  50.3141899  68.5593185
  25.9788990  50.7964058  67.7625351  25.4511909  49.4630051  68.2468414
  85.0191269  58.7870102  64.2383652  85.5678864  58.0029449  64.2198257
  85.5383835  59.4314613  64.7192917  69.1622391  65.4551620  56.7771034
  68.6809616  64.7121201  56.4131203  68.7138977  65.6511002  57.5997963
  55.4253616  25.6287785  62.9457855  55.5459824  25.9947872  63.8219795
  54.6784706  26.1078720  62.5868225  59.7052193  50.9950676  38.9970474
  59.6159134  51.4303322  39.8448677  59.7900352  50.0662727  39.2124023
  75.3362274  71.4625702  85.2494125  74.7869873  70.7750473  85.6260834
  75.8541641  71.0155106  84.5799942  19.4089203  26.4397869  73.6147614
  20.0614471  26.1148968  72.9943695  19.3970528  25.7862759  74.3140564
  42.7800217   8.1923418   6.2985020  43.2268791   7.4774818   6.7518525
  42.0075417   7.7829819   5.9087191  61.4295387  40.7464066  25.9413395
  62.1423645  40.1822701  25.6415730  61.8256760  41.2925453  26.6203365
  59.2200165  25.1399212  49.5706444  59.9514160  25.3599834  48.9937096
  58.4816093  25.6397572  49.2225723  46.7654457  66.9638214  72.6855316
  47.1845131  67.7868118  72.4339218  46.2402191  66.7197113  71.9234390
  60.5697479  39.8361969  59.4065208  60.6983490  40.1918831  58.5272141
  59.7430382  40.2184143  59.7009506  67.4454956   1.7346706  60.5150452
  67.9219894   2.5242686  60.7714005  67.9235764   1.4025034  59.7552223
   1.7456180  12.3276196  77.9685593   2.5688524  11.8630371  77.8179626
   1.2024666  12.1035967  77.2128906  13.4589062  62.8835449  74.4301910
  13.0079594  62.2218819  74.9546738  14.3402119  62.9237671  74.8015594
  53.9565735  64.6704025  16.4428902  54.4326019  64.1482391  17.0886269
  53.3894310  65.2379532  16.9648781  83.4267578  26.6441650  64.0293732
  83.4795685  26.3999023  63.1053696  83.5613022  25.8228951  64.5022812
  11.2483625  63.9012070  24.8690777  10.9434862  64.7620773  25.1557617
  12.0519209  63.7534065  25.3677559  23.9371490  35.6679497  62.8068352
  24.2202129  36.3355713  62.1820259  24.1526031  34.8369560  62.3834381
  64.2653961   5.9045653   2.1942255  64.0515518   5.6973648   1.2845159
  64.0028152   5.1260152   2.6852903  33.0188065   9.7284241  17.0958538
  33.0138626   8.7932625  17.3000126  32.6988297  10.1494551  17.8937130
  20.1754837  47.5333900  33.7114487  19.8736668  48.1837654  33.0772934
  19.6496048  46.7555084  33.5254784  63.9625092  32.4925957  61.1376457
  64.3678207  31.6255684  61.1228065  63.1773529  32.3808060  61.6736145
  50.5988274  15.1524868   6.5899086  50.4025269  14.2157660   6.5739956
  50.0289841  15.5280533   5.9187455  29.0569324  69.3047485  27.3998604
  29.0375576  70.2033234  27.7291145  28.2063961  69.1861877  26.9770565
  32.7748947   6.2122855  23.5602551  33.1343803   7.0520549  23.2742691
  32.7880478   6.2592077  24.5162144   5.6908512  57.2857285  34.3883171
   5.3928261  56.5951385  33.7962875   6.4679241  56.9200172  34.8109818
  75.9697037  12.9063158  29.7493038  76.1680832  13.8419590  29.7873516
  76.4192276  12.5351000  30.5084839  44.9601402   2.7699926  30.9363480
  44.9117279   3.4117789  30.2278309  45.8636513   2.8246138  31.2476673
  47.9531097  16.7091579  33.1029091  48.6797752  17.1980495  32.7166748
  47.3159485  17.3803616  33.3473320   5.5471487  69.4632950  58.0356979
   5.0486417  70.1935272  57.6689758   6.4538345  69.6436310  57.7874413
  26.3333225   7.6472616  25.1696892  25.5212059   7.2447157  24.8620262
  26.1967945   8.5865946  25.0462151  73.6915741  66.5411453  21.8569889
  73.8965607  67.4046783  22.2154903  74.1459427  66.5174255  21.0148354
  38.9455452  45.3697243  13.3825569  38.9958801  44.6209679  13.9767475
  38.0117645  45.4637375  13.1942873  52.1709824  21.9107361  52.7348251
  52.0678215  22.0638599  53.6740494  52.7568779  22.6084595  52.4413300
  58.3985443  67.9286118   2.8035302  57.5169067  67.9198608   3.1761837
  58.8297195  67.1666641   3.1905138  43.0519066   1.8414819  68.5865784
  43.7273521   1.8248357  67.9085464  43.5098228   1.5853308  69.3871613
  78.1839142  53.5437202  88.3677368  78.9571686  53.4320602  87.8147125
  78.4693832  53.2647858  89.2377625  76.6076355  64.7420502  23.3777142
  77.2515259  65.4050522  23.6268444  77.0990524  63.9206429  23.3733177
  62.2270622  56.6422043  38.5981026  62.7587204  57.3641319  38.9333572
  61.8456993  56.9815178  37.7883720  79.4527588   0.4047691  60.9208794
  80.1592789   1.0187311  60.7205887  79.7921066  -0.1234283  61.6434326
  15.8622875   6.8510284  60.1766129  15.3647566   7.6546907  60.0255432
  16.7554970   7.0686159  59.9100304  22.6476746  13.1739569  13.3625917
  22.2524147  14.0266762  13.1812859  23.2167263  13.0090208  12.6107874
  65.8091202  28.9312763  64.2342072  66.5466690  28.6463528  64.7737198
  65.3292236  28.1261330  64.0401077   7.7228365   2.7041607  77.6754837
   7.3883910   3.5546992  77.3909454   7.6860733   2.7399180  78.6313095
  23.7571659  58.8647614   5.3142533  23.7069893  59.0827332   4.3835535
  23.9507446  59.6972923   5.7451277  72.1368790   8.8053379  72.4662323
  71.5309372   8.9780512  73.1868134  71.9314041   7.9124069  72.1893082
  73.2562332  19.4863949   0.0597799  73.7820435  19.1568127   0.7885631
  72.3965530  19.0840607   0.1835067  44.3913727  27.1263714  75.8757629
  44.1573219  26.3817711  76.4298553  43.6345711  27.2450733  75.3018341
   3.9466043  27.9149513  34.7417755   4.1762762  28.8390026  34.8398094
   4.3121328  27.6660614  33.8928490  31.9379482  33.3985329  69.8988266
  32.6521530  32.9728165  70.3730774  31.8789921  32.9181671  69.0729904
  79.9613571  12.8100100  67.3923798  79.4882584  12.1124573  67.8460617
  80.3024902  12.3927994  66.6013031  77.2427139  11.7958841  50.1480408
  76.2994156  11.6396685  50.1030884  77.6280365  10.9213057  50.2015991
  60.0055618  39.3329773  38.3251038  59.1203651  39.0213165  38.5135803
  60.4780312  39.2259026  39.1506615  42.4820671  53.9178162  80.0957489
  42.8251686  53.7198639  80.9671402  41.5553627  54.1085815  80.2408676
  34.3910599  62.8680573  76.5349350  34.8464355  63.2417679  75.7804794
  33.4683113  63.0722237  76.3829880  19.4644623  54.0434074  47.7175331
  18.9530239  53.6446342  48.4215508  19.1327400  54.9393387  47.6583862
  81.4440002  68.5855789  28.4839230  82.0481567  67.9862595  28.0457020
  81.9973221  69.0896454  29.0805645  60.8825760  64.0356522  47.5890236
  60.4828339  64.6289978  46.9531097  60.5858765  64.3604813  48.4391327
  77.5353851   1.5850052  13.4940310  77.2106934   0.6857365  13.5400991
  77.4479904   1.8242325  12.5713367  11.3060427  53.4483109  78.7914352
  11.0647926  53.6289482  79.6999512  11.8996515  52.6993599  78.8456268
  40.5756149  40.8808556  51.7773285  39.7240601  40.4884224  51.5847588
  41.1939430  40.1526146  51.7176170  53.7352982  57.0206985  26.2377758
  53.0384483  57.4055405  26.7693119  54.3711891  57.7277145  26.1282291
  11.6672964  31.7498646  64.0034790  11.0214405  31.1175823  63.6883240
  12.5060635  31.4123363  63.6891861  22.9456692  35.6680450  67.9305649
  22.9713917  34.8583832  68.4404831  23.4573002  35.4729919  67.1454391
  39.3241196  46.9327087  69.3760452  38.5391922  47.3337288  69.0028076
  39.6996117  47.6145096  69.9331665  36.8137474  49.9420662  57.0133820
  37.7617683  50.0418015  56.9265404  36.6200027  49.1096573  56.5823479
   5.8911142   2.6491876  51.4877892   6.0896630   2.5521574  50.5564461
   5.3711548   1.8750855  51.7037506  62.7602272  66.4874802  56.1562462
  62.9031792  66.5628052  55.2127800  63.5989418  66.1820526  56.5019417
   3.9233809  53.8111229  12.3846693   3.7067721  54.1488724  11.5156260
   3.9134779  54.5828400  12.9508705  83.8635559  42.2554169  11.1967888
  84.2837601  41.5511055  11.6903505  84.5910339  42.7707672  10.8483353
  59.8956833  48.5928192  64.9411011  59.6107407  49.5047340  64.9999008
  59.5901070  48.1934204  65.7555618   6.0974936  19.3110237  47.3071976
   6.4974260  18.8261604  48.0291328   5.7311630  20.0939388  47.7183838
  85.4496765  39.5775604  59.2549248  84.6671219  39.0959206  59.5229988
  86.0072098  39.5807495  60.0329857   7.0057006  40.2751122  67.3667526
   6.8409252  39.3369179  67.4609680   6.1734481  40.6886635  67.5960159
  52.1660538  53.0700912  71.1365128  52.7122917  52.7104492  71.8354492
  51.7370720  53.8279915  71.5337448  28.9483490  60.5748405  15.3379154
  28.3064537  61.2353058  15.5986576  28.9922829  59.9760971  16.0834408
  62.4143562   4.3428159  54.7140312  62.3932190   3.7763078  53.9427605
  62.0947113   3.7893412  55.4265785  65.9305878  27.2561531  71.1612549
  66.6913300  27.6912460  71.5462265  65.3787766  27.0312538  71.9103546
  76.7786331   5.7367692  77.6426544  76.3663940   5.6361122  78.5006561
  77.5728531   5.2050261  77.6946640   0.7098979  32.9370270  20.7724380
  -0.1115876  32.8450584  21.2550735   0.6094281  32.3588409  20.0162373
  17.6894131  17.8597260  77.1656494  17.5891972  17.3448715  76.3649521
  18.6355553  17.9082279  77.3023682  42.3273697  60.3925705  86.3335876
  41.5254059  60.8773079  86.5288315  42.1363564  59.9328995  85.5159988
  17.9230003   3.5375671  57.7076721  17.5453568   2.6602197  57.6453972
  18.5357170   3.4830863  58.4410477  10.6345110  54.0956726  62.7787437
  10.9193172  54.5992508  62.0161667   9.8802471  53.5953598  62.4672928
  18.1810722  12.4180450   3.1063650  18.0304680  13.1032772   2.4552071
  18.8638611  11.8682547   2.7219648  48.0247765  41.6373253  34.9241943
  47.3477516  41.0956459  34.5186653  47.8893967  42.5086288  34.5517159
  72.6852341  52.2354584  10.3900232  73.1032333  53.0961800  10.3642750
  72.8458328  51.8651428   9.5220890  43.9111748   0.1708902  56.1568260
  43.6478233  -0.6562840  55.7535133  43.0876503   0.5825763  56.4186592
  56.9226570  68.0416565  86.6586990  57.8410149  68.2167892  86.4533234
  56.9540787  67.4416351  87.4038239   9.2518492   3.4079981  74.1213684
   9.5513802   4.2104678  73.6940994   8.3155155   3.5473008  74.2631607
  11.1839180  18.7627735  25.4586468  10.4844694  18.9647827  26.0800934
  11.0256996  17.8527699  25.2074623  49.9573212  41.4778366  26.5416050
  49.5763206  41.3667641  27.4126606  50.9015160  41.4079742  26.6824875
  82.7157059   7.0457659  62.3714523  82.6658630   7.5128012  61.5374107
  82.7542801   7.7378535  63.0315742  49.4880676   2.8444285  66.3584824
  49.4007111   2.0648584  65.8099670  50.4327850   2.9667521  66.4521408
  70.5499191  27.3911762  37.4524002  70.5239792  27.3959885  38.4092369
  71.3224564  27.9112282  37.2311287   0.9937654  34.3610039  82.7315598
   0.7626019  33.6018600  83.2668152   0.2018147  34.5490189  82.2278748
  60.0235329  47.1902161  15.1797771  60.7515717  47.1815529  15.8011560
  60.2249680  47.9125443  14.5848837  84.4578629  14.9439993  34.3806953
  84.6021118  14.7746334  33.4497032  84.9257202  14.2386751  34.8277512
  10.6791248   8.1062737  12.6914148  11.3522787   8.4047594  12.0798578
  10.3701239   8.9062443  13.1166172  38.2467613  44.2327538   4.2140875
  38.2057152  44.5660858   3.3177407  37.8510742  43.3625870   4.1643839
  62.3950920  59.4390335  31.8712978  62.5490417  60.2693329  31.4205914
  61.4762039  59.4773293  32.1366501  48.5606575  60.0722008  45.6887779
  49.2439919  60.3384705  46.3039055  48.7833710  60.5222359  44.8738556
   7.9084878   6.0564423  71.4703903   8.6390476   6.3518033  72.0137787
   7.2656670   5.7207842  72.0951614  79.5615616  26.5585098  35.8199005
  79.4204559  27.4788837  35.5980186  80.4972000  26.4994335  36.0130920
  19.5760670  53.7421150  44.5318718  19.8216667  54.2023811  45.3344116
  18.9564934  53.0718689  44.8202019  14.8414688  19.5416756  70.3627548
  14.3344355  19.1741962  69.6388016  14.3374481  19.3190193  71.1454544
  60.0439262  67.2735672  21.0863361  60.4507942  67.4831696  20.2456455
  59.3137589  66.6967697  20.8618584  40.7296829  16.5159092  77.3780365
  41.5515289  16.9108677  77.0868149  40.7824707  15.6072140  77.0818634
   0.2424117  47.3194580  85.9973068   0.9091487  47.9177094  85.6599808
   0.7393184  46.5810051  86.3494492  74.8677750  59.3800621  84.1246414
  75.3488464  59.6930618  83.3585968  73.9465942  59.4508247  83.8743362
  27.9932003  15.4897146  15.0768461  28.3986626  15.6501951  14.2247429
  28.7106209  15.5793247  15.7041502  70.6360474  38.9024963  37.0808144
  70.2883835  39.5322876  36.4493713  70.6619949  39.3826294  37.9084816
  80.3779297  23.4187756  60.8154564  80.0956345  24.0831928  60.1868935
  81.2897339  23.2420654  60.5839043  29.9868793   7.2666469  20.7488384
  29.1352596   7.3147364  20.3144875  29.8271542   6.7391367  21.5314312
  59.2433052  55.5182343  26.8394127  59.9172363  56.1979675  26.8426476
  58.9432220  55.4741554  27.7472897  45.6543579  13.8457518  14.6716108
  45.2296677  14.5352554  14.1612625  46.5345497  14.1812658  14.8416719
  68.8218842   3.0333588   6.2265024  67.9060974   3.2775462   6.0925584
  69.3204727   3.7315774   5.8020878  23.3163624  26.2450867  10.8383741
  23.9396114  26.6146717  11.4638329  23.8340111  25.6289196  10.3200989
  74.3717422  57.2494011  50.8539925  73.8419189  58.0465012  50.8417778
  74.1788635  56.8465500  51.7005959  59.0845757  56.0045471  74.5744324
  59.8984032  55.5755882  74.8388443  59.3041687  56.9356575  74.5420532
  64.9775391  70.6888962  28.8277569  65.8863754  70.9082413  29.0330105
  64.9283218  69.7399139  28.9428501  62.5571899  25.1064568  59.6413727
  61.8526497  25.3824787  59.0551414  63.3552589  25.2138786  59.1238976
  12.2007847  51.8749046  54.7324448  11.6194859  51.9708252  53.9780426
  12.5872536  51.0054436  54.6280022  37.5057945  59.1498528  12.3610477
  38.3278008  58.8089790  12.7136745  37.0387917  59.4870834  13.1255178
  27.8222904  61.6425667  65.5634384  28.5027008  61.0679550  65.9142838
  28.1975842  61.9925957  64.7554321  66.2953186   7.8408356  11.8925047
  66.5475922   7.8598957  10.9693432  65.8317184   7.0099416  11.9970055
  11.3494349  36.1052933  58.9766617  11.4739151  35.1664581  58.8376541
  11.1456356  36.1844940  59.9085541  68.0176086  67.0397568  42.3162956
  67.1630173  67.0957718  42.7438126  68.2945404  66.1336517  42.4523392
  27.1678619  62.9137993  19.0558701  27.3031864  62.3549576  19.8211231
  26.6522617  63.6500092  19.3850899  26.6631985  68.2905426  43.5452843
  27.0888348  68.4452286  42.7019958  27.3816624  68.0768738  44.1405869
  54.4213943  37.1640053  18.1654739  54.9375763  36.6855049  18.8141804
  54.6622810  38.0810432  18.2968121  36.8275795  45.3636322   6.3325386
  37.0040054  46.2697792   6.0795503  37.1282387  44.8439522   5.5870385
  65.1091843   6.1268873  61.4098396  65.0376663   6.4406590  60.5083580
  64.3296967   6.4711828  61.8458328  79.1063919  56.6386719  50.1061325
  79.9604568  56.3501091  50.4279137  78.4851608  56.3299217  50.7656593
  61.7056313  -0.1180663  36.4637337  62.4716187   0.3105746  36.8455200
  60.9685631   0.1997203  36.9852448   8.3847551  37.8384399  48.4845161
   8.0942440  37.2528381  47.7852974   8.5558977  38.6708908  48.0441017
  83.1386337   6.9199772  37.0862389  83.7495346   7.4976759  36.6287537
  82.4490814   7.5033174  37.4032059  71.6742630   8.1495609  80.1192322
  71.0058365   8.7703695  79.8293457  71.7259979   8.2782259  81.0663376
  48.0526352  16.2169170  54.3224640  48.7335243  16.6592216  53.8155251
  47.4333649  15.8989191  53.6654892  25.5439625  29.1651115  84.5274734
  25.9688225  28.6590023  83.8349609  24.7438126  28.6778107  84.7237701
  52.8273048   3.0728030   9.5720911  53.7680626   2.8973768   9.5512743
  52.7228851   3.8795679   9.0676517  29.5608044   0.6974444  31.3906689
  28.9634876   1.2563188  31.8877659  29.0136223  -0.0262821  31.0856400
  27.6009121   7.6457748  77.6368332  28.1286907   8.4429684  77.5903091
  27.4125366   7.5373030  78.5690231  56.5494804  18.1517391   0.1971640
  57.2524948  17.6132584   0.5605380  55.9124794  17.5202904  -0.1371000
  52.2502785  35.7734032  71.0830307  52.4121437  36.5142059  70.4988708
  51.4681358  35.3529930  70.7256317  49.0701370  21.9817238  25.3341541
  49.4824333  21.8403454  24.4819489  48.8480606  22.9127769  25.3412743
  14.1793947  58.4968338  81.6208191  13.5025768  59.1641731  81.7339706
  14.8793144  58.7619743  82.2175140  63.2160225  58.5562096  29.0946751
  63.0290642  58.3097725  30.0005150  64.1503525  58.3787842  28.9861565
  38.8229065  67.7081985  73.7957382  39.6003647  67.4241867  74.2764893
  38.3006020  68.1816788  74.4432297  79.0844955  36.2912216   4.6619525
  79.4054260  35.9713821   3.8187823  78.6786118  37.1341629   4.4596138
  52.5113144  49.2018204  88.0880432  51.8006592  48.8906975  88.6487579
  52.1046829  49.3205299  87.2296753  46.4566154  18.5140152  61.1175880
  45.5816460  18.1599388  60.9585648  46.3205223  19.4571609  61.2080765
  19.8503227  28.2997570  66.2321548  20.2365208  28.9366531  65.6309509
  20.5689926  28.0538311  66.8146133  43.2315025  62.9691353  88.6207962
  43.6186066  62.4828606  89.3487549  42.3549576  63.2015266  88.9272156
   4.8215175  43.2890053  60.7094307   4.5644426  44.0540009  61.2241402
   4.6366591  42.5431671  61.2802086   3.7376537  22.5710049  12.7860699
   2.9805610  22.0562725  12.5066175   3.5051813  22.8836594  13.6603899
  84.7362671  46.3243370   4.4765759  84.0222168  46.0342674   5.0442204
  84.3115997  46.8782501   3.8215439  74.4223328  10.4754133  54.2150650
  74.7457886  10.6037865  55.1067619  75.2125015  10.4454250  53.6756477
  33.2994652  48.3380394   1.2884153  32.9208679  48.2563705   0.4130718
  33.9548569  49.0303345   1.2022688  80.1946564  61.9328461  27.1553726
  80.4216309  62.4816856  27.9060326  80.5484009  62.4021873  26.3998470
  32.4568520  54.6150665  29.9152050  32.9638901  55.1444626  30.5307426
  33.1151390  54.1963615  29.3606091  49.6584702  41.1229095  58.1121140
  50.5431480  41.3574181  58.3924408  49.1574097  41.0632133  58.9255066
  49.2242661  14.8560915  11.0668850  50.0976677  14.9073811  10.6785889
  49.0686722  15.7308989  11.4228802  80.5794373  26.3726387  62.4357491
  80.5199051  27.1340771  63.0127220  81.5186462  26.2071514  62.3537025
  42.2846031  44.4294968  80.2768784  41.5002823  43.8892975  80.3730774
  42.7830505  44.2730293  81.0789337  45.5304832   4.2083263   2.7596083
  45.5644836   4.7931280   3.5166306  46.3700523   3.7488189   2.7740262
  56.0743027   5.8394594   2.6394119  55.1736450   5.5207291   2.5805862
  56.1491089   6.4782157   1.9304507   7.2564178  67.4571762  31.8666534
   7.0675373  68.2929001  32.2934151   7.1329441  67.6314240  30.9335804
   2.5891845  38.7429962  10.5677347   3.0051007  38.3215103  11.3197937
   2.1783640  38.0242424  10.0872660  49.0952187  58.2679214  31.2494678
  48.9981689  57.6698036  31.9904613  49.8995209  57.9831886  30.8155823
  66.5529099  61.5821495  27.4101181  67.1797791  60.8687630  27.5299091
  66.8337936  62.0149536  26.6038818  30.7722626  30.4156475  38.1718140
  31.4309731  30.9981728  37.7936668  30.5261421  29.8336582  37.4528236
  46.0221367  45.5669250  81.5000381  46.0634003  46.2654266  82.1531982
  46.4376602  45.9407768  80.7229843  74.0545807  56.0065651  40.2908478
  73.4098511  55.7562294  40.9525795  74.1354752  55.2343369  39.7310715
   7.6645498  12.8560009  54.3989182   6.7870417  12.7135506  54.0440674
   8.1974430  13.0818796  53.6365280  12.4507046  24.8935223   0.4773739
  13.0601406  25.5324745   0.1078368  12.5143299  25.0214233   1.4238541
  43.9113388  40.7486229  53.0195580  44.1330643  41.6562309  53.2276878
  44.5224037  40.2273407  53.5402260  52.7763062  17.1991997  84.0120621
  53.3350983  17.5267506  84.7168274  52.2012024  16.5636330  84.4381332
  71.6638031   5.2641582  79.5180511  71.3588638   5.3585520  78.6156464
  71.9466248   6.1436477  79.7685318  20.1374836  20.6250668  57.9035034
  19.8011017  19.7290287  57.8894730  19.3765640  21.1697388  57.7021027
  69.1023254  42.3947792   2.3934240  69.5881271  42.0159416   3.1260295
  69.2582397  43.3365479   2.4640920  32.7795677   2.1733129   9.0826616
  32.3552856   1.4849244   9.5948496  33.6758461   2.2029805   9.4173784
  82.9960861  68.0123596  55.9872742  82.9397812  68.1717758  56.9294243
  82.1172104  68.2025833  55.6592255  71.0946045  69.7538528   2.8289542
  70.8789291  69.0680695   2.1969612  71.1347885  69.2998276   3.6706660
  21.3155384  45.0731926  48.0102043  20.7010098  44.3585701  48.1772423
  21.8478661  45.1218414  48.8042412  19.7891216  31.0007572  87.2976837
  19.4461956  31.8924847  87.2388763  19.5483875  30.7090683  88.1770020
   8.7434120  41.1393547  62.7024040   9.3983717  40.4454193  62.6268158
   8.8259106  41.4493599  63.6042480  26.4189129  48.8775940  20.0363102
  25.6556988  49.3063469  20.4234886  26.8927956  49.5835075  19.5965939
   3.7379785  11.1636086  59.3729210   3.7833574  10.4889164  60.0503883
   3.1505818  11.8271694  59.7346992  83.2305603  66.7909622  46.0865517
  82.7238007  67.2464218  46.7588501  82.8157272  67.0435562  45.2617264
  63.2664528  34.8728561  59.8736649  63.7039146  34.0832214  60.1920013
  62.9123497  34.6229515  59.0202065  59.5936661   8.0300989  58.6769066
  58.8072357   8.0357103  58.1312637  60.0293884   8.8587437  58.4775925
  74.1164017  35.4901314  84.5763092  74.5966873  35.8675461  83.8393478
  74.5058441  35.8976860  85.3499146  65.5156708  66.6524124  56.7156525
  66.0946426  67.2070007  57.2385864  65.2464218  65.9556885  57.3142395
  41.1992149  54.9665718  21.6312332  41.3474350  55.8879318  21.4182568
  40.6139069  54.6525803  20.9419899  67.5576248  17.3791161  75.2534790
  67.0776825  16.6102600  74.9456711  67.6897583  17.2206154  76.1881714
  38.8739395  70.3800354  78.4235229  39.6705933  70.8787231  78.2422028
  38.3710861  70.9390106  79.0159073  68.4335175   4.7594419  49.3975754
  68.1548004   5.3248324  48.6772385  68.6383591   5.3638539  50.1109886
  55.3950310  50.4742966  46.2043381  55.5761795  50.5056305  47.1437187
  54.9265327  49.6491814  46.0781479   0.3869563   0.7587103   9.4898930
   0.3169509  -0.1882273   9.3688955   1.2494973   0.9817734   9.1398964
  53.2091484  20.4165993  11.9360170  54.0717201  20.6310921  11.5807848
  52.6503906  20.3180180  11.1651049  25.7569637  15.9975615  46.4347076
  25.5681210  15.1533823  46.0249138  26.3390770  15.7848139  47.1641731
  35.8237610  16.3518505  10.6793327  35.2027550  17.0650940  10.5314550
  36.4898071  16.7294388  11.2538252  11.2028627  65.8189240  10.7830305
  11.7993736  65.3753586  10.1799946  10.4201670  65.9936600  10.2604542
  65.0499191  22.1448097  12.4994898  64.3067856  22.2363186  11.9031639
  64.9087067  22.8196430  13.1634855  59.5075378   8.2453117   7.2382078
  59.3716125   9.0942335   6.8173900  60.1396141   7.7976580   6.6757846
   1.3982496  28.2152653  64.5937881   0.5704567  28.0466251  65.0438461
   1.9278656  27.4369450  64.7668686  45.6681252  41.6677704  77.9104538
  46.2521248  41.6234207  77.1533508  44.8213959  41.3703384  77.5775604
  82.5023956   2.1697960  71.4458618  83.3741608   2.0321627  71.0752869
  82.0462723   2.7018673  70.7938766  66.9609451  56.7388382  63.8546410
  66.3149872  56.0904770  63.5742950  67.6999512  56.2193108  64.1711578
  73.9201508  40.8444328  29.3525429  73.1608200  40.4138985  28.9597454
  74.0190353  40.4234352  30.2064838  27.5325317  68.8933868  40.9675484
  27.7220554  69.3913879  40.1723671  27.1190567  68.0891800  40.6536636
  48.9364471  16.8012905  30.1906834  49.0251465  16.5011253  29.2861023
  49.1149635  16.0237522  30.7196407   6.2090364  55.3991814  48.7097511
   5.3491373  55.4327126  48.2906075   6.1534429  56.0365028  49.4217644
  57.7646675  58.6628342  84.1472855  56.9112701  58.4921227  83.7487793
  58.1297836  57.7936668  84.3130188  62.1695290  10.4963760  19.9571171
  62.3451805  11.3151236  19.4934025  63.0362473  10.1561079  20.1790371
  47.7057037  21.3444633  87.5452118  47.5131302  22.2602367  87.3439407
  48.6351204  21.2443142  87.3393402  34.4061508  27.9316444  87.3220596
  34.0566673  28.8034554  87.1375656  34.1027870  27.7346001  88.2082748
  24.6221638   0.5926678  17.4350529  25.2707767   0.0185933  17.0276566
  24.4597664   1.2725811  16.7811604   2.7504303   6.1294370  23.0678921
   3.3093555   5.7237749  23.7306671   1.8917537   6.1943650  23.4858513
  23.2741909  49.5449867  23.2722626  23.6243038  48.8332329  23.8080406
  23.3140640  49.2118721  22.3757820  25.4130135  15.5767717  82.6632004
  25.0757179  16.2787647  83.2196808  26.1448574  15.2090921  83.1586304
  33.2444992  25.0950699  17.7942715  33.6299210  25.2040825  16.9249039
  33.8844681  25.4839458  18.3904648  65.7312851  70.3660583  69.4101257
  65.9735184  69.7291107  68.7379303  66.5582809  70.7800751  69.6569061
  18.3906116  35.3269043   0.4400253  17.5933857  35.4146996   0.9624740
  19.0096951  35.9352150   0.8436706  75.9844894   5.6731105  64.0356216
  75.0384903   5.6259003  64.1738129  76.2727661   6.3934927  64.5961304
  57.7264671  36.2993813  11.2002153  57.0837822  36.7124405  10.6235285
  57.2909317  36.2551193  12.0514393  13.0545282  59.7289734  60.7806396
  12.7355518  58.9772186  61.2799911  13.8381882  60.0137177  61.2507782
  73.5876160  14.2098408  83.9269257  74.3873444  14.1687250  83.4025421
  72.9066849  14.4674015  83.3054504  68.8219070  29.3780289   1.4756413
  69.7703629  29.2610970   1.5303662  68.4729919  28.8417416   2.1876004
   4.0249772  55.3581085   4.6083393   3.5004458  55.1642876   5.3852124
   3.4004371  55.3264236   3.8836482  80.6962662   7.6239457  41.9536247
  79.9384842   7.9529572  42.4371033  80.3483887   6.9089036  41.4207764
  60.4475784  59.3236122  43.0899086  61.0722275  59.1021194  43.7805519
  60.7519379  58.8341408  42.3256989  59.4938240  42.6383247  51.9226036
  59.4298286  42.9421730  52.8280373  59.6954536  41.7055397  51.9966774
  85.2945862  45.0973473  10.4480076  86.1612854  45.3955688  10.7239189
  84.6864471  45.5707207  11.0157337  55.4988403  46.2825890   9.6237612
  54.8289299  46.1575127   8.9515934  56.1880264  45.6593475   9.3939390
  20.9260712  19.9090538  16.0635242  21.5184975  20.3892727  16.6420174
  20.3076229  19.4812107  16.6557236  30.1401424  59.2714157  37.2290726
  30.1226254  58.3341217  37.4224892  29.5863209  59.6654472  37.9030533
  29.0168953  44.6496277  69.2367249  29.0159111  45.1896667  68.4464188
  28.4507198  45.1197853  69.8487930  50.9519501  31.9109116  25.8250790
  51.1375771  32.8374557  25.9776993  50.4433098  31.6395149  26.5891876
   5.7983489  34.4405899  72.7629547   6.3105035  33.8929176  73.3579254
   4.8965564  34.3505363  73.0710068  17.4457626  69.1124268  19.3025990
  17.3587666  69.2699509  20.2427330  16.5718842  68.8389740  19.0236912
  20.9717941  11.8899765  68.6956177  21.0279942  12.7181377  68.2189407
  21.8291950  11.4831333  68.5708237  15.2305927  58.1514397   4.4035540
  14.3488302  58.5216789   4.3629317  15.4902124  58.2510223   5.3194757
  73.3139191   4.4025712  74.5129471  73.6393814   4.4407310  73.6135864
  73.0192413   5.2940655  74.6990509  10.8970518  36.1457787  73.1292114
  11.0845451  36.6200409  72.3191757  11.7467861  35.8062859  73.4101562
  12.5416956  39.4754143  59.9298973  12.9261827  38.6042671  59.8324127
  12.2991304  39.5280762  60.8543549  74.9069061  21.8176346  25.0493584
  73.9546890  21.7621613  24.9691238  75.2089844  20.9152985  24.9455738
  69.1228638  20.2444954  47.9321556  68.3264389  19.7413139  48.1016922
  68.9692001  20.6569366  47.0821495   4.9491510  66.5727081  10.9441490
   5.3848572  66.9717407  10.1910477   5.0669928  67.2059021  11.6522512
  48.1954041  50.6325150  40.6007462  47.8186455  51.0680122  41.3653526
  47.5914574  49.9141693  40.4124565  39.2605896  23.2100677  69.0285034
  39.1653595  24.0878162  69.3982544  38.9405785  22.6249218  69.7151108
  75.8434677   1.6397648  15.8530951  75.9526367   1.0873280  15.0790615
  76.7334976   1.7748128  16.1784306  86.2279892  52.0319786  79.1810455
  86.4883881  51.1556435  78.8973999  87.0459442  52.5285072  79.2062073
  83.3195114  46.0182610  59.5346031  82.7451782  46.5237160  60.1098289
  84.1621170  46.0054855  59.9885712  46.7514801  46.4846077  51.0937309
  47.1115341  47.1172943  50.4722023  45.9247665  46.2058678  50.6999359
  48.4628944  29.2084942  59.2152596  49.3954506  29.1398888  59.4198799
  48.1942024  28.3110924  59.0185204  11.2768259  43.1742668  84.1490936
  11.9390984  43.6707268  83.6683044  10.5115728  43.1764793  83.5741043
  22.5055141  24.8428688  79.9102859  22.8073635  24.0657578  79.4399490
  23.2656975  25.4243679  79.9248123  85.6590958  21.3133583  21.7816105
  86.3613434  20.6753445  21.6550369  85.4277802  21.2344894  22.7070866
  10.1351557  34.0948448  81.6570663  10.4471235  33.5074768  82.3454742
  10.9031096  34.6144295  81.4193420  52.0413475  65.2507706  62.4519730
  51.6589699  64.3935623  62.6396141  52.5238609  65.1241608  61.6350365
  10.2646942  36.7219505  41.6898766   9.9132004  36.0514793  41.1040878
   9.5441275  36.9186478  42.2884789  35.8807831  15.8227987  77.0095444
  35.5014992  15.9764462  76.1442337  36.7481995  16.2251682  76.9657288
  26.4437084  44.9645615  77.8967896  25.6904316  45.3222504  78.3667526
  27.2035217  45.3466606  78.3360062  33.3506165   0.3442164  36.6572800
  33.8895988   1.0719835  36.9672508  33.1328125   0.5751282  35.7542419
  78.5396576  62.2587509  30.9837933  77.6928101  62.2123489  30.5400410
  79.1174088  62.6882629  30.3529530  70.6416092  66.9710999  55.3238907
  71.4296646  66.6960373  55.7924500  69.9262772  66.5214691  55.7737465
  24.6420689  42.8080597  22.2306232  24.2247906  43.5916557  22.5885143
  24.8269444  42.2642174  22.9963188  82.8408966  69.1444321  58.6871758
  83.1327515  70.0558624  58.6685371  82.3038483  69.0810165  59.4769783
  49.1676636  27.9751968  20.8570290  49.6097679  28.3927345  21.5962429
  48.8151665  27.1614647  21.2173347  39.3067207  35.3036003  60.6284676
  39.8599434  35.4686432  61.3919716  39.2641678  36.1464767  60.1768265
  71.2942505  29.4718475  27.2685394  71.3651276  28.7313118  26.6661968
  72.0887756  29.9829121  27.1143303  57.4161530  10.5075111  42.4167862
  57.5246239  11.4501457  42.5429039  58.1633911  10.1176109  42.8704796
  11.0056047  48.0768967  29.8087349  10.4187841  47.4419785  30.2195301
  11.7376652  48.1570053  30.4202099  46.6369324  40.2827072  51.6885071
  46.1617889  39.4839821  51.4593468  47.0398369  40.0873375  52.5345154
  50.4558868  24.8832359  45.3470306  49.9188004  25.1045799  44.5862579
  50.6834183  25.7287598  45.7337494  16.7943802  15.0337477  81.5852890
  16.8803806  15.2378311  80.6540604  16.5533104  15.8662052  81.9916534
   4.1365123  62.5055695  28.2334309   4.2098227  62.8906136  29.1066990
   3.8667419  61.6010323  28.3923759  73.5826721  21.6861877  53.9528770
  73.3883667  21.2481327  53.1242752  72.8077927  22.2197742  54.1291771
  43.5795975  67.9504395  34.7225914  43.0802307  67.9641800  35.5390968
  44.1304359  68.7320786  34.7655449  68.4913406  44.4871407  85.8021469
  67.9276581  43.8438263  85.3724518  68.8544922  44.0219421  86.5557709
   8.7079067   6.8090153  33.7514153   9.3422308   6.0985317  33.8466911
   9.1619587   7.4663773  33.2242088  58.9422836  57.1780510  24.6554127
  59.6347351  56.8969116  24.0573273  58.8865814  56.4763718  25.3040829
  74.5041885  -0.0120952  81.9072723  75.3900299   0.3422405  81.9844818
  73.9416351   0.7601088  81.8484344  85.4951096  69.8442383  19.9272938
  85.2059326  69.1482773  20.5174179  84.7633896  69.9644623  19.3220215
  56.9313736   2.8120081  73.2322235  57.1831284   2.5277095  72.3535767
  56.0040398   3.0362816  73.1548767  65.8866196   2.3686771  83.6685410
  65.1491547   1.8430818  83.3585052  66.4728470   2.4273360  82.9141388
  37.0423622  51.0730400   8.4194851  37.6592216  51.7151146   8.7708521
  36.1925659  51.5120049   8.4567633  32.8506699   6.6442337  29.4637299
  32.5277672   6.0004292  30.0941925  32.2048721   7.3502593  29.4903030
  79.2813644  61.6806526   4.3585677  79.4997482  60.7851219   4.1005611
  78.8705750  61.5888023   5.2182460  75.9555588  28.7891769  88.4655457
  76.2434006  29.6930561  88.5935135  76.5843658  28.4233685  87.8434372
  77.4803696  43.4936104  32.6808701  78.1998444  43.1779900  33.2276535
  77.2022705  44.3089485  33.0981483  28.5875206  54.4161949  22.4810295
  28.6993217  54.4841003  23.4292507  29.1311684  55.1189041  22.1248264
   2.0224893  30.4450169  19.7317257   2.6696613  31.1366405  19.8697662
   1.7236025  30.2174892  20.6121387  50.3373337  37.0824966  67.1256866
  51.0183792  37.6948051  66.8473206  49.5349770  37.4191628  66.7268066
  58.5425377  66.6737061  73.3774872  59.0875893  65.9088898  73.5624161
  57.6883049  66.4546967  73.7497253  23.6014900   3.7988620  75.2509842
  23.7747574   2.8693326  75.1020355  24.1276340   4.2494330  74.5903854
  77.6554871   2.9313426  73.1515121  76.8532257   2.8659880  73.6695175
  77.3794022   2.7341354  72.2564621  17.2732849  57.1600761  43.4408607
  17.1012001  58.0929756  43.3131447  18.1736183  57.0391045  43.1392021
  11.4732294   5.0856738  12.0422792  12.2473488   5.5398569  11.7095814
  11.0254164   5.7383962  12.5804701  66.0052414  20.2160034  42.7842865
  66.2304230  19.5098000  42.1786423  66.1214218  21.0165462  42.2725601
  12.7621241  16.1910706   1.3836238  12.0957937  16.1066246   2.0656099
  12.8357153  17.1339684   1.2361115  37.4629288  44.6815567  29.0126133
  36.7645721  44.0464096  29.1710873  37.0917091  45.2916527  28.3752651
  41.5916290  48.5999680  34.2244301  41.1183891  47.8530045  33.8579330
  41.0294495  48.9160118  34.9317551   7.4579072   1.4649309  71.6741104
   7.9088502   0.6494877  71.4551697   6.7649865   1.2004304  72.2791977
  42.7550240  46.7393456  79.0165710  42.8892097  45.9892578  79.5958710
  43.4847527  46.6981773  78.3984833  29.0625782   5.7016568  33.7784348
  28.5628395   6.5114155  33.8822823  28.3972416   5.0203238  33.6817627
  38.8417244  54.8246002  78.0867004  38.3319435  54.6880836  78.8852692
  38.1927299  55.0698471  77.4272385  32.8916321   3.8401411  53.4653702
  32.6766205   2.9883070  53.0853958  32.1042290   4.0930495  53.9473114
  18.3351421  32.7131691  12.7950697  18.0636368  32.4406281  13.6715603
  17.5189819  32.9488335  12.3539629  80.0334473  11.2863340  36.7569695
  79.1766052  11.3213863  37.1821976  79.8377304  11.0992794  35.8388557
  58.2949638  12.4318123  69.0783463  57.3945923  12.7543240  69.1177444
  58.8156395  13.2022772  68.8513794   5.2199192  69.7010651  69.9046173
   5.8024564  70.0371628  69.2235031   4.5509458  70.3785324  70.0033569
  51.0278435  65.2922821  70.7083435  51.2051544  65.9000092  69.9903946
  51.1260719  64.4242172  70.3171310  30.0557213  51.5577774  52.1420059
  29.7698879  50.6442642  52.1464844  29.2563858  52.0580444  51.9776039
  36.6379967  71.5583191  68.3980789  37.0129204  71.5164642  69.2778015
  36.5535126  70.6433334  68.1299515   4.6289592  20.3546791   4.5920367
   5.3608007  20.1352768   5.1686668   5.0343623  20.5096378   3.7388852
  66.3261261  20.6413288  49.2298698  65.4972382  20.9937572  48.9058647
  66.7918625  21.4031887  49.5746689  72.0963287  48.1846352  71.7749863
  72.2646027  48.1892929  72.7172623  72.3956757  49.0425491  71.4739761
  48.6065216  23.8462105  32.9645309  48.7307053  22.9135342  33.1403885
  49.1208191  24.0115051  32.1743393  70.9712372   1.2406470   2.0826011
  70.1845779   0.7157090   1.9348065  71.1139145   1.6970391   1.2533953
  20.7962532   1.1241244  58.5774040  20.0756721   0.5590796  58.8561859
  20.5882626   1.9800034  58.9521637   0.4257632  53.5604286  23.0797901
   0.0416896  52.7769699  23.4733753   0.0893304  53.5678139  22.1836929
  50.9688911  55.7736206  13.3362932  50.0646439  55.8493004  13.6409950
  51.2912941  56.6746826  13.3168716  37.0514107  70.5509491  56.4101448
  36.7256660  71.3950272  56.0976448  36.2801704  70.1166077  56.7745285
  61.2472153  43.1734238   9.4887571  61.0251541  42.9118614  10.3823490
  61.4200058  42.3491402   9.0338612  14.5764818  66.5682907   1.7267536
  14.4440365  65.6458740   1.9454783  13.9592237  67.0383835   2.2873201
  80.8997574  55.4821854  66.0908432  81.4067154  55.5012054  65.2791367
  81.5255585  55.7337799  66.7700348  77.0312653  23.1881561  73.0352631
  76.7372055  24.0903111  73.1612549  77.3175507  22.9060230  73.9039764
   8.9307804  34.4809189  70.2100372   8.5409775  34.9242554  70.9635239
   9.8568907  34.7205124  70.2439041  54.9292946  34.0827713  65.0571518
  55.5806961  34.7824936  65.0092621  55.4417191  33.2883682  65.2073975
  40.0827751  66.2982178   3.8330214  40.1802635  66.6372375   2.9431939
  39.1993752  66.5591660   4.0933018  23.6305866  64.0235825  65.7688828
  22.9112720  63.4408607  65.5254593  23.8892384  63.7324524  66.6432877
  65.2584229  67.1678314  86.7307358  65.6864548  67.7115097  87.3921204
  65.9583435  66.6120758  86.3879776  73.9448624  40.5881882  66.9388351
  73.7749786  39.7243462  66.5631332  74.2105255  41.1258163  66.1927719
  22.7892437  70.5402451  40.2462044  22.1165962  69.8688126  40.3600006
  22.3385296  71.2577591  39.8009338  67.9563293   3.8085406  45.6333122
  67.6959534   2.9693272  46.0129929  67.1303101   4.2624254  45.4662514
  32.4608269  12.5285645   5.9139733  32.5998344  11.5815821   5.9024630
  32.8993378  12.8253365   6.7113862  60.2569199   6.6657567  42.0757790
  60.5197487   5.7613263  41.9050255  59.5295563   6.8215995  41.4733772
   8.2142191  28.0219574   7.7677298   9.0543404  27.8102589   8.1746836
   8.0428305  27.2887344   7.1767635  34.9036522  13.5900850  10.3035707
  35.5763092  13.3451319   9.6681452  34.9971008  14.5380344  10.3978643
  81.1957779  28.1317635  64.9633255  82.0725784  27.8343296  64.7204514
  81.2907486  29.0751171  65.0948410  48.9903030  68.1994095   8.3278160
  49.5526390  68.7661591   7.7997971  49.5832024  67.5367279   8.6821508
   1.0980765  67.4046478  60.4078712   0.3920642  67.5693130  61.0329056
   1.8570964  67.1974411  60.9530182  80.1308060  44.8026886  19.9153137
  79.9247055  44.0458527  19.3667259  80.7868881  44.4793739  20.5327797
  42.2648239  13.3857841  10.7228088  42.3795776  14.0653477  11.3870811
  43.0913773  12.9030819  10.7287016  41.9554749  19.7982807  75.8748779
  41.2746735  20.2419739  75.3690338  41.6629295  19.8686523  76.7835541
  58.4088402   1.3596700  75.1035919  57.9654770   1.7290351  74.3398972
  57.7494087   1.3812674  75.7970734  74.4279251  47.8721962  26.4094143
  73.5349197  47.6279373  26.1662903  74.3608932  48.1450691  27.3244438
  10.2645674  38.1908417  54.9664040   9.6142807  38.8917236  55.0125198
   9.8991461  37.4892349  55.5053329  19.3284073  45.3432503   4.9643908
  18.9175873  45.6684532   5.7654533  19.0977001  45.9898567   4.2973785
   9.4705496  48.4080505  38.4532166   9.0916405  48.9529419  39.1429634
   9.6337910  49.0148468  37.7311478  74.3794479  28.6034660  15.5403042
  74.1265640  27.9428215  14.8954544  73.8060989  28.4391823  16.2889786
  28.3197365  52.6313972  43.0720329  27.6007175  53.2128830  42.8248138
  28.7704201  53.0946007  43.7781181  43.9894905  49.9054070  53.7924652
  44.5427322  49.7510033  53.0267525  43.4675255  49.1073723  53.8756638
  33.5402489   2.0036590  31.5107975  33.1839638   1.1335238  31.6901207
  32.9165421   2.3966987  30.9002743  84.2734222  28.4749260  25.1027069
  84.9470139  28.6929283  25.7469006  83.8118286  29.2995281  24.9504261
  36.0155373  11.3420105  69.6947098  36.8609772  11.7068653  69.4332886
  35.8640556  10.6241589  69.0799179  86.7754364  49.1494942  79.0903854
  86.6303711  49.1128960  80.0358200  86.2249832  48.4509850  78.7363815
  72.8571320  50.9053001   7.8283124  72.7430573  51.0075607   6.8834519
  72.1761246  50.2839317   8.0859241  39.3436470  51.3878822   1.4867725
  39.1646881  51.8868866   0.6897787  40.2536240  51.5948639   1.6996921
  42.4795151  45.1923714  75.1973572  42.6322250  45.0603065  76.1330261
  43.3554611  45.2825317  74.8220978  53.1915665  34.3613129  78.5787125
  52.3326836  33.9776802  78.4015808  53.7525368  33.6114769  78.7769394
  20.9200420  14.3178358  49.5562973  20.1329250  13.9158287  49.9238129
  21.6213017  13.6977062  49.7560654  40.5539474  49.9796181  48.0977974
  40.9001694  49.0955200  47.9764214  40.6077271  50.1304359  49.0415077
  83.7735825  17.2729969  19.7909870  82.8398972  17.4640675  19.8801498
  83.8363190  16.7538052  18.9892788  24.4762859  10.8150978  64.8902054
  24.9809017  10.5894823  64.1087418  24.7816601  11.6905546  65.1280212
  40.1998024  14.2200394  71.7586670  39.3942642  14.1197472  72.2658997
  39.9079742  14.5480080  70.9080811  50.2178917  69.2921143  32.8120346
  50.1053009  68.6530838  32.1083374  50.3415298  70.1267853  32.3600731
  55.7814941  27.6854305  58.0721817  56.4290428  27.7418194  58.7748451
  56.2553291  27.9602032  57.2871895  50.3351936  14.6456833  31.2987118
  50.7186737  14.0853968  30.6239853  49.9124756  14.0365286  31.9040813
  75.6440735  49.3893929  79.2339630  75.4749451  49.7885056  80.0873947
  76.2229614  48.6514473  79.4251633  67.1565247  70.2581329  65.8967361
  66.9980545  70.8682404  65.1763992  66.2914886  69.9068604  66.1077957
  65.4506607   4.8031273  34.6892853  66.2501373   4.9780469  35.1857376
  64.7704620   5.2946348  35.1496964  35.0173988  33.8934135  14.7201843
  35.4410439  34.7372169  14.5628510  35.5035782  33.5141258  15.4523067
  48.3936195  19.2091274  66.1128845  47.5394707  18.9799118  65.7466583
  48.6421013  20.0128803  65.6563034  32.8294029  46.6123428  63.3454361
  32.1106339  45.9805603  63.3666916  33.5813713  46.1092072  63.0329781
  58.8142548  11.4552326   3.8391435  59.4456558  11.0811443   3.2246330
  57.9597511  11.2251654   3.4742858   9.9692802   3.2877462  10.4380064
  10.3607121   3.9381094  11.0211353  10.6576986   3.0903339   9.8029156
  85.6733017  63.2823868  76.0243454  86.5563660  63.3290215  75.6579285
  85.7793655  62.7999382  76.8442383  33.4174843   9.1493263  72.6977921
  32.8360252   9.3660774  71.9689865  32.8338432   8.8136759  73.3781815
  18.7286949  42.7649307  20.2654285  19.5566311  42.3677673  20.5356445
  18.4147472  43.2195320  21.0470982  29.2143021  54.3781853  25.0255527
  28.5684128  54.7831230  25.6044178  29.7243690  53.8060265  25.5988770
  20.2721996  34.3644218  73.5868683  21.0845890  34.8656883  73.6575089
  19.5878887  35.0281944  73.5010986  67.0605011  14.4430780   7.4673047
  66.3750610  14.5386353   8.1285686  66.6235123  14.0186729   6.7289624
  35.5400238  60.2790031  14.5592794  35.0502243  59.5213242  14.8790503
  34.9268494  61.0100708  14.6353407   5.7458315  29.2053547  69.8049469
   5.6086617  29.0017433  70.7301254   4.9582214  28.8802414  69.3688202
  50.5410728  47.1926575  45.1344566  49.6401405  46.8828278  45.2269707
  51.0456734  46.6448517  45.7357216  65.0115585  55.3713989  37.5556526
  64.3267746  55.9866982  37.2935371  65.3502960  55.7259789  38.3777008
  54.3796997  66.3516769  85.8781357  53.4755287  66.3399506  85.5641861
  54.3137474  66.1286545  86.8066559  48.8233643  20.8506756  33.1981735
  48.4859047  20.2741547  33.8837204  48.8305931  20.3071918  32.4102631
  27.4910069  68.9169846  58.7688866  26.9865894  68.7696457  59.5689392
  27.0009441  69.5906143  58.2974091   7.0942202  43.4491653  46.6449013
   7.8484111  43.5835342  47.2188110   6.9677138  42.5004272  46.6338043
  48.4274254  54.2437706  66.9842224  48.0909729  53.6013680  66.3594437
  48.0605469  55.0778694  66.6911087  68.5010986  50.4578552  13.1499939
  68.3986816  50.8757401  12.2949409  67.8301239  50.8653908  13.6976585
  47.0146332   9.6003752  29.5375786  46.1018295   9.8531590  29.6758671
  47.4877930  10.4307871  29.4849701  52.8499603  45.4751472  52.1186562
  53.5488815  45.3838806  52.7662773  52.6786041  44.5808411  51.8235588
  78.0511169  26.2405491  64.1139679  78.8477631  25.7557869  63.8981094
  77.3563080  25.7820454  63.6414757  74.2093430  50.7276230   2.0330639
  74.1059113  50.5365143   1.1008563  74.2828979  51.6810532   2.0753763
  33.2829857   1.1191690  27.9369202  33.3002472   1.6174299  27.1198101
  32.7735329   1.6625696  28.5380898  33.8323288  67.3934937  44.7046776
  33.2071419  68.0080643  44.3203926  33.2879562  66.7014618  45.0801620
   6.5456424   1.6414617  66.9681778   6.3453956   1.9296920  67.8587112
   7.4866529   1.7895709  66.8743896  77.0113068  64.3570023  73.2184982
  76.8966217  63.9400673  72.3645401  77.3677673  63.6658211  73.7765656
  17.9799442  13.3853178  58.2895775  17.8242321  13.8470583  59.1134605
  17.2848110  12.7285891  58.2479935  64.4785461  68.3476410  13.2019730
  65.2580109  68.1182404  13.7079821  64.5075912  69.3021851  13.1369085
  73.9661713  11.3817711  28.7979450  74.6910248  11.8806820  29.1746521
  73.3526688  12.0478163  28.4877262  77.3208008  37.0311813  28.7824306
  76.6911621  36.3106232  28.8065701  76.8411560  37.7549782  28.3795757
  75.0622177  65.4117661  63.6798172  74.1602097  65.2018661  63.9217949
  75.5903244  64.7509918  64.1278305  22.9456291  31.2756767  18.5334377
  23.8464203  31.5989513  18.5508385  22.9871368  30.4793396  18.0039501
  75.6820297  14.6916571  49.1714211  75.4916306  14.7951298  48.2390747
  75.3873138  13.8049545  49.3790970  51.2594986   7.5765443  35.4822540
  51.9485130   6.9121022  35.4806137  51.3604774   8.0242271  36.3222618
   6.7144766  50.2525024  22.1168404   5.9139142  49.9610863  21.6804829
   6.6383877  51.2062607  22.1448784  56.0477066  66.8388443  10.3087387
  55.7308655  66.3821182   9.5294809  56.7667351  67.3847733   9.9906216
  27.3833256  70.8257523   4.3915458  27.2286568  70.0831909   4.9754252
  28.3288269  70.8203201   4.2424474  49.4323425  65.5080566  80.1222916
  48.7096558  65.5580750  79.4966278  49.4380569  64.5948563  80.4091110
  40.8054428  48.1061859   4.8338552  40.5436325  47.7208862   3.9976542
  40.6330605  49.0420723   4.7307634  80.4714813  33.5715332  55.7553902
  79.5164261  33.5641785  55.8190536  80.6928024  32.7209740  55.3761902
  12.5064621  71.0377121   3.2468784  13.0046015  70.7415466   4.0087004
  11.5993471  70.8098755   3.4505110  67.2923431   6.7614756  31.5255909
  67.9898911   7.0295062  32.1237717  66.6133575   7.4270935  31.6358585
   4.0515914  52.6316147  31.6613483   4.9656472  52.3478966  31.6459312
   3.6681559  52.2471924  30.8730392  27.0178261  10.4255285  50.9907646
  26.1332817  10.6740570  50.7223434  26.8893185   9.8946543  51.7768211
  36.7022362  41.5734863   2.2547481  37.3559113  41.2088852   2.8514116
  36.9721642  41.2685966   1.3884838  51.6638145  42.1164703  73.7869339
  51.2676506  42.9409103  73.5048294  51.3384209  41.4682808  73.1622772
   8.5171719  41.8165169  10.7347727   8.5987787  41.6193466  11.6678839
   9.1330147  42.5342178  10.5868721  26.7718601  41.5451317  61.8667946
  26.9654732  41.0113029  61.0962296  26.6307640  40.9099884  62.5688782
  71.6076355  28.3211040   2.1297174  72.3692398  27.7423477   2.1648197
  71.2560883  28.3086185   3.0199389  60.0948639  47.6964836  41.4445305
  59.9709625  48.5865440  41.1148720  59.2069626  47.3646278  41.5777016
  60.0074539  29.3447285  70.0895844  60.6058731  29.5511112  69.3715744
  59.1522484  29.2525806  69.6696243  45.9172707  30.9226665  57.2293816
  45.0559311  31.3377132  57.2748032  45.7564964  30.0102959  57.4701385
  13.5019255  22.9608612  63.5622063  13.1168194  23.8368111  63.5874596
  14.4198751  23.0959225  63.7974930  37.0244980  69.8663254  24.9454575
  36.9209366  70.7886887  24.7114506  36.9303627  69.8488235  25.8978558
  72.5606384  24.0585957  66.4513931  72.4701996  23.1152077  66.5858231
  71.6756897  24.4034233  66.5705261  76.1258392   4.9439073  67.9626160
  76.1515274   4.3424702  68.7068253  75.5334015   4.5262442  67.3374710
  35.0228348  48.3547707  73.4199753  35.1989822  47.8139381  72.6501083
  34.1496887  48.7150497  73.2649002  39.1837807  32.6123619  60.3502007
  38.7148781  33.4426041  60.2661972  38.5466919  32.0162430  60.7438965
  78.0069962  31.0622025  49.2414665  78.6787491  30.6977253  48.6651535
  77.5117874  30.3008041  49.5435867   3.7205553  23.9083195  10.3113127
   3.9623916  24.8029995  10.5506773   3.4211929  23.5138340  11.1304550
  42.0706711   2.7714443  64.8003464  42.3107452   3.6280220  65.1537170
  42.6986198   2.1655109  65.1937408  63.5959435  27.9097538  45.5851479
  64.2832108  28.2400551  45.0065269  63.4101639  28.6388321  46.1768913
  42.2010117   4.2332888  20.7665558  41.8792458   3.7751751  21.5429764
  42.6568527   5.0004458  21.1128349  62.0924911  43.3989487  46.0492554
  61.6310844  42.9463081  45.3432426  61.6641808  43.0942802  46.8492317
   0.9110739   7.4626112  73.1163483  -0.0443324   7.5135736  73.0874786
   1.1439677   7.8163872  73.9747391  50.5671730  62.7238235  73.4698410
  51.3907471  63.2115135  73.4805374  49.9115829  63.3543015  73.7680664
  45.6220169   4.1026764  28.6922913  46.4260292   4.0620680  28.1744633
  44.9630203   3.6751063  28.1453571  30.0635891  70.0074158  49.1656876
  30.0697403  70.0461884  48.2092934  29.3090134  69.4581909  49.3782806
  72.4801254  52.5982513  46.0531998  71.9805298  52.1285782  46.7210617
  72.9193115  51.9095650  45.5541382  68.8548813  29.1272755  11.7894535
  69.0996552  29.9824314  12.1430435  69.5115967  28.9496212  11.1161137
  77.8724747  55.2670670  57.4773178  78.3342438  55.4483414  56.6586990
  77.6827469  56.1315880  57.8417931  21.3121777  52.1179085  56.4167213
  21.1476326  51.3694382  55.8431816  21.5215073  52.8359413  55.8193626
  69.4510193  36.5118790  55.1854439  68.5569916  36.4233170  55.5157394
  69.3971329  37.2098389  54.5326195  21.1741314  39.4604912  11.3342848
  21.5220509  38.8321800  10.7015076  20.2454815  39.2395973  11.4053307
  51.8379021  26.8108025   1.7192420  52.5508347  26.6694698   1.0963551
  51.9442291  27.7187786   2.0029798  20.3251209  49.4517822   4.8550115
  19.9077110  49.3226509   5.7066731  20.8684998  50.2313156   4.9703307
  54.3226967  58.7401543  29.8143711  54.7986984  59.4893494  29.4560966
  53.4987907  58.7247200  29.3273640  81.6898727  38.9059296  42.7421646
  82.1248932  39.7251282  42.9786034  81.1964645  38.6620522  43.5252991
   3.2498670  36.2137184  83.2735901   2.5528369  35.6483231  82.9408646
   3.8429911  36.3252182  82.5306244  33.1856079  57.7533188  66.8981247
  33.0318146  58.5610695  66.4081039  32.5537643  57.1308517  66.5382156
  53.4619751  58.5852127  66.9832993  53.1386070  57.6923866  66.8627625
  54.0537262  58.7274132  66.2444916  77.1219635  40.6214218  32.4905815
  77.1605301  41.5429153  32.2344551  76.2520981  40.3323936  32.2148399
  42.8355408  40.8853340  78.0991592  41.9058456  40.9948235  77.8993835
  42.9031982  41.0738029  79.0351791  57.2819405  36.2966995  60.2891121
  57.8291435  36.7650642  60.9195366  57.0375557  35.4877090  60.7386017
   8.6330824  31.0612068  72.9012985   8.4808359  30.4243412  72.2031250
   8.4279652  30.5869198  73.7070389  40.6325073  41.4072876  81.9857788
  41.5214386  41.0812302  81.8453674  40.2138481  40.7366409  82.5253983
  15.2691784  11.7811518   8.8081999  15.4428463  10.8501568   8.6692019
  15.4283180  11.9176512   9.7421570  83.3988876  64.6417923  36.4766731
  83.1557999  65.5506516  36.3002968  82.6602173  64.2881317  36.9721718
  56.5205688  55.6837082   4.3873358  56.5420036  55.2440071   3.5373738
  56.4379234  54.9726715   5.0228128  59.8450851  56.3810883   4.9172401
  60.3162918  55.7483559   4.3751645  59.3624763  56.9205856   4.2909322
  86.4587784  40.5951309  40.0908623  85.6701126  41.0152664  39.7477379
  87.0119705  40.4595909  39.3215561  72.5793686  33.5712357  59.6010551
  71.8335114  33.4783211  60.1937599  73.3238602  33.2319870  60.0979271
  40.8630676  35.6271057  62.7295456  40.4756241  35.3596992  63.5629807
  41.6907043  35.1482315  62.6855659  84.5601807  19.6943951   1.1758337
  84.6725922  18.8428936   0.7532947  85.3629684  19.8183422   1.6822038
  52.6428032   8.6317749  69.5370407  52.6080360   9.3497229  68.9049225
  52.1599350   8.9577503  70.2965240  74.9019623  22.4449806  12.9368601
  74.4577103  23.0485268  12.3413744  75.1805267  22.9936104  13.6700974
  26.7734375  64.2853241  69.0323181  27.6426907  64.0511932  68.7070236
  26.9382725  64.6998825  69.8791962  60.1151428  51.3358116  87.3770599
  59.2357025  51.7137108  87.3739777  59.9756966  50.4032784  87.2122421
  78.2827377  16.4012527   1.4661671  78.5072021  16.8176308   2.2983172
  78.8647766  15.6432066   1.4129602  59.8048096  21.1278000  20.3729191
  60.3703690  20.4124718  20.0819225  60.4044533  21.7635365  20.7634277
  21.5800304  21.6048489  11.9057312  22.4131851  21.4116173  11.4759073
  21.6982498  22.4800892  12.2747955  66.1081772  33.5497742  71.5841446
  66.6662750  34.0302315  72.1956329  65.2947311  34.0534973  71.5558624
  52.7483673  56.9367218  62.6187210  53.0932693  56.1473999  62.2012939
  51.8078880  56.9093094  62.4426956  70.0214920   5.8734612  46.6550026
  70.9192123   5.6139188  46.8622742  69.5912399   5.0594897  46.3931503
  64.3591461  63.4744949  39.0282402  64.5173950  64.2928619  39.4988403
  64.9129486  63.5348740  38.2498512  49.9043922  22.9586029  10.5271330
  50.0686226  22.0586586  10.8088493  49.4392929  22.8681221   9.6954308
  44.8953056  59.4467850  19.8472843  44.3282356  59.7725334  20.5462475
  44.3968697  58.7344017  19.4469051  10.2047110  23.7150288   3.1780453
  10.4229431  23.5133400   4.0879512  10.8873482  23.2811584   2.6661904
  71.8877029  12.1380835  36.6195564  71.5820312  11.3854856  37.1259117
  72.5120087  12.5775843  37.1968880  61.0175629  16.1875515  67.5243759
  60.7876282  16.4900761  66.6458282  60.7675476  16.9105339  68.0997162
  23.0677605  10.4594440  33.3462906  23.5466156  11.1671267  33.7777023
  22.2366714  10.4099226  33.8185921  54.3332710  68.9456635  65.1081085
  55.0714111  69.2086334  65.6578674  54.4327850  67.9986725  65.0104599
  11.8317099   7.6314230  50.5371323  11.7673769   6.6988993  50.7432709
  12.7594585   7.7713685  50.3475800  58.0349808   3.2731605  37.9358139
  58.1130791   3.0579116  38.8652229  57.1017151   3.1780550  37.7455406
  65.8463135  58.6123505  61.5282898  66.0790634  59.4959869  61.8133278
  66.3921967  58.0364342  62.0636063  27.0480423  68.1816711  69.9900436
  27.9427700  68.3747101  69.7099838  26.5101395  68.3723068  69.2215729
  10.3318243  49.2975464  86.4890823  10.4775047  48.4536209  86.9166336
  10.8058243  49.9265938  87.0330048  26.3566017  66.4586563  57.4647789
  26.8479347  66.9697342  58.1079102  26.8748627  65.6629028  57.3447304
   1.5920451   2.2747257  68.0617371   1.9195932   2.3055851  68.9606247
   2.1458092   1.6260922  67.6271667  24.2434387  11.3573456  83.7997360
  24.5574036  11.8413591  83.0359344  24.9515533  11.4335556  84.4392624
  19.2959881  40.6361275  79.5962982  19.7468815  41.4523087  79.3800278
  18.7900734  40.8429489  80.3821106  72.4232330  37.6558609  39.2931480
  72.5758743  36.7109947  39.2805862  71.5018692  37.7528496  39.0524979
  67.2627335  45.6175041  73.3029938  67.9834290  46.1670151  72.9949722
  66.6401138  45.6093712  72.5760040  44.6762238  65.8528671  15.0161829
  45.0263672  64.9674606  15.1146107  44.6122055  65.9812775  14.0697975
  75.7648010  50.8071327   7.1892524  75.4860687  50.6476440   6.2875319
  75.0786591  50.4102135   7.7258043  70.1865845  70.8931046  23.1524334
  70.6557541  70.7517853  23.9747124  69.9595032  71.8229141  23.1629868
  40.0528450  12.2967806  74.7259064  39.4672546  11.7077560  75.2016830
  39.4749641  12.7906389  74.1441956  52.9138374  61.0410957  61.3940125
  53.2131004  60.6490135  62.2143440  53.2152863  60.4367294  60.7157059
  33.8515778  26.3634663   1.0636351  34.6196671  26.0291805   0.6004723
  34.1567039  27.1671772   1.4845587  71.5686569  44.8503342  27.4002819
  70.7489166  44.9414978  27.8860226  72.1443481  44.3646660  27.9909897
  11.9733696  71.4907761  10.7711544  12.8769360  71.7225647  10.5565004
  11.9818840  71.3444824  11.7170715  46.1254921  51.5379677  68.9223862
  46.0930443  51.6388206  67.9710693  45.4801292  50.8572922  69.1132278
  46.5975990  14.9836626  52.0694351  47.2788353  14.6085920  51.5113411
  46.3903198  14.2887526  52.6942291  75.3639679   2.9949906  31.7974434
  76.0374603   2.3319237  31.9490623  75.1195068   2.8823981  30.8788624
  38.4971809  45.3662148  80.4523010  38.1957092  44.8845978  81.2226181
  38.4246330  44.7381554  79.7336121  22.9946346  60.8063278  85.6228714
  23.4035816  60.8779793  86.4853439  23.5109577  60.1413002  85.1674805
  70.0910492  50.1149025  88.2741547  69.6433411  50.4819031  87.5118484
  70.7842636  50.7449074  88.4710770  65.8516388  40.2457886   5.5675201
  65.7654495  39.9845161   6.4843302  66.7613068  40.0464401   5.3461647
  19.8870220  22.1174507  88.9531479  19.7543316  21.1826134  88.7959671
  19.6722679  22.5335464  88.1182938  62.3848228  62.2482872  40.3805656
  63.1911774  62.6100082  40.0128937  61.8321762  62.0724297  39.6190643
  35.9683304   1.0652957  82.2754974  35.3458290   1.5656170  81.7478561
  35.4769478   0.8236498  83.0606003  10.0408993  15.8791733  57.7922859
  10.9953308  15.9003611  57.7226868   9.8509789  15.0489101  58.2291222
  32.0988541  13.1171846  74.6630554  32.8450089  13.4294157  74.1511993
  31.4787159  13.8462458  74.6516800  16.4208431  65.3364258  13.0494061
  16.9185257  66.0467987  12.6445475  17.0595360  64.8768921  13.5945072
  82.6920395  22.0148220  60.1273270  82.4903870  21.5007935  59.3454437
  83.2653198  22.7139740  59.8130531  10.9832144  62.1825447  51.9843330
  11.1282187  61.2938423  51.6596642  11.4598837  62.7422371  51.3713379
  26.3055267  17.0581493  54.5132790  26.3520832  17.4023209  53.6213112
  27.2191811  16.9320450  54.7693367  79.0793533  44.7543182  14.7607899
  78.4018097  44.1365089  14.4860468  79.1370773  45.3823242  14.0407143
  18.1527348  13.2517433  63.5242386  18.8815365  12.6629515  63.7202072
  17.7393112  13.4117479  64.3725967  31.3564816  50.1826935  17.6065884
  31.9585781  49.7715034  16.9863987  31.9223003  50.5249481  18.2986431
  72.6319580  12.8635912  41.3448219  71.8133926  13.3595896  41.3320732
  73.3014832  13.4998569  41.0935516   5.3981996  30.6631889  37.7742729
   5.4622674  30.9790211  38.6755905   6.1372705  30.0626011  37.6778297
  37.2059288  41.0075493  21.8936081  37.6309891  40.9661789  22.7502556
  36.5630226  40.2985992  21.9107456  54.7500687  39.5223274  32.7082062
  54.5374527  40.3514175  32.2796822  54.1416740  39.4708061  33.4453850
  48.0547714  42.8573189  14.0416737  47.2784538  42.5457039  13.5764198
  47.7602921  42.9790306  14.9442816  13.2239037  43.0965500  73.3704147
  12.8105087  43.4318542  72.5748596  14.1127939  43.4508247  73.3460083
   7.5776696  43.3657761  29.0315285   7.5138993  44.3033257  28.8494129
   8.5132370  43.2099571  29.1606274  16.3855743  55.3694687  63.6474686
  16.9034481  54.8844528  63.0049744  16.9966106  56.0083008  64.0145645
   4.0489087   1.0405883  36.0052795   4.0397291   0.0842064  35.9667892
   3.3143313   1.3095551  35.4536591  17.5261765  24.5384865  86.4900970
  17.7648067  25.0291557  85.7036285  18.2754192  23.9649544  86.6511230
   5.0667014  43.7223282  53.2105713   4.1263981  43.7530975  53.3869629
   5.3257375  42.8317070  53.4470596   7.7757564  49.6399994  59.2491379
   7.1474323  50.2931328  59.5571289   7.5946999  49.5562668  58.3129578
  34.5622253  42.9897346  87.9104156  34.5069847  42.0775032  88.1950531
  35.5005493  43.1562004  87.8205719  14.7158422  40.6757164  12.9881420
  15.1501846  40.6261368  13.8396816  14.0381613  40.0007324  13.0252752
  43.1925354  65.5817719  75.5749588  42.7891731  64.7630310  75.2865372
  43.1761093  66.1429749  74.7997055  73.7160034  32.5735512  66.1377335
  74.3627014  32.6829643  66.8348999  73.3513718  31.7007084  66.2841110
  73.3639755  22.3359680   0.2881809  74.0786514  22.9109325   0.5618278
  73.6757965  21.4537125   0.4897293  79.1184235  22.5450363  82.3710327
  78.3881073  23.0252552  82.7612305  78.9531174  21.6303806  82.5997467
  12.3378763  51.9194603  33.7862511  13.2055864  52.3188667  33.8477707
  12.5012426  50.9791908  33.8599968   5.7201734  18.4667339  52.4822426
   5.8095126  17.5848408  52.8435135   5.4136896  18.3285141  51.5860329
  62.2922859  59.2793198   5.9872632  62.1250191  58.9875793   5.0910826
  61.7024727  60.0229759   6.1110787  56.7061386   7.7172799  36.7385483
  57.4821396   8.0040588  36.2570801  56.0491982   8.3891134  36.5560646
  73.4013748  26.2472363  83.8034744  72.8500595  25.9254398  83.0902252
  73.9101562  25.4836712  84.0761337  17.2445259   6.1253777  66.4312668
  17.6943645   5.6143727  67.1041336  16.7459049   6.7796106  66.9207458
  31.5479584  70.6507416  38.2108459  30.9971523  71.2969513  38.6527214
  32.1869392  71.1725464  37.7254028  22.0137539  27.4161587  62.7720451
  21.3737583  27.3438625  62.0639420  22.1230755  28.3583374  62.9008141
   1.7155026  21.6660423  45.0513268   1.4324590  20.8193016  44.7061501
   0.9235494  22.2036438  45.0461388  60.8974571  41.8863525  38.1988068
  60.2139931  41.2875023  38.4996147  60.7706108  41.9380951  37.2514610
   6.5855937  40.6768112  23.8798923   6.5397053  40.6338768  24.8350277
   7.2904873  41.2993927  23.7017155  15.2075195  66.4406509  38.4154625
  14.2533789  66.4812088  38.4802933  15.4786949  65.9388504  39.1841621
   4.9250331  66.5691757   6.4498649   5.3233442  66.7640533   5.6015701
   3.9860399  66.6871719   6.3063335  77.6604233  55.9305077  87.1045837
  77.2578430  55.6976357  86.2679672  77.6769485  55.1109276  87.5988007
  27.3712730  22.8765659  70.8147202  27.6654720  22.2262287  70.1769562
  27.9868736  22.7934017  71.5429688  76.5670166  56.8264275  27.7760735
  76.5536804  57.4789238  27.0758572  77.4508133  56.4601173  27.7453098
  78.1695099  71.7451706  68.6752625  77.6215286  71.3869171  67.9769821
  77.6986237  71.5340347  69.4814377  78.2837830  66.6575623  55.4082603
  78.3245926  66.7025146  56.3635330  77.6512527  67.3330078  55.1635056
  63.4430695  14.3528633  44.8182220  64.0769501  13.9479570  45.4102364
  62.5900421  14.1052256  45.1749458   1.5851887  30.0359669  35.5246086
   1.7148483  30.0056705  34.5767174   2.4679062  29.9721394  35.8892555
  78.8207474   5.8758593  84.9258575  79.2882309   6.4151144  84.2879791
  79.3770752   5.8896699  85.7046661  77.6504440  13.3061047  24.0149460
  76.8474884  13.7491398  24.2891846  78.0738068  13.0489311  24.8340054
  79.0515747  28.9200439  72.6560059  79.2459946  28.9587345  71.7195587
  79.8156891  28.4916019  73.0417633  49.8191795  60.7887955  85.6671371
  50.3499756  61.5840149  85.6211929  48.9559402  61.0585861  85.3536682
  69.5549469  68.8028870  65.8861389  68.6464767  69.1044159  65.8867188
  70.0407791  69.5054932  66.3180542  66.1577301  55.3649826  87.2605820
  67.0843201  55.5840683  87.3588943  66.1560364  54.5534935  86.7529297
  17.7349358  50.3898735  26.7492313  18.2538261  50.6999626  26.0070515
  18.3789234  50.0236702  27.3553696  52.3638306  11.3969574   5.6039901
  51.4749298  11.7093773   5.4352350  52.7222176  11.2137213   4.7355342
  84.9623871  63.7876091  86.6336365  84.7955627  63.9251137  87.5661087
  84.8684616  64.6563492  86.2428665  67.1103668  38.6199989  12.4679070
  66.8931885  39.5504761  12.4106884  66.6354675  38.2180367  11.7404938
  67.2189789  49.9190292  55.6140900  67.4024887  49.9743462  54.6762733
  66.2778397  50.0791168  55.6838264  72.6192093  59.8704834  82.8292694
  72.0279617  59.3804474  83.4006958  72.0914230  60.6021919  82.5094604
  57.6280251  21.0483170  85.2762756  58.0707130  20.2009106  85.2298355
  58.1938858  21.5840015  85.8322220  13.0961876   2.7298677   6.2632585
  13.1108093   3.5568986   6.7449613  12.2594881   2.3296397   6.4998655
  42.9267159  43.6939621  57.8711014  42.9331970  42.8133087  57.4960823
  42.9914474  43.5525665  58.8155861  10.3661795  35.7677765  14.1793499
  10.5103540  34.8296928  14.3036194  11.0893154  36.0490532  13.6188240
  52.7970085  28.3867149  52.5125084  53.5101051  28.9546356  52.8043823
  53.1238937  27.9867420  51.7066536   8.3358526  47.6449203  41.9255753
   9.1743746  47.2160645  42.0964355   8.5719194  48.4808540  41.5234299
  61.2218475  30.0032520  10.5968733  62.0837021  30.1709118  10.9780903
  61.0150375  29.1058044  10.8577375  37.5299034  51.9971886  20.7342072
  37.1548576  51.3176003  21.2943211  37.6012573  52.7638474  21.3028679
  63.7588158   5.4282556  51.8999100  63.2921906   4.6503944  52.2055664
  64.0767517   5.1900606  51.0290413  51.0878143   5.6588068  77.4897842
  50.2510986   5.3334951  77.8219223  51.3746796   6.2947955  78.1451111
  81.6810455  48.7872238  72.5066452  81.8354645  47.8441162  72.5608139
  80.7467728  48.8878098  72.6890030  86.2810059  21.9041386  88.0998230
  86.1516571  22.5098763  88.8296051  85.4559479  21.4226608  88.0390778
  76.4677963  17.1771660   6.1157517  76.5936508  16.5477657   6.8258572
  76.7127380  18.0203705   6.4968586  25.4099121  61.0624657  73.7614136
  26.2089634  61.1736374  73.2462463  25.1733017  61.9499321  74.0309525
  50.3699913  52.7264900  59.5038071  51.0774536  52.0831795  59.4604836
  49.5793037  52.2270660  59.2997971  38.8448868  40.0623207  66.9098358
  39.3607674  39.9888916  66.1069031  38.3377724  39.2511978  66.9437256
  57.7113113  58.5201836  68.5592880  58.1144791  59.2313347  68.0613403
  57.4333763  58.9292259  69.3788452  38.1285400  51.2793579  30.3529015
  38.9871902  50.9351540  30.1069832  38.3177910  51.9451599  31.0140572
  55.5257530  35.1789207  33.1927452  56.3277931  35.6666794  33.3799934
  55.5455589  34.4419556  33.8032532  14.1597147  30.3686123  13.1601982
  13.7441206  29.5515308  13.4356823  13.5910730  31.0556412  13.5078583
  17.2867317  26.6216106  76.2633820  17.0350494  26.5148468  77.1807098
  18.1184139  26.1539173  76.1872101  79.9728241  19.1871967  37.2069969
  80.5116730  19.1234417  37.9955444  79.0779266  19.0471325  37.5164604
  19.7233887  62.7912178  78.3299408  19.9570751  63.6218071  77.9155273
  19.9636078  62.9063263  79.2493286  15.3664570  47.2529755  73.1212158
  15.4964161  46.4585533  73.6391373  15.2758827  47.9502068  73.7707520
  26.8673897   1.3601761  29.0869141  26.5663815   2.2090144  28.7627239
  26.1232586   1.0144752  29.5798550  22.0251751  53.8066635  17.2597542
  22.1614132  52.9366379  16.8846207  21.2032070  53.7324028  17.7446098
  44.3816414   4.8752413  81.7424393  43.5215302   4.9826303  82.1485367
  44.3961906   5.5226197  81.0375137  72.1755753   9.7785492  57.9058647
  72.4533997   9.6302280  57.0019569  71.7332840   8.9675493  58.1566315
  30.1194401  56.3524933  64.9694519  29.5270920  56.6489792  65.6604309
  30.1514606  55.4014702  65.0731735  63.5718117  12.2885008   0.7856111
  64.3044662  12.6418295   0.2810223  63.6186981  11.3427305   0.6457805
  34.1156311  64.1112366  41.8840218  34.9025764  64.4471893  42.3130722
  34.4452553  63.5121384  41.2141991  33.2440758  56.0024567  27.5452328
  33.4459190  56.1056747  26.6152668  33.5787659  55.1337852  27.7679882
  83.7488708  50.2047920  77.8687973  82.8284149  50.1255188  77.6183853
  83.7427292  50.7998734  78.6185150  36.4352760  42.5238686  61.6985359
  36.1612892  41.9569855  62.4195137  36.3573189  41.9742279  60.9187622
  26.6370049   4.8147731  87.9146271  26.0494099   4.5924468  87.1924515
  27.4980698   4.8998642  87.5052872  47.3432465   7.1176195  86.9687424
  47.0315132   7.5843177  87.7441406  47.2627411   7.7536106  86.2579193
  13.1152525  54.1381035  24.4373169  13.6529312  54.8294525  24.0510902
  13.0974722  53.4491920  23.7729988  17.8917923  59.1015968  40.0138359
  18.3658333  59.9317284  39.9648323  18.0358238  58.7960434  40.9094505
  19.6167545   5.3140430  73.7751312  19.0976353   4.6424108  74.2174683
  19.2118073   5.3999805  72.9120789   0.6517489  35.1504364  44.1127777
  -0.2382165  34.9105988  43.8545685   0.8390130  35.9466820  43.6156273
  75.9467850  59.0785751   1.4316759  76.1354828  58.1793404   1.7000002
  75.0867844  59.2653999   1.8081576   9.7352619   2.5670300  26.9838123
  10.6328850   2.8534935  26.8151646   9.3784304   3.2316949  27.5729847
  49.6887856  24.9798164  19.6734524  49.2085266  25.3299427  20.4237823
  49.8245926  24.0563850  19.8857307   4.2711649  55.4798660  73.1042023
   4.7626061  56.2802200  72.9193954   4.7119222  54.8039017  72.5893860
  70.1087036  35.8898354  23.8439426  70.0474930  35.8297920  24.7972946
  70.1024094  34.9802818  23.5457745  85.4669037  70.5132751  34.6952438
  85.2345047  69.6436691  35.0208206  84.8422470  71.1022873  35.1184464
  32.7542648  51.2006912  51.3984451  33.1806183  52.0379868  51.5811768
  31.8187275  51.4031830  51.3987923  68.2635727  27.9238930  35.9366379
  69.1434937  27.7516041  36.2717209  68.3317566  28.7797489  35.5134392
  15.9444275   7.3697038  47.1595001  16.7806187   7.4416814  47.6197548
  15.4840021   6.6608820  47.6087341  14.6494541   1.0117503  20.3880329
  14.5077400   1.9461761  20.2363834  14.1109791   0.5773787  19.7265205
  72.8846512   7.4467621  49.4553871  73.5352097   7.3476677  50.1504974
  72.8293991   8.3915424  49.3119659  78.4394684  22.4773006  37.0336952
  77.7671204  21.9941025  37.5140114  78.7661209  23.1215553  37.6617546
  74.1146545  46.3139839  14.2059174  73.8895569  45.7936096  13.4347010
  73.3553314  46.8805580  14.3425159  77.3565979  60.4334030  46.2321777
  76.5460358  59.9242668  46.2292938  77.2848892  60.9934769  47.0051003
  55.5223427  49.6553230  13.5645819  55.2188263  49.1830482  12.7892962
  55.8167496  48.9688683  14.1631956  20.4469948  11.1475725  34.5632401
  20.2103767  11.5596685  35.3941536  19.6261845  11.1099720  34.0722313
  28.5410347  19.5169296  27.2698460  28.9010735  19.1928310  28.0954151
  27.8474598  18.8948135  27.0503941  12.1016397  27.2301559  27.1422138
  11.3804245  26.9469795  27.7042561  11.7863617  27.0754108  26.2517738
  46.9044876  67.2023697  36.3211288  47.5277786  66.5359879  36.6103859
  46.0714798  66.9362106  36.7103462  27.2715416  13.7429953  76.1945114
  27.5492725  14.6507511  76.0717239  26.3355408  13.7497272  75.9942780
  50.6959877  29.7258205  62.5047379  49.8094330  29.3817902  62.6138039
  50.7308731  30.0130711  61.5923233  46.0558662  59.5605583  83.2263184
  45.6468887  58.8926926  82.6759338  45.3371887  59.9093437  83.7536545
  26.0024891  44.1090889  14.4603682  26.0309258  44.4004974  13.5490475
  25.4160595  43.3526115  14.4517460  79.8888779  46.0290108  32.2258377
  80.6931076  45.6133995  31.9148502  79.2032547  45.6801186  31.6562500
  83.1913681  41.7510796  13.8017635  83.3023300  42.1221962  12.9264402
  82.4889145  41.1085205  13.7021990  60.6267471  10.0543718   1.8903862
  60.8234787   9.2993269   2.4448540  61.4844780  10.3988304   1.6416358
  54.7631760  16.0294895  52.0909386  54.4650269  15.1345901  52.2537117
  55.7093697  15.9960480  52.2317467  49.1362801  44.6848259  76.5966415
  48.8924408  45.2336845  75.8513107  48.5819550  43.9088402  76.5141602
  70.2775650  31.0703945  81.2833099  69.8314667  31.5683842  81.9683228
  69.7252121  30.3003025  81.1487656  36.0332451  54.5584297   4.2832527
  36.1234169  55.4906616   4.4808464  35.5836563  54.1943550   5.0458469
  38.4284286   1.2923150  11.8982830  39.1385155   1.8538306  11.5873089
  38.0925751   1.7390909  12.6753445  41.3981781  27.3810749  16.2005520
  42.0098915  27.0196228  15.5591526  41.0012360  28.1306858  15.7569847
  17.0372066  48.8885193  35.0037498  16.5912838  48.8532715  34.1575012
  17.6531467  49.6163902  34.9197845  56.2803040  21.0353394  89.3443756
  56.4032326  20.0940495  89.4672394  55.9050446  21.1154346  88.4674530
  16.2813339  22.9247932  70.5015717  16.9841938  22.4616089  70.0458527
  15.6492624  23.1364994  69.8146210  52.0779457  66.8443909  84.7242355
  51.5851822  67.5421448  84.2923126  51.4691315  66.4854889  85.3698120
  30.2347260  48.7466393  79.7718124  30.6739178  49.3669395  80.3536835
  29.7989864  49.2964325  79.1205902  22.4149036  25.0943451  63.9175682
  21.7243233  24.5293732  63.5709610  22.0994186  25.9838161  63.7577438
  10.8805304  48.9421463  21.6396351  10.6433287  49.8265953  21.9184151
  11.8128662  48.9989128  21.4304485  58.0452995  18.7878017  19.9565125
  58.1502991  19.7066689  20.2032719  58.1630096  18.3051281  20.7746830
  21.0389137  55.8162537  50.4217911  20.0846901  55.7988777  50.4951820
  21.2819958  54.9077835  50.2434006  72.0112228  29.4868183   4.8361878
  71.9848480  30.2762814   4.2955532  72.9432907  29.3338146   4.9913521
   6.2336287  22.6816444  21.4446659   6.3439250  22.3550014  22.3376217
   6.0840559  23.6211910  21.5500832  50.9890747  42.0386086  51.4049683
  50.3845482  42.0961037  52.1448822  51.8423805  42.2653809  51.7746620
  48.7863579  23.8367786  27.8461266  48.1064453  24.3269157  27.3838310
  49.6079369  24.1594048  27.4757824  31.5927963  44.8166275  70.3662491
  30.6691761  44.6501694  70.1779633  31.9348545  43.9702682  70.6541824
  17.4725780  32.3146858  80.1338882  18.4182186  32.4629555  80.1372375
  17.2076283  32.4376450  81.0454330  78.7242661  66.6360550  22.9342747
  78.3139191  67.4630890  23.1869678  78.2950134  66.3968506  22.1128387
  40.7996712  49.7258415  80.1951599  40.8328934  48.9899597  80.8063889
  41.6245232  49.6735802  79.7123260  61.4415665  29.0514984   5.1790452
  61.5745354  29.9580383   4.9020295  62.2986488  28.7709217   5.4998589
  64.9806366  63.5330124  89.3081665  65.4906616  63.9933510  88.6416779
  64.2248688  63.1860695  88.8341751  19.4256802  24.7190361  62.6908951
  19.3707561  25.5267124  63.2016525  18.5180206  24.4272156  62.6058846
  30.9202728  70.9768600  20.6852150  30.2095242  70.5514221  21.1648712
  31.7161846  70.6930389  21.1348820  60.1656189  11.4511375  39.0587807
  59.8397560  11.8426485  39.8691940  60.8922424  10.8937674  39.3373299
   2.5948961  23.6722965  55.2307510   2.6953712  22.8889809  55.7716331
   3.1926951  24.3104877  55.6200829   1.8855437  36.8744354  54.3172569
   2.4334893  36.2206268  54.7514496   2.3886623  37.1342239  53.5454979
  26.9583187  30.7193203  14.0586729  27.2682571  29.8140869  14.0318089
  26.3694668  30.7932549  13.3076611   2.2947598  62.4926033  35.3361244
   1.4810208  62.8182907  34.9514313   2.0105429  61.8830757  36.0172501
  82.0970001  35.6258087  87.2306900  82.8798904  35.3837051  87.7253494
  81.5414734  36.0762253  87.8668823  61.5769386  35.7357864   0.1788715
  61.8516083  34.9238510   0.6049539  61.9422989  36.4297409   0.7276630
  55.5107613  57.2716560  83.2574768  54.6391106  57.1469994  82.8820953
  55.6372185  56.5125313  83.8266602  46.7147827  60.6204758   2.5062189
  46.5677338  61.1458244   3.2927396  47.6558151  60.4452896   2.5076849
   1.3010145   9.9451685  12.0832348   2.1057456   9.9815989  11.5662127
   1.4719923  10.5151958  12.8329468  81.1553268   3.0126317  63.2465630
  81.4069595   3.6223404  63.9402275  80.5925751   2.3727815  63.6826019
  25.2625561   7.2124171   7.8702912  25.4293442   8.0143690   7.3750267
  24.3628807   6.9749627   7.6457224  10.7936182  62.4785271  71.1011276
  11.0324240  61.6201859  71.4510651  11.3904734  63.0884476  71.5347137
  16.1162033  59.3848457  83.2249756  16.4832153  60.1641731  82.8076248
  16.8801327  58.8850250  83.5127716  68.8061295  42.0178261  64.2069702
  69.7402954  42.0192757  63.9982567  68.7144012  41.3538017  64.8902664
  21.6174526  55.2365837  69.7804794  21.3099766  54.6367874  70.4601440
  21.6576481  56.0891647  70.2137451   1.1077734  27.8818836  79.7962952
   1.9010605  28.1173325  79.3151550   1.0063920  28.5774517  80.4460144
  29.5126877  32.6357727  13.7691774  30.3139343  32.1944160  13.4873238
  28.8179550  32.2201309  13.2584724  78.4117126   5.1930785  22.5973892
  77.6965332   5.6002522  23.0862274  79.2018433   5.4422717  23.0768013
  77.9834747  23.4705906  26.5687637  77.3452835  23.3845539  27.2769585
  78.6133804  22.7674999  26.7272568   1.8915534  54.9810562  15.3440714
   2.8263457  54.8729744  15.1688185   1.8093835  54.8581085  16.2897797
  66.4123840   7.8340235   9.0414801  65.6519852   7.2809324   8.8622694
  67.1652374   7.2820449   8.8299141  17.9016209  40.4721107  69.6933060
  18.7554379  40.8955917  69.7821579  17.4519215  40.9792328  69.0174103
  73.1984940  33.9747391   8.1630726  73.9896545  34.3596191   7.7860260
  72.4972458  34.2357445   7.5661120  29.2931004  61.4850922  26.1240311
  28.7750072  60.6933289  26.2686749  29.6191273  61.7200241  26.9927921
   0.8625852  42.7918854  84.1242981   1.3909204  42.2317810  83.5556412
   0.2985587  43.2790184  83.5236282  54.9719810  65.7740707  50.8577728
  55.4196281  65.8831024  51.6967926  55.6644936  65.5189896  50.2481918
  64.0315170  31.7886467  87.5044861  64.0751419  31.6484756  86.5586090
  64.4668274  32.6299286  87.6422729  45.1422539  61.3884888   7.9534864
  44.6469574  61.9742279   7.3809299  44.4778824  60.8303795   8.3576632
  84.7557297  66.1800079  66.4828796  84.9148331  66.7929611  67.2006607
  85.5485611  65.6450424  66.4445724  67.1829453   0.3504544  63.5773354
  66.2840347   0.5504085  63.3161430  67.4055023  -0.4393590  63.0844917
  68.8732986  37.9527321  47.7944565  69.7859268  38.0170631  48.0758934
  68.3690033  38.2751160  48.5414429   6.1493616  58.5611763  18.3982162
   5.3628874  58.1436234  18.7494125   6.4065099  59.1916962  19.0709343
  63.1251450  60.8426170  34.6434975  63.2205353  60.0943985  34.0541763
  62.3160973  61.2687645  34.3605194  71.8636322  18.1503563  85.7946167
  71.1093216  18.1862774  86.3827972  72.1565170  17.2400093  85.8360443
  16.5499020  54.1914330  13.9828796  17.3455715  54.0390663  14.4927073
  16.7082920  53.7432404  13.1520557  52.1900063  19.5325394  25.1218834
  52.6684227  18.8342838  25.5688610  51.8742142  19.1274548  24.3141632
  72.2939682   8.6321735  18.7912369  72.4949341   8.7153711  19.7233963
  72.9924850   9.1168222  18.3514385  25.4469452  59.0204849  59.3553505
  24.7985382  58.7885704  60.0201912  26.0013046  59.6753960  59.7796211
  28.2445717  55.0398750   4.7247272  27.7560196  54.5144997   5.3583908
  27.5714207  55.4281425   4.1658454  68.2219391  47.5939102  18.0863838
  67.3322372  47.3698158  17.8135414  68.2088928  48.5456619  18.1875057
  57.3962936   6.0563383  67.1564102  57.3993874   6.6250052  67.9263687
  58.2803802   5.6907630  67.1250992  14.5566864  45.0787849  61.6936455
  14.9952736  45.1633301  62.5402412  14.5417223  45.9688110  61.3417091
  31.3711300  39.5964355  64.4731674  30.6174412  39.0293350  64.6362076
  31.2578678  39.8914642  63.5696373  30.9699078  62.2157440  24.2215176
  30.4585724  61.8113022  24.9223690  31.8335323  62.3605576  24.6080589
  64.8237762  65.4041443   2.2970827  64.0457077  65.9451828   2.1624758
  64.7342682  64.6936646   1.6619099  55.1149139  35.1082230  88.8734818
  55.8143845  35.0623932  88.2216568  55.4890442  35.6199226  89.5907135
  18.5638027  11.2267647  87.4187851  18.2676277  10.3478088  87.6553192
  19.4977512  11.2293196  87.6284637  62.9211845  71.4479675  80.0214691
  62.3938065  70.8001556  79.5540924  63.7689209  71.4322205  79.5772552
  52.6065063  62.0279770  70.3689270  52.7368164  61.7938843  71.2878647
  53.3508339  62.5914268  70.1574249  63.7958755  29.7750416  80.0747452
  63.0836754  29.1359425  80.0983429  63.4033279  30.5568695  79.6863098
  85.4210052   0.5551984  21.5676231  86.1085815   0.3361777  22.1965103
  85.4670105  -0.1395765  20.9108105  75.2673035  51.6821213  60.4503479
  74.5532684  51.3589973  59.9008217  76.0587845  51.5101509  59.9402351
  31.1877460  65.8643417  71.1929626  31.9242439  66.4728928  71.2518921
  31.5525818  65.0870285  70.7699890  57.6079865   7.1933703  12.0654526
  58.4136696   6.8932004  11.6447315  57.2947235   7.9027715  11.5043411
  20.8111286  55.8791389  75.3873672  21.0778446  56.2037926  74.5273132
  21.3944378  55.1390495  75.5554504  28.8479195  63.1221581  76.6329651
  28.0789108  62.6900902  77.0046921  28.6972351  64.0545807  76.7882614
   1.4841695  60.9896545  43.5942535   2.2436552  60.8523445  43.0280724
   1.0434289  60.1401863  43.6139679  20.4379272   0.4041763  84.2055969
  20.8452492   1.1296194  84.6789398  20.0747414   0.8067690  83.4167709
  74.5323257  35.5902519  18.1896763  75.3943329  35.7811241  18.5594711
  74.7031403  35.4079132  17.2656574  34.8422623  71.2340012  58.8186378
  35.0166435  72.1203613  59.1351700  33.8900986  71.1947708  58.7287598
  14.6983604   5.9072604   2.9567285  14.2831345   5.1265688   3.3232522
  15.5072985   5.5843182   2.5597916  83.6365433  48.7357292  50.5665436
  84.1455307  48.3005600  51.2504959  82.8188171  48.2399597  50.5244522
  18.2965336   9.8522310   5.1998458  19.0343704  10.4342813   5.3816276
  18.0539036  10.0485249   4.2949524  62.9633102  60.8020096  69.2327194
  63.2002144  61.5767517  68.7229309  62.6167564  60.1868095  68.5864487
  45.0523033  58.7959709   4.4819598  45.1636429  58.8628693   5.4303060
  44.5999718  59.6030159   4.2363858  18.7982216  51.5359421  38.8242302
  18.2115631  51.4384842  38.0741882  19.5469151  50.9767227  38.6169548
   6.7817855  67.2789917  70.5507050   7.4248886  67.3514633  69.8454437
   6.2160830  68.0429382  70.4384384  52.4692764  35.0239067  17.5553417
  52.9937744  35.6773643  18.0180798  53.0008011  34.2282600  17.5810051
  39.6938057  39.3429527   6.5202036  39.8322144  38.8193855   7.3094773
  39.7716255  40.2494965   6.8174448  60.9794083  70.3351288  74.6889191
  61.5427895  71.0385590  74.3663940  60.1190643  70.7431335  74.7867737
  71.5451279   1.3123759  17.4619255  71.2180328   1.5799491  18.3207912
  72.4974747   1.3683084  17.5402584  61.2949066  51.8359451   6.2494917
  60.9492760  50.9504585   6.1368527  60.5312996  52.4051094   6.1536055
  66.2830276  11.0815735  44.8303642  66.9005127  11.6312227  44.3478394
  66.8201828  10.6362915  45.4856644   2.5610898  38.5784225  45.0038338
   2.2737281  38.5122414  44.0931892   3.4737139  38.8614845  44.9470329
  33.0498581  69.2799606  36.0332146  32.8222847  68.8883972  36.8764954
  33.2901764  70.1819687  36.2450294  17.3247337  35.7194824  82.3369522
  17.5961342  36.2739182  83.0685043  16.3830109  35.6021042  82.4618912
   4.8642201  67.5399704  63.5417366   5.4216700  67.3113098  64.2855072
   4.3925939  68.3223648  63.8275032   9.2756290  53.9359779  75.0462418
   9.9515562  53.4791870  74.5455475   8.8448200  54.5022354  74.4059448
  64.0610504  50.5303230   8.2068539  63.6286964  51.3796501   8.2960043
  63.3587570  49.9288712   7.9593101  78.0294495  55.5682259  76.7463913
  77.1889114  55.5745544  76.2884750  78.0526810  54.7217636  77.1927032
  37.3304062  70.6295624  73.3975525  36.4631310  70.8858643  73.0839005
  37.2304955  70.5587463  74.3468857   4.5848851  36.4254036  71.2258606
   4.9463511  35.8613968  71.9095840   5.3194833  36.9772415  70.9574051
   1.6700008  50.6248932  77.6764145   1.2012116  49.8891830  78.0703659
   2.5143270  50.6398468  78.1271057  65.8099823  67.6653290  35.6632004
  66.1775284  67.9547806  34.8281212  65.7558975  68.4625244  36.1902504
  69.8600464  48.5353165  28.4174595  69.9297714  49.4523430  28.1520634
  69.9376526  48.5554619  29.3712959   8.5327854   4.7855225  54.1188164
   8.8848553   5.5250750  54.6141319   7.8312864   5.1642966  53.5890388
  16.5648384   7.7701540  20.3665123  15.9169979   7.7939057  21.0707626
  17.3529949   7.4155345  20.7779579  43.7869568  17.4558544  67.5284958
  44.6379700  17.7566395  67.8471451  43.3076973  18.2602291  67.3296967
  10.2483845  16.2450886   3.0214162   9.6463623  15.7141495   3.5428600
   9.7594004  17.0460453   2.8327477  60.2870941  38.2036743  67.9636230
  59.7827034  38.5048790  67.2079163  60.0120163  38.7769699  68.6790924
  30.9951000  54.7162170  10.3646450  31.1791515  55.6267242  10.1337051
  31.8461723  54.3553925  10.6130657  62.5190964  22.3479824  29.9037094
  61.6504021  22.0256672  30.1439438  62.7145653  23.0195312  30.5571976
  53.9837646  17.3447990  26.3089695  54.2445717  17.1578293  27.2107754
  54.6686211  17.9253445  25.9770470  72.8041840   7.0934005  38.2487144
  73.4695969   7.7814684  38.2445068  72.7938156   6.7757549  39.1516151
  56.8300514  60.5462112  55.2930565  57.3625679  60.3732948  56.0694275
  56.0726128  61.0284309  55.6246948  52.1049271  26.9550247  33.1558800
  52.7305183  27.3504028  33.7629585  51.2649269  27.0035267  33.6122551
  16.7949219  42.8671455  61.9300232  17.5729771  42.4478149  61.5625725
  16.5217323  42.2854004  62.6393700  73.4406738   1.1819903  78.6593933
  73.4664001   1.7995799  79.3902512  73.0402832   1.6749681  77.9432297
  75.6085510  52.3100548  17.2194462  76.3554611  52.8797684  17.0356579
  75.7686157  51.9834175  18.1048393  72.4873276  59.7927132  64.3748016
  73.3726807  59.4402199  64.4649887  72.1581802  59.4084969  63.5622292
  42.7117043  58.8815994  34.3936005  42.9557495  59.8064003  34.3559799
  43.5021935  58.4375801  34.7005310  33.3912430  33.3189774  62.3965645
  32.6274147  33.2116814  62.9633827  33.0238724  33.4734116  61.5262680
  64.3530960  42.1622391  59.9735832  65.0935059  42.4982643  60.4786682
  64.7155991  41.4293976  59.4758263  11.7209444  55.1696777  52.0022240
  11.7964916  55.4883766  52.9016457  10.7912045  55.2601700  51.7933540
  16.8680477  33.6584206  20.5387630  17.1254902  34.5400276  20.8084412
  15.9547462  33.7482986  20.2666702  51.0517845  55.8976822  29.6948280
  51.4590454  55.0406532  29.5688553  50.4540253  55.7727890  30.4319267
  14.5860367   2.3612180  83.9474869  14.1966429   1.8855455  84.6811981
  15.5092068   2.4517879  84.1836777   4.1500201  25.1683254  28.3459835
   3.9023757  25.1226349  29.2694645   3.8219516  26.0180626  28.0517921
  83.1688538  50.6126480  15.1059742  82.9016953  50.9606285  14.2552290
  82.3686371  50.6233330  15.6311178  48.9816093  41.5400085  47.1513939
  48.8525162  42.0236435  46.3355103  49.2028236  40.6519432  46.8709679
  42.1651802  19.7708683  82.4300919  43.0712585  19.5966225  82.1753464
  41.6610451  19.0703926  82.0160751  68.8224716  26.9260864   3.1075122
  68.0805054  26.5007000   3.5373528  69.4183807  27.1484470   3.8228307
  25.5153790  51.5332985  85.7366180  25.6069851  51.2959938  84.8138351
  25.2760677  52.4599991  85.7229919  84.5492630  53.3873711  54.2378044
  84.2480927  52.8102074  53.5360832  84.9858246  54.1083603  53.7841377
   9.8742733  52.4028931  40.4141884  10.5433655  53.0588493  40.6098099
   9.6336985  52.5705147  39.5030060   4.6184301  30.7309933  80.5386887
   3.7116380  30.9374294  80.3120956   5.1421065  31.2696877  79.9455566
  59.5797882  47.9994774  21.3285389  60.0981636  48.2834473  20.5756264
  59.6365814  47.0441093  21.3118114  54.0507545  71.1993103  52.8791237
  53.9283333  71.3915405  53.8087959  54.8105240  71.7228088  52.6243172
  18.6588268  62.5464401  25.2645187  19.4097233  62.9837189  25.6659851
  19.0316372  62.0522423  24.5344429  20.9503078  56.7311020  19.6474857
  20.4005775  57.1130142  18.9632568  21.7119160  57.3091049  19.6932755
  54.5143318  34.9804344  84.6588211  54.1281471  34.8750610  83.7893448
  53.8413544  34.6613426  85.2600861  61.1667137  34.1560822  23.8058071
  61.0523529  33.5608788  23.0649376  62.1154404  34.2349739  23.9054317
  78.3983383  38.0464745  25.6907692  78.5380707  37.7136993  26.5773182
  79.1574402  37.7372169  25.1964455  47.3222923  20.7368107   3.8847766
  47.7822990  19.9383545   4.1437979  47.3606110  20.7357483   2.9283445
   9.9311275  69.6735077  43.1006012  10.7512255  70.0999298  42.8519287
   9.6005182  69.2962799  42.2853508  38.8818512  58.4576416  84.0774765
  38.9155273  58.4221077  83.1215286  37.9787788  58.2257729  84.2941055
  24.9010277  51.1013832  59.6953697  24.4212914  50.4871597  59.1396599
  25.2433777  50.5622025  60.4083290  67.6624146   6.1536274  20.6664371
  68.2167816   5.8428192  19.9506817  68.0472336   6.9924126  20.9205647
   7.5427032  35.4039001  14.4899426   8.2283726  36.0228691  14.2390127
   7.5066109  35.4605827  15.4447803  66.2692032  59.9915085  72.3833923
  65.3753433  60.1991081  72.1110687  66.3141556  60.2775497  73.2957458
  63.3033562  14.1348362  14.8421583  64.1891174  13.8175726  15.0182238
  63.3005524  15.0331154  15.1727915  51.6784897  31.5705681  80.7926254
  51.5911942  32.2933350  81.4140930  52.4375420  31.0774212  81.1038742
  11.6213093   5.9599972  69.7400742  11.7673779   5.2564478  70.3724594
  11.8475952   6.7596917  70.2149582  15.8991776  12.0994635  11.4127836
  16.4125881  11.4040585  11.8239441  16.4580517  12.8745823  11.4683056
  24.7819195  38.7153549  69.7771530  25.2149582  37.8665390  69.8677979
  24.7784100  38.8830223  68.8347549  15.5456762   9.0791416   8.5037746
  14.5902605   9.0245342   8.4829865  15.8363361   8.4395723   7.8536215
  40.3988800  23.7753010  86.7260284  39.6777687  23.3085346  87.1483536
  40.8974342  24.1522141  87.4510193  23.5639286  10.0390539  88.7438354
  23.5643749   9.5332603  87.9311829  24.1769962   9.5758076  89.3146057
  64.0184021  61.3998184  28.0465851  64.8495331  61.7044258  27.6823502
  64.0153046  60.4571304  27.8805714  59.0878181  34.1945992  10.0337200
  58.3183403  34.7639275  10.0351124  59.1998520  33.9455757   9.1162958
  17.4948292  29.6524105  66.8040771  17.7297993  30.5616684  66.6189575
  18.3334007  29.1933804  66.8522797  53.1719055  10.2499561   0.5140728
  54.0257454  10.3111258   0.0857663  52.8612213   9.3692379   0.3042074
  25.5379047   9.3577719  21.8512039  25.8789959  10.2505960  21.7987232
  25.1950073   9.2843428  22.7418556  17.6288605  52.2552414  41.2899170
  18.0974770  52.2878304  40.4559097  18.2621174  52.5739250  41.9330788
  51.2798958  12.7993555  29.3616581  52.1518860  12.6128263  29.7096119
  51.3059616  12.4726467  28.4623165  27.3339863  37.8904114  72.5336151
  27.5462399  37.9788361  71.6044464  28.0887489  37.4374695  72.9096603
  84.8379288   2.8685646  74.8712463  84.0593567   3.2072871  75.3131943
  85.5231247   2.8953009  75.5391006  24.9735241  54.1953621  34.1183777
  25.0410194  54.0018120  33.1833839  24.7065964  55.1138954  34.1541634
  41.9617500  56.6136017  74.0677795  41.2474251  56.0347633  74.3340836
  41.8625183  57.3873367  74.6225052  74.1409149  47.5079460  54.2218285
  73.4197922  47.5289688  53.5927238  74.9281235  47.6124001  53.6873894
  52.1531563  58.1940346  12.9424620  52.0749512  58.5670509  12.0644093
  51.4066582  58.5526810  13.4224091  75.8552246  33.2621307   6.8030720
  76.4659958  33.8265266   6.3291068  75.1328125  33.1233749   6.1906176
   9.5458040   4.2442775   1.1490380   9.7031670   4.9891911   0.5688891
   9.2386122   3.5486450   0.5676942  19.0200520  70.9319229  74.6286697
  19.2751694  70.0295181  74.8205338  19.0590820  71.3770065  75.4751968
  53.7664375  45.7671547  14.1376400  53.6918945  46.6857643  14.3961582
  54.6186066  45.7082977  13.7056923   1.3727314   1.7379113  34.4487648
   0.4347166   1.9109001  34.3685455   1.4617162   0.8049214  34.2542305
  80.0944061  47.5355339  34.3799744  79.9034653  46.8970947  33.6928291
  80.9858246  47.3271294  34.6595497  15.9370356  23.1826115   7.4439507
  16.5680981  22.5858212   7.0416646  15.3491831  23.4269905   6.7291503
  34.1207199  20.3989582  82.3514709  34.1662369  21.3433781  82.5005798
  34.9296646  20.1910362  81.8839111  40.3720627   1.1894886  15.7695103
  39.9639053   2.0552456  15.7594290  40.9714890   1.2159619  16.5153141
   9.4788876  53.0699883  87.3282623  10.1790133  52.4182777  87.3647537
   8.8285131  52.6900063  86.7376175  40.6489677  42.3490372  71.6179047
  39.7690468  42.6257401  71.3621674  41.1076698  42.2129517  70.7888641
  85.5678329  55.6783714  53.3092003  85.3639679  55.4567528  52.4006004
  85.3669891  56.6116600  53.3789482  87.1025620  14.3802738  62.4939079
  86.5338898  14.9459629  61.9715576  86.5393143  13.6528625  62.7582283
  22.0608730   6.8611116   2.7993395  22.0295563   5.9510775   3.0944467
  22.2306519   6.8023100   1.8591540  44.9608116  67.4073868  17.1316109
  44.8601227  66.9097977  16.3201332  45.7545242  67.9254532  16.9979744
   3.2721429  27.1380692   0.9658350   3.7562733  27.1020870   1.7907925
   3.0350962  26.2280235   0.7873483  73.9497223  60.7979546  55.2364769
  73.5288467  60.6855278  54.3841553  74.4805984  61.5884628  55.1390457
   7.8542681  71.5080719  10.4181366   7.7603130  72.3114319  10.9300032
   7.6734114  70.8044434  11.0413799  38.2191887   8.1773090  69.9898300
  37.5097847   8.0996723  70.6277542  38.3899612   9.1175423  69.9347839
  79.6516037   8.5828943  58.4708252  79.9533691   7.9095287  57.8611145
  78.9421539   8.1641216  58.9582024  17.4627266  13.0610313  75.9077606
  17.8459320  12.3366766  75.4130936  17.2585144  12.6848259  76.7639160
   8.6979790  56.5304565  50.6088562   9.0427208  57.4090042  50.4490395
   7.7581329  56.6611862  50.7346764  76.3362885  48.6130905  40.1478271
  75.9577637  49.4903870  40.2052803  75.7140732  48.0529099  40.6118126
  19.2373524  64.2683868  20.4933987  19.1281338  64.8946762  21.2089863
  19.1429558  64.7937241  19.6988277  84.0659332   0.5586824   3.8626797
  84.6613083   1.2763168   3.6464419  83.6046524   0.3752995   3.0442510
  44.8010902   6.5559769  79.7509537  44.9816933   5.9079757  79.0699921
  44.6401901   7.3687053  79.2715607  43.5993538  46.6895866  67.5476685
  43.5375366  45.8330002  67.1249847  42.7044525  47.0289612  67.5331802
  33.1561394  20.4802265  62.7958450  32.6469536  20.0671291  62.0984840
  34.0439568  20.1430893  62.6760635  35.7159805  39.6426735  69.6358643
  36.4278564  39.1863251  69.1873016  36.1487160  40.1331787  70.3347015
  63.8109016  30.5448856  11.5085735  64.1273193  29.6420403  11.4772472
  64.5063782  31.0270443  11.9558554  68.0615768  41.7708969  60.7418633
  68.8436279  41.5106430  61.2285881  67.3435135  41.6592369  61.3648834
   3.1639786  15.4722166  56.2842026   3.0300012  15.4789562  55.3364525
   2.5237613  16.0990181  56.6210632   8.5328121  53.1003571  61.4678040
   7.6982374  52.9285469  61.9039230   8.3108597  53.6957550  60.7519341
  36.1307640  68.7479019  40.4596100  37.0511360  69.0106964  40.4688148
  35.9474258  68.4860001  41.3618431  41.3320656  37.6276360  86.5093842
  41.5665512  36.8779716  87.0564194  42.1690102  37.9542274  86.1790924
   4.2437978  17.8560333  27.3214111   5.1453815  18.1432056  27.1768055
   3.9169462  18.4319096  28.0126171   5.8298340  39.7093277  44.3201370
   5.2416635  39.7763748  43.5679474   5.9181790  38.7683830  44.4719772
  55.4601135  58.4882812  49.7064018  56.3899765  58.4531517  49.4819946
  55.3094025  59.3985977  49.9610405  41.7762947  57.6610107  80.9374619
  41.6885338  57.2275734  81.7863770  42.5359001  57.2425995  80.5322952
  17.0372925  45.8205757  20.8848038  17.8834553  46.1784058  20.6161060
  16.6031494  45.5897980  20.0635281  12.7151365  40.0589561  73.3516617
  12.8796301  39.8193970  74.2636871  12.3772326  40.9534225  73.3961792
  63.4103279   7.0936856  17.4450779  62.8061142   7.7353721  17.8184357
  63.0872116   6.2492752  17.7593994  73.4959564  37.6789131   6.3413296
  73.9498596  37.7962914   5.5068088  74.1309204  37.2281876   6.8980165
  49.3940735  34.3393173  12.9933367  49.9343987  34.1987801  13.7708530
  48.7265091  34.9646339  13.2754154  16.3834419  45.0094910  38.6697960
  15.9939947  44.2133446  38.3082466  16.6829891  45.4988632  37.9036255
  18.1476402  70.0138397  38.5772858  18.4693069  70.8831940  38.3385735
  17.2576599  69.9830322  38.2262650  15.0426359  50.1747055  45.7119598
  15.0226421  49.2667694  45.4095001  15.6554146  50.1687622  46.4472847
  61.6857262   7.0073004  52.6376038  62.4024849   6.4186134  52.4010925
  61.5592804   6.8658509  53.5758133  69.2394867  21.4098263  58.6118011
  68.8452606  20.5542030  58.4423027  69.4309769  21.4037609  59.5496292
  85.2776947  29.0135002  39.2269745  85.9999619  29.5401096  39.5693932
  84.7014313  29.6467667  38.7990494  38.7532196  40.4475822  75.0517654
  39.4369507  40.9667625  74.6284561  37.9635277  40.9829750  74.9744949
  54.5526886  12.1417408  61.0692673  53.6109619  12.3131275  61.0721436
  54.8642731  12.5298615  60.2516441  28.0008774  46.1935349  42.3835793
  28.6785164  45.5743523  42.6549683  27.4034996  46.2372704  43.1302109
  40.0733147  62.6228027  86.6987762  39.6039696  63.4178391  86.9514847
  39.9406128  62.5566750  85.7531281  50.4891090  24.1899872  31.2342205
  50.6700211  23.5684681  30.5290852  50.5804520  25.0502472  30.8245373
  11.1635122  13.1666403  59.5696220  11.6128283  12.6712790  58.8848114
  11.4409246  12.7518492  60.3864594  44.0683403   1.9016414   8.0211449
  44.0643616   0.9935266   7.7185836  43.2046814   2.0268602   8.4143982
  11.0402403  56.9501953  78.3657455  11.2668924  57.5464859  79.0793915
  10.4805307  56.2897377  78.7740936  31.5745678  47.2715378  18.3765564
  31.3960056  46.3882713  18.0537796  31.6394882  47.8069572  17.5857697
  84.8313065  53.8417969  59.7277489  84.0732346  54.1445999  59.2278709
  85.5610352  53.8923340  59.1103592  67.2228241  26.5788212  61.9649811
  66.3873901  26.1118221  61.9786110  67.0567780  27.3510113  61.4242516
  20.1064987  38.3692322  77.0082855  20.9450607  38.8153648  76.8899155
  20.3435555  37.4716492  77.2414932  11.9080801  60.0348892  71.3786926
  12.7598171  59.6451454  71.5758591  11.9092617  60.1446648  70.4278107
   2.8306260  17.9202652  72.8920746   2.4307046  18.4910984  73.5481567
   3.3165567  17.2724838  73.4024506  80.5790710  62.8765221  47.6470299
  80.9001846  63.3370705  46.8717766  79.8171844  63.3831978  47.9281731
  12.2890282  36.1999321   3.7263629  12.6398754  35.5362206   3.1325390
  12.6042309  37.0306206   3.3702183   3.2947419   4.5665703  20.7318115
   2.9760766   5.0053821  21.5205631   2.6027277   3.9443722  20.5077171
  54.7278824  31.0767670  32.9988518  55.0497627  30.3506756  32.4646111
  55.5186958  31.4776535  33.3596001  81.3633347  47.4706688  57.6939163
  81.1514587  47.7484398  58.5850830  82.2975540  47.2642288  57.7231140
  64.6051102  30.0814476  46.9697227  65.1496735  30.8239975  47.2310638
  65.1565247  29.5795670  46.3694801  64.8680954  13.5982933  20.0921154
  64.3352356  14.3813858  19.9540691  64.9719391  13.2221136  19.2180805
  27.8338318  62.4017601  54.4581604  27.0501575  62.9083557  54.2449837
  27.5668926  61.4893303  54.3465996  62.9437981  48.6061211  47.1315155
  62.3704987  48.2783127  46.4386215  63.6623459  47.9747047  47.1665878
  46.1022491  17.7697182   1.5411403  46.4555664  18.6538486   1.4425913
  46.6837730  17.2195339   1.0163935   8.5124588   6.6456952  43.3330688
   8.2664633   7.4824662  43.7274437   7.7265120   6.1046844  43.4093971
  17.9535847   1.1380639  86.5013962  18.0987568   1.6184883  85.6863174
  17.1280174   1.4846052  86.8398895  67.8756409   9.2276144  82.1531525
  67.9605103   8.4234867  82.6654129  68.1245422   9.9252300  82.7594681
   6.3160491  43.2469940   9.9411383   5.5005903  42.7816620  10.1274843
   7.0015988  42.6793137  10.2932625  50.8664284  36.0432243  82.1222839
  50.3731537  36.2576523  81.3304901  51.2420158  36.8774490  82.4037628
  52.1908112  10.6783314  40.9428062  52.6776085  11.3619776  40.4824944
  51.5625229  10.3554411  40.2968712  86.2539139  23.4553757  35.5353127
  85.3974533  23.2137661  35.1827126  86.2061386  23.2210178  36.4621506
  54.6569672  13.3413620  44.2900124  55.2867279  14.0601177  44.3450050
  53.8640900  13.6856413  44.7011681  29.3212147   2.6550050  20.2523041
  29.2811985   3.5861695  20.0342159  29.0556164   2.6125371  21.1709366
  73.6136932  53.9852448  37.6872597  74.5632248  53.9285202  37.5804329
  73.2636566  53.8139458  36.8129807  40.6650505  17.2105885  73.1563492
  41.4088402  16.9692135  73.7083817  40.5690575  16.4766235  72.5494614
  61.6167831  18.2171535  48.0719566  60.7611732  18.6457462  48.0501595
  61.8352890  18.0716324  47.1514587  24.6412354  65.5038300  32.9047775
  24.0418549  65.9602432  33.4952583  24.2512302  64.6371918  32.7905045
  53.3203087  35.2072296  75.4051971  53.2879715  34.9270515  76.3199081
  53.8266983  36.0193558  75.4212189  33.8999901  59.4190750  43.5287895
  33.9969711  60.0579300  42.8226089  34.7402382  59.4389839  43.9868431
  59.5681000  24.8248558  13.4751492  59.8915749  24.0180931  13.0742378
  59.4583397  25.4296570  12.7413902  79.0485382  68.4512558  33.1739616
  79.1707687  67.7024918  33.7576065  78.2866516  68.2192001  32.6430092
  16.0454102  58.9249496  23.4108868  16.9105186  58.9528923  23.0021820
  15.4978943  58.4564056  22.7808666   4.2446504  64.1590576  52.1540489
   3.4412115  64.3360825  52.6433144   4.0431590  63.3793182  51.6367111
  83.9714127  68.0183716  53.3433495  83.5205688  68.0195236  54.1877251
  84.0177231  67.0943604  53.0978165  26.6536827   3.4378326  63.3935928
  26.2477894   4.2706699  63.6341438  27.5926914   3.6232512  63.3830032
  66.3246231  47.3534279  42.3247528  65.6293564  47.1148605  42.9378700
  67.1222687  46.9985886  42.7172852  57.6529312  13.1793823  13.2011089
  58.5216064  13.5232325  12.9927778  57.7280998  12.2359495  13.0578766
  22.6186314  31.7164326   3.5771770  22.5517960  32.3867378   4.2572184
  22.4585400  32.1878548   2.7596424  66.8982925  14.8743277  11.7909822
  67.7501602  14.7007713  11.3904352  66.6928558  14.0735254  12.2734146
   4.3060169  57.2776413   7.3794808   3.4795115  57.7380638   7.2341223
   4.0695763  56.3502388   7.3635249  17.6208687   4.3539305  47.2236786
  17.9502621   3.8229122  47.9487648  16.8235836   4.7582912  47.5658226
  44.1679344  46.4118233  56.6558533  44.7515755  45.8931580  57.2095528
  44.6527176  46.5268478  55.8385506  10.7657480   5.1088071  33.9997749
  11.3240414   4.4081130  34.3367767  10.6508217   4.8987036  33.0730171
  70.1951523  29.7300014  56.3474960  69.7317429  29.9593735  57.1530190
  69.5835876  29.1686993  55.8708839  21.2720299  41.9693565   1.5033342
  20.7821026  42.4105072   2.1973011  20.7094383  42.0382690   0.7319878
  31.7338581  71.5997238  10.6258945  30.8644714  71.2064056  10.5504122
  32.3205872  70.9644852  10.2154722  53.0624733  26.6884098  58.0445900
  52.5517273  25.8793736  58.0734177  53.8138580  26.5176716  58.6124840
  14.6616554  70.6062088  81.2817993  15.1230192  70.8671875  80.4847641
  13.8214092  71.0620270  81.2323151  56.9183464  46.3525429  66.1874008
  56.2321777  46.7682648  66.7094955  57.7168427  46.4738426  66.7011337
  52.6107101  16.2014675  14.4567833  52.1723518  16.8470650  15.0111113
  52.8055000  15.4726954  15.0460014   1.7297498  42.8946915  60.4538574
   1.5651987  42.3630180  59.6750908   2.1554759  43.6840668  60.1193733
  51.4895744  43.7738266  77.5899734  51.6972313  44.3656883  78.3130341
  50.8089104  44.2298889  77.0950699  11.5960464  39.5537376   6.5113015
  12.5458937  39.6446686   6.4354477  11.4467487  39.3648262   7.4377217
  40.7965088  40.4677277  19.3030128  40.7724838  39.6210976  19.7489605
  40.4949913  41.0938148  19.9612961  55.2907753  27.9203281  88.0395432
  55.6745186  28.3183880  88.8209000  54.7356987  28.6065655  87.6691360
  13.0351992  31.7078342  85.5957031  13.8762884  31.2938461  85.4022751
  12.4109020  30.9826012  85.6184998  62.2970009   6.4512758  49.2503471
  61.7472115   5.7058158  49.4917030  61.6952972   7.0672264  48.8322716
  65.8817673  17.2799263  58.2248192  66.3602753  17.1071510  57.4140091
  65.1108704  17.7747650  57.9471779  73.5355759  61.3558044  52.5358467
  72.6802444  61.2090149  52.9396935  73.6496429  62.3059883  52.5551109
  38.9589806  10.9301167  34.9127998  38.6214218  10.5105143  34.1214600
  38.3368988  11.6345978  35.0943260  80.5014725   7.2692070   1.8391423
  81.0012436   6.7365656   2.4578133  79.5917740   7.0045218   1.9755658
  51.5470009  67.1421738  79.7631302  51.9452400  66.6839066  80.5031509
  50.7201691  66.6834717  79.6142273  71.1860962  47.8996887  10.1985044
  70.9667892  47.4986343  11.0395126  70.8245010  48.7842560  10.2534380
  71.9633408  26.2950974  20.9082108  72.5225601  25.7001915  21.4077988
  72.5549393  26.9857693  20.6095333  77.8516388  44.6932297  23.6464405
  78.3956375  44.1886101  24.2511349  77.2169189  45.1371956  24.2088070
  74.9068604  64.7228928  10.9918766  75.5792465  65.0311356  11.5994196
  75.3900146  64.2250443  10.3323822  51.4766388  11.8610106  77.1053467
  51.1424942  12.0915594  76.2384949  52.2743225  12.3814240  77.2007446
  51.8984184  55.6972504  67.8060455  51.5384827  54.8428192  68.0440063
  52.2054176  56.0668106  68.6339340  37.0486603   1.4692714  37.7112160
  37.5342331   2.2941647  37.7099495  36.8323402   1.3200928  38.6316414
   8.2142982   0.2807697   1.6123501   8.2299490   0.5977045   2.5154221
   9.0039415   0.6486696   1.2156821  61.2782440  48.0489082  31.8708706
  61.8784828  48.7944794  31.8791428  60.7270088  48.1766319  32.6429214
  20.8870869   6.7396736  39.8266335  20.0091515   6.5153241  40.1350632
  21.3157883   7.1306071  40.5879593  83.2188034   8.2139263  42.9333267
  82.8585281   8.6399603  43.7111015  82.7588577   7.3758898  42.8845558
  43.8587990  23.6997414   2.3799105  43.7545204  23.2053738   1.5669175
  43.5117531  23.1207104   3.0585208  12.2470274  59.5701866  38.0428238
  11.8646698  59.2136230  38.8446350  13.1582575  59.2776985  38.0613632
  81.3025055  23.1288738  65.8647995  80.6781769  23.5363731  66.4651260
  80.8719864  23.1650257  65.0106430  34.3106842  21.4338551   7.7326727
  34.0877876  21.7632256   6.8620038  35.1517448  20.9925957   7.6137462
  56.4127541  25.9753971  34.3338737  57.2945480  25.6836090  34.1025009
  56.3954544  25.9501858  35.2905884  33.6231880  51.1010742  31.3608532
  33.0403442  50.5134125  30.8800411  34.3106880  51.3230858  30.7329330
  58.5551910  50.6507492  25.7047195  57.6034775  50.7023888  25.7931042
  58.7246666  49.7387619  25.4685192  56.0471725  34.7039185  27.8243122
  55.7725105  34.0352859  27.1968403  56.8890076  35.0141068  27.4906483
  38.8190613   9.1060419   3.6536889  37.9835052   8.8814392   3.2442651
  38.5913010   9.3286533   4.5563512  79.4578705   0.1536607  25.5927181
  79.1311874  -0.3832425  26.3146877  80.3299637   0.4294701  25.8748970
  31.7351437  11.5875130  82.3319473  32.2889824  12.2070618  82.8069687
  31.9943790  11.6880007  81.4160156   9.2141867  68.5765762  71.9656219
   8.8758154  69.2755814  72.5251999   9.7156887  68.0168152  72.5584106
  48.8681335  42.3037338  66.7421417  48.5488892  43.1266632  67.1124115
  48.0789757  41.7782784  66.6103897  37.4036751  41.6519852  87.9760284
  37.5605240  42.0640068  87.1263962  37.9328766  40.8546104  87.9568787
  79.1440048  14.6518784  18.3919621  78.7502747  13.8348398  18.0859203
  79.9333344  14.7514648  17.8597279  46.6870346  18.8777599  11.1209497
  47.4376564  18.2957821  11.0022087  46.3297958  18.6365643  11.9756069
  41.6725883   5.8297191  62.1915512  41.7549362   4.9107337  61.9367638
  40.9396248   6.1579170  61.6707039  45.0781517  65.2572098  60.2399940
  44.4226227  64.5597992  60.2283096  45.2615356  65.4290466  59.3163719
  46.6123276  27.1622696  13.3045721  46.3129959  27.0216179  14.2028198
  47.0576744  26.3480282  13.0702486  29.9776745   0.5880635   4.8471112
  29.7408886   0.9003284   5.7204123  30.9338951   0.6276733   4.8296938
   6.0953612  55.4249420  43.0855179   6.5346127  54.5792999  43.1759491
   6.5246706  55.9879303  43.7296982  59.2057533  62.8371353  30.1425209
  59.7696724  63.4946671  30.5498047  59.8123436  62.2362022  29.7099056
  28.1358318   3.9070308  51.5492477  28.6676102   3.2351365  51.9758644
  28.7066708   4.6743202  51.5087357  73.1097794   5.1629767  26.3970242
  73.9437714   5.5511746  26.6615829  72.6148911   5.0800757  27.2121620
  10.4439430  28.4133434  11.4417505  10.5230465  29.1086407  12.0948467
   9.5158463  28.4091873  11.2075491  32.7889328  56.2939224  36.8288956
  31.8962269  56.3787384  37.1637306  33.0308075  57.1814423  36.5642433
  61.3091660  26.8318672  46.4435654  60.9057465  26.2759953  45.7768631
  62.2353745  26.8599281  46.2035942  14.0216150  46.2923927  42.3975220
  14.7273121  46.8500481  42.0700417  13.9974194  46.4646492  43.3387871
  69.3309174  46.9096642  20.4978447  68.8082809  46.9245796  19.6960583
  69.5639191  45.9886475  20.6147652  75.2961197  19.7506561  12.1836920
  75.0202789  19.7561531  13.1002693  75.7607803  20.5795307  12.0684347
  54.1161537   2.1851583  69.7522049  54.3557892   2.9625382  69.2477341
  54.9521408   1.8233227  70.0461960  71.3909149  65.6793289  81.9102707
  71.4095764  65.3539352  81.0102692  72.0218582  66.3991165  81.9178543
  70.9949493  54.5955467  44.3410263  71.4296341  54.8029175  43.5138168
  71.5315170  53.9029160  44.7265015  28.2391796  56.9894142  77.3061676
  28.7133446  56.1584969  77.3373489  28.3156528  57.3422356  78.1926804
  11.9460402  61.8026810  42.2831612  11.4875126  61.3360634  41.5844078
  11.4468479  62.6111565  42.3989449  51.3933525  54.4057732  26.3485641
  52.1244621  54.2537384  25.7497349  51.7108116  54.0973740  27.1972942
  68.2621765  40.4193573   8.1052151  67.4963608  39.8591461   8.2313738
  67.9235535  41.3106270   8.1901150  86.3653946  17.1307392  85.2642288
  85.7876816  17.7711887  84.8491364  85.7773590  16.4393063  85.5681458
  80.5778656  37.4149208  24.3055763  81.4250870  37.8544350  24.2329865
  80.5362473  36.8465080  23.5365486  58.8301201   7.3742981  63.4616241
  58.4716988   6.6266112  63.9398842  58.9165077   7.0631361  62.5605431
   9.3442278  63.8984795  12.9774656   9.2915401  64.4118729  13.7836199
   8.5986013  64.1949310  12.4555540  34.2351646  17.4134598  66.0697479
  33.8605690  16.6308537  66.4740219  34.9921646  17.6260548  66.6156311
  69.2365036  18.8910084  51.7133904  70.0117950  18.6273022  52.2089882
  69.2059555  18.2827492  50.9749336  17.4441490  54.2775345  66.2693405
  16.9074020  54.4957962  67.0312424  16.9150867  54.5469894  65.5185318
   5.8836637  48.5608749  76.3000717   6.2619510  47.7019005  76.4879379
   6.6402912  49.1320915  76.1679459  80.4784698   4.6194963  15.2046814
  80.3679047   5.2862039  14.5268097  80.2656631   5.0708528  16.0215187
  68.0899048  11.7066288  56.8685684  68.9850845  11.8653822  56.5690994
  67.5674438  12.3764782  56.4274712  79.6403503  24.5304966  72.2267380
  80.0874939  23.8251762  72.6945190  78.9384003  24.8025951  72.8178940
  63.0442581  50.5601463   0.8713648  63.8719940  51.0296326   0.7680815
  62.3875771  51.2502251   0.9651558  65.6912003  12.9966507  60.7712402
  66.4755783  13.1488371  61.2983284  64.9795837  13.3786373  61.2849731
  25.1180553   9.2799597   2.1251817  24.2667503   9.6900167   2.2780390
  25.0889511   8.4703798   2.6350496  42.9057922  65.8562241  56.6794128
  42.4772797  65.2150116  56.1124344  42.2484436  66.5402069  56.8070488
  68.2899399  52.4721870  21.5975132  68.0362930  51.5510750  21.6562214
  67.7209854  52.8344727  20.9183445  45.6933556   6.2531667  63.0395088
  46.2704735   6.9590454  63.3308907  46.1665077   5.4507065  63.2595482
  83.6940842   7.4293303  25.6701908  82.9559555   7.9285574  26.0197124
  83.3311462   6.9588971  24.9197254  11.4149475  21.9988441   1.7094045
  11.2441139  21.2490902   2.2794182  12.3692226  22.0701981   1.6870534
  56.9110641   3.6847553  33.9829025  56.3251228   3.2372181  34.5933228
  56.4825706   4.5231943  33.8107262  73.1705627   1.9590194  12.2818031
  72.8713608   1.6795422  13.1470203  73.7837372   2.6722863  12.4592686
   0.3226607   6.1573615  83.2152328  -0.0237611   7.0470729  83.1471252
   1.0675889   6.1437306  82.6142883  60.0551376  17.0289078  14.4097462
  59.2904739  16.9302006  14.9770021  60.6523247  17.5871239  14.9077349
  63.6726303  39.5763092  24.7915325  63.7123070  38.6242447  24.7008190
  63.7479515  39.9055862  23.8959122  68.3973160  18.7984734  31.0682335
  67.9596939  18.6975498  31.9135342  67.8837051  18.2593441  30.4667492
  32.4992943  16.0032978   6.1407399  32.6089592  15.3458366   6.8277264
  31.8492336  16.6113720   6.4927297  65.9472961  33.6270180  76.5030899
  66.3779449  33.3314438  75.7009659  66.4272614  33.1910667  77.2072372
   9.4791613  51.1761780  42.9083443   9.8536463  51.4893875  42.0849991
  10.2380838  50.9477577  43.4450836  61.5401611  51.7245331  64.9434891
  62.2077942  51.1362495  64.5907593  60.8714867  51.7653198  64.2597885
  81.3966599  57.9354935  53.6240616  80.8781281  58.7247276  53.4676437
  82.2992477  58.2491798  53.6804237  47.2015953  69.1178665  17.2672062
  46.9362488  69.6706924  16.5322132  48.0145836  68.7054062  16.9753933
  53.6278763  56.5262489  34.9747391  53.7362137  56.2612495  34.0613556
  54.3747063  56.1348991  35.4278641  23.8728390  50.3081512  83.5500412
  24.5892544  49.6848793  83.6705093  23.0877399  49.7631950  83.4964371
  83.7948074  60.0629807  12.8073845  83.9816284  60.5210686  11.9879427
  84.5328217  59.4640160  12.9205790  20.2507591  70.6334686  14.6448526
  19.4288502  70.8804626  15.0687504  20.5465031  71.4338455  14.2110748
   1.1015775  47.6358147  71.2215729   0.1788788  47.6766777  71.4729462
   1.5317792  48.2799454  71.7839355  10.9948454  59.5080986  40.4212265
  10.4077425  59.5279884  41.1769676  11.8480034  59.2742043  40.7868042
  21.6029186  67.2187042  28.6243153  21.2799168  67.9649506  28.1193256
  21.8837547  67.5969086  29.4575748  21.4249554   2.4773614  45.1778793
  21.4819469   2.2229567  44.2568665  20.8397732   1.8290590  45.5696678
  40.9039764  67.0498123  18.9881344  40.8070984  66.6443329  18.1264896
  41.5381393  67.7536926  18.8516674  67.8753815  43.4983215  21.6156673
  68.7296600  43.5320816  21.1851959  68.0144806  43.9307671  22.4582062
  19.4460182  30.6669064  82.9990540  19.8831253  30.7676277  82.1534576
  19.8154449  31.3618031  83.5439148  59.9027100  58.2052078  16.7863026
  60.0306549  57.5936356  17.5114498  58.9602242  58.3721428  16.7772274
  35.1940193  40.4568481  85.6587372  36.1023407  40.1556854  85.6367493
  34.9694443  40.4728317  86.5890884  25.0672455   4.5986276  54.0157967
  24.1147842   4.6922183  53.9986725  25.3059235   4.4118838  53.1078377
  40.8919258  57.2488174  53.9741974  40.8625183  56.3332176  54.2517738
  41.7815094  57.5339279  54.1829605  79.2951050  43.3389168   1.3312384
  79.4749146  42.8728409   2.1477406  78.4650879  43.7885056   1.4898752
  25.0522404  58.2617302  37.8696785  24.1242599  58.0797729  37.7214432
  25.4810486  57.4110947  37.7760086  40.6950874   6.3129282  32.0344620
  39.7425690   6.4027748  32.0049973  40.8918686   5.6353226  31.3876534
  17.8951073  39.7611122  85.7275848  16.9550018  39.9072876  85.6223755
  18.2912750  40.1979561  84.9736328  63.3771286  65.7762909  53.4189034
  62.8024445  65.0343399  53.2305222  63.0375710  66.4865417  52.8744125
  46.4468918  15.4235954   3.4407628  46.1447220  14.5278931   3.2902968
  45.8980179  15.9607038   2.8693767  69.9912643  33.2824554  23.0376549
  70.4426498  32.8268318  23.7482109  69.1038666  32.9238014  23.0487499
   7.3162494  27.6092148  81.5843124   6.9480062  26.7546215  81.8085938
   6.7756190  28.2364445  82.0644531   1.9129174  58.2281227  46.4631615
   2.8127036  58.0857315  46.7570000   1.9390249  58.0595245  45.5212860
  17.0251865  54.4051704  35.4708176  17.2020149  53.9819946  36.3109856
  16.5554752  55.2069130  35.7006226   6.0682263   2.7443919  74.9750214
   6.0479722   2.5371399  75.9092941   5.9272747   1.9034702  74.5400314
  86.8740463  19.4629135  32.3646202  86.6957779  20.3956032  32.4852142
  86.3086853  19.0266380  33.0020065  68.8365021  65.5877914  21.8694935
  68.4639435  65.7026749  22.7437000  68.9945374  64.6464157  21.7983093
  21.8759804  55.9349518   4.3778687  22.0988750  56.7132721   3.8672123
  21.7053566  56.2674370   5.2591028  14.4504633  69.4203491  72.0671234
  13.9188910  69.2239761  71.2957001  15.1114006  68.7281952  72.0850754
  39.4261284  63.0647926  16.3794651  38.8569412  62.4300880  15.9442596
  40.1006622  62.5321732  16.8008385   9.0980034   6.3418317  68.7902222
   9.9283705   6.2961831  69.2641830   8.4447517   6.5161929  69.4677887
   5.9859281   2.5770607  23.9180794   6.3998709   2.1328447  23.1781101
   6.1463962   1.9995356  24.6643677  68.5300980  61.1343803  81.0741501
  68.3620758  62.0765800  81.0579300  68.2730637  60.8302383  80.2037125
  35.1183586  52.3078842  64.4029922  34.3573608  52.4092140  63.8312798
  35.8281593  52.7504311  63.9376259  53.3770676  34.0101929  21.1239185
  53.6015663  34.7031441  20.5029087  53.8244095  34.2592163  21.9326839
  43.8426094  60.0628662  58.6276817  44.5636864  60.5763168  58.2634697
  44.0133247  60.0445786  59.5693550  61.2493515  24.0394058  17.2936134
  60.6861610  24.3436756  16.5819473  61.6221313  24.8399162  17.6630039
  84.1876450   0.2688799  28.4673977  83.7790375  -0.4020202  29.0143585
  83.4737015   0.6024303  27.9240227  75.7964859  19.1449833  25.0660877
  75.2727890  18.6455193  25.6925964  76.5573502  18.5902958  24.8939495
  27.5180664   8.7722454  86.5445633  27.9566479   9.4430609  87.0679016
  28.0663414   7.9940219  86.6445312  12.6694307  70.6623688  67.9358597
  13.1431293  69.9820480  68.4144058  13.0198097  70.6175385  67.0462265
  47.3525925  48.1818695  34.4606705  47.0104790  48.4280853  35.3200684
  46.6689301  48.4475174  33.8456345  67.2619476  59.2965469   7.2039938
  67.4222031  59.7391891   6.3705559  66.5167770  59.7624969   7.5832562
  49.5632706  60.1740685  53.7269745  49.3850288  59.4313278  53.1500893
  49.8497620  59.7756615  54.5488167  11.7036695  66.1057510  68.7899399
  12.1397533  66.7317886  68.2118835  10.8161354  66.4500351  68.8898468
  55.4523354  20.1654015  31.8117275  54.8083458  20.2491837  31.1085281
  55.1468163  20.7684402  32.4893951   9.9933424  70.0420609  67.6875305
  10.9234228  70.2508621  67.6004257   9.5470657  70.7206879  67.1810379
  11.4590359  13.8095093  10.4413786  10.8215218  14.5054092  10.6011591
  10.9474859  13.0016012  10.4841986  59.1759949  11.1052303  77.2475204
  59.5053558  11.3324070  76.3779602  58.4818687  10.4673462  77.0816116
  51.5924797  68.7228622  44.7212372  51.2642479  68.9818573  45.5822906
  52.1983604  68.0042267  44.9020996  60.8238869   5.7105927  82.8639450
  60.8377533   5.6578131  83.8195877  61.1402168   4.8555665  82.5722351
  15.0441771  64.8869629  64.0887222  14.2911577  64.3403397  64.3132248
  14.6647673  65.7361526  63.8625450  14.4413195  31.3870430   2.4312911
  14.0238628  31.3021393   1.5741135  14.3346567  30.5261765   2.8359668
  54.8273163  61.0100708  50.2391586  54.2834854  61.4558945  49.5897560
  54.2125435  60.7389755  50.9209137  23.0983334   3.6776378  33.8561172
  23.4076900   2.8679602  33.4499779  23.5171623   3.6891124  34.7167473
   8.1508589  34.4879456  56.7018471   7.9859118  33.9403496  55.9342728
   7.7435455  34.0134697  57.4265518  71.2787094  66.1755981  39.6110458
  71.0994492  66.1732864  38.6707840  71.9377213  66.8599701  39.7275505
   3.8443921  24.9163818  87.5928879   3.7636466  24.1086273  88.1000824
   2.9470060  25.2397022  87.5129242  81.3659134  25.1753025  32.1305733
  81.4589081  25.9722404  32.6525650  82.2649994  24.9026127  31.9475060
  43.0697098  51.3203773  87.5344543  43.2336121  50.5971756  86.9291916
  42.1701927  51.1843872  87.8321304  24.9563694  18.4645481  46.4417381
  24.0003357  18.5024605  46.4135857  25.1634960  17.5398998  46.3062592
  82.0923462  43.7562370   1.9160153  81.6627502  43.4387512   1.1217299
  81.4289246  44.2938194   2.3485842  49.1526375  22.7334023   7.4312644
  49.6613922  22.8355331   6.6269202  48.5291519  23.4594898   7.4141288
  46.5671158  21.1287518  72.9003906  46.9234238  20.9704666  73.7745895
  45.8533936  21.7507420  73.0416565  81.6268539   0.4372093  76.2533340
  81.5302582  -0.0196977  75.4177933  82.4655304   0.1308443  76.5982971
  60.2536163  46.3802299  47.5870895  59.5633926  45.8128166  47.9304008
  61.0535889  45.8611412  47.6697006  47.6601028   0.6885144  18.7119656
  47.7952080   0.2725618  19.5634117  47.4361763  -0.0339271  18.1253071
  52.1965981  57.7993126  50.4278107  52.5495987  57.5711098  49.5678444
  52.4052162  58.7274780  50.5337410  75.3706741  56.4610138  82.1432724
  74.7315521  56.1813202  81.4878998  75.9006042  57.1201477  81.6949997
  74.9601059   3.4697561   8.8695517  75.4511642   4.2116747   9.2226114
  74.4460297   3.8419762   8.1530256  57.5723114  44.5006828   8.8047686
  57.5843086  44.1466255   9.6939993  58.4755516  44.7733154   8.6433182
  45.9232559   8.4361439  57.9308777  45.2014694   7.9394665  58.3163185
  46.4874191   7.7713547  57.5358963  62.3265343  58.3896980  35.7502785
  63.0507050  58.7824860  36.2376404  61.6802025  59.0916557  35.6745033
  70.9238815  34.3498840  34.8790588  70.7933121  34.1062279  33.9626427
  71.8399353  34.6235199  34.9259605  29.1891327  48.5382118  17.0071106
  29.5192223  49.4297371  16.8955116  29.6409168  48.2111588  17.7850323
  30.4883614  52.9677505  31.4291306  31.3659458  53.3495598  31.4463520
  30.5925102  52.1498375  30.9429188  75.0888977   5.4987192  53.0680885
  75.6835785   5.5444789  53.8167496  75.0437775   4.5667062  52.8546715
  67.0522919  25.3829670  12.8531113  67.5128632  24.8070354  13.4633646
  67.2941208  26.2669964  13.1292257  12.4337835   4.3122740  83.9096985
  12.0350695   4.8583212  84.5872574  13.2039337   3.9313068  84.3315506
  57.6515045  28.7364273  36.8080597  57.5752296  27.8142319  36.5631752
  57.5377693  28.7420635  37.7584610  59.0743980   3.7957373  85.2580872
  59.3118210   3.6751556  86.1774979  59.0332069   2.9078236  84.9029160
  13.7331161  33.8651810  72.7306824  13.0254421  33.7162666  72.1035843
  14.0294218  34.7572632  72.5500565  58.5327644  53.1498451  77.6243515
  58.8334923  53.3151855  78.5179214  57.8242989  53.7792778  77.4897537
  37.9750023  71.3164673  70.6824112  37.7286568  71.0694580  71.5737762
  38.7928352  71.8029175  70.7860336  54.1307068  10.4904871  52.0874863
  53.2636681  10.0852003  52.1023979  54.4931335  10.3127460  52.9554100
  51.6797676  20.5050430  14.1595106  51.7316780  21.3852978  14.5319185
  52.2675819  20.5293713  13.4044533  56.1841240  46.8033180   0.0972795
  55.4197502  46.3904686   0.4991759  56.8620834  46.1280670   0.1226015
  68.6539307  25.2907581  21.7221909  68.3698883  25.0607910  20.8375053
  68.6153793  26.2469063  21.7451668  61.6163864  31.9105644  16.3856163
  61.9277191  32.7637215  16.6879902  61.8899002  31.2995529  17.0697861
  15.2603922  47.3990440  82.1481628  14.4737597  47.5865211  81.6360168
  14.9299326  47.0446205  82.9736404   5.9570427  64.3963165  44.8555565
   5.4799619  63.5793152  44.7101898   6.0968113  64.4269180  45.8020020
  80.7242279   7.2078538   9.9391308  79.9059525   6.9902501   9.4926968
  80.7449799   8.1647854   9.9482031  65.5750046  54.2681808  22.7105389
  65.1677551  53.8332748  23.4596977  66.0684586  53.5758057  22.2708168
  26.9902267  67.2071686  75.5248718  27.4345798  66.6982956  76.2029800
  26.4500637  67.8315201  76.0092621  48.5467834  64.6390991  41.7696838
  47.9264526  65.0101547  42.3971672  48.0032005  64.1315689  41.1670494
  62.1741295  59.1217346  48.8699646  63.0684280  58.7833290  48.8259010
  62.1396561  59.7964020  48.1918297  62.6737938   4.9634295  70.8713989
  63.4373817   4.3894768  70.9325867  63.0211792   5.7890563  70.5339127
  55.2611694   1.5332792  43.0250473  55.4001427   1.5678340  42.0786209
  55.6942825   2.3186114  43.3595581  23.9850216  70.6002960  55.4280014
  24.1936893  71.5333786  55.4731865  23.7556973  70.3623734  56.3263550
  69.0044403  48.3938332  79.5878220  68.9141159  48.3114586  80.5371857
  69.1199417  49.3322716  79.4387512  34.5733414  58.4607086  60.1664467
  34.6039124  57.8401489  59.4382973  33.6529999  58.7174149  60.2238846
  85.7567520  14.8268728  39.0827217  85.3115387  13.9900646  39.2160225
  86.6822586  14.5958128  39.0034485  38.5076027  67.9571304  20.0054684
  38.7424088  67.4804001  20.8015976  39.2944641  67.9177475  19.4618416
  19.1757030  67.1380615   9.1809740  19.8755569  67.7655029   8.9999866
  18.7020397  67.0620728   8.3526621  50.7696533  47.9357414  55.9616852
  50.4701309  47.5262756  55.1499901  51.5816803  47.4765434  56.1761322
  28.4508038  54.7334480  85.9731522  28.7975121  54.5852928  85.0933304
  28.5565395  55.6738472  86.1170349  11.7553625  28.5788574  18.0454903
  11.7531500  29.3758812  17.5154133  11.5775967  28.8827076  18.9356060
  27.0281029  63.3156052  40.5593567  27.2040844  63.4421616  39.6270218
  27.8845520  63.1224632  40.9406967  52.9633865  36.6873474  28.7703228
  53.0809059  37.6343613  28.8450890  53.2982330  36.3384895  29.5964031
  28.1786633  64.9055557  62.8820992  27.3561802  64.7364197  63.3416061
  28.6233082  64.0580368  62.8670845   5.4169674  64.5879745  56.6802673
   6.1607304  64.6695786  56.0832863   5.4248619  63.6691666  56.9485397
  43.0118713  35.9626122  54.8533821  43.8843155  35.8983307  55.2418861
  42.7420578  35.0541306  54.7188568  59.7862244   3.9842007  11.4048376
  58.9274597   3.9415998  10.9841900  60.1117630   4.8599172  11.1965685
  76.3958511  39.5480461  15.5838223  76.5414429  40.4938545  15.6058207
  76.2261734  39.3532066  14.6621513  31.8601093   1.6055251  75.9016342
  31.3088417   1.7720859  75.1370468  31.2911396   1.7835792  76.6505051
  13.4358072  25.1484928  10.3560066  14.3573503  25.0301666  10.1258163
  12.9703999  25.0836582   9.5220852   1.1646676  39.8793411  30.9946976
   0.8879241  38.9967384  30.7484112   0.9498169  39.9468613  31.9250278
  83.2890472  57.9277611  37.0150299  84.2316055  57.8651505  36.8604698
  82.9202042  57.1741600  36.5542984  22.8237667  57.8757439  40.5568237
  22.5326519  58.5488052  39.9416275  23.5854855  58.2607040  40.9902077
  37.5367966  53.8915558  36.9582558  37.5417404  54.8242722  37.1733017
  38.4444771  53.6129608  37.0796204  84.3571243  19.4536133  77.5387802
  85.2968826  19.3786564  77.7044830  83.9513092  19.3167534  78.3948288
  78.9250031  33.5626411   5.9069858  78.7208710  34.0370636   6.7128911
  78.8958740  34.2305489   5.2219443  23.4365292  37.2342148  34.9472618
  22.9267464  36.5323448  35.3519058  23.4734535  37.9190216  35.6150246
  15.8700933  14.8957777  18.1479645  15.4329081  14.2095776  18.6521778
  16.8038998  14.7308292  18.2784595  -0.1475898  28.4466248  27.0572109
   0.3141100  27.7932415  27.5827160   0.0880102  29.2844563  27.4556618
  16.7398243  45.7843018  67.8238678  16.3601646  44.9780426  68.1732025
  17.2330990  46.1537209  68.5562897  18.8359127  49.6144409  32.4805794
  18.4011478  50.4434700  32.6803780  18.3143463  49.2348022  31.7734203
  15.0731583  47.6543655  60.4578476  14.6331444  47.9336090  59.6549530
  14.9599457  48.3890076  61.0609398  18.5936413  17.2581654  20.0957527
  18.8493271  17.9001312  20.7581234  18.2079945  16.5387688  20.5957298
  59.1186943  46.0589333  55.0952454  59.5851364  46.7381592  54.6080894
  59.3048744  45.2507591  54.6173096  26.9193230  62.2563515  16.3622036
  26.3096142  61.5221939  16.2880478  26.8938751  62.4961967  17.2885189
  10.2435484  48.1767502  55.5979233  10.8690186  48.7227745  55.1216049
   9.7589769  47.7150345  54.9136429   3.8970656  53.7569275  84.6259613
   2.9815698  53.9056702  84.8625565   4.3866682  53.9621506  85.4224548
  79.9903488   7.8620138  83.1015244  80.2617188   7.7398715  82.1917572
  80.8102875   7.9687152  83.5837631  63.0241547  49.8897171  63.4481583
  63.6501160  49.2988319  63.8667908  62.4985275  49.3217583  62.8848038
   2.5491548  47.7242928  52.3845139   3.0939448  47.5083008  53.1413383
   2.7451339  48.6434288  52.2028275  80.5042648  31.5433083  14.6110411
  80.2362137  32.3976173  14.2726145  80.3232117  30.9344730  13.8949614
  61.6621513  32.8592567  43.9655228  62.1484566  33.6424065  43.7078171
  61.8499222  32.2228889  43.2755852  73.5571518  63.7311325   3.3916495
  73.6711731  64.1543503   2.5406988  74.3179474  63.1565933   3.4772575
  17.8588829  46.9237785  47.0031281  17.6533279  45.9997253  47.1449280
  18.8079338  46.9779854  47.1153603  34.0748177  39.4238853  77.3954849
  34.6589050  39.2986412  78.1434097  33.9143639  40.3672562  77.3722305
   6.2313089   6.4893112  20.6709652   6.2152228   5.6404386  20.2289371
   6.1557631   6.2764573  21.6011353  73.3709106  69.0563812  62.4634209
  73.8313217  69.4854813  63.1846237  72.7709198  69.7241440  62.1312561
  69.1267776  15.0884542   8.9677496  69.3048248  14.3492861   9.5492640
  68.4564667  14.7640295   8.3663626  74.6617737  71.1621780  64.0738449
  74.9313583  72.0589142  64.2723999  74.3288574  71.2050858  63.1774368
  86.3473282  17.6454029  50.2619247  86.7106476  18.5091362  50.4573669
  85.3993530  17.7779121  50.2655106  75.7841187  36.7189980  53.2114868
  76.0620728  37.3894463  53.8355598  75.1256104  36.2099876  53.6842499
  65.7476044  50.2524490  50.5883026  64.9976196  49.9126167  51.0764351
  65.9712524  49.5524597  49.9749298  41.0877342  16.6201515  62.0749512
  40.7683105  17.2991085  62.6692696  41.1333923  15.8311977  62.6150398
  45.3697701  68.0027847  40.3657951  46.2370758  67.7670822  40.6951294
  45.2521477  67.4566269  39.5885506  53.6282310   7.8086944  59.1198730
  54.3744583   7.8206997  58.5205116  53.2127953   6.9597988  58.9681473
  26.3774433  64.8917999  73.8096390  25.5375347  64.8763809  73.3507843
  26.4117565  65.7571259  74.2173996  25.9684753  60.5191269  81.2761536
  26.0873318  61.2296982  81.9063873  26.8059940  60.4645958  80.8159180
  15.3966217  36.7409935  86.9007492  14.9033747  35.9926758  87.2368546
  14.9016056  37.0292015  86.1338577  37.7803802  61.0035210  24.2106476
  37.8320160  60.1460495  23.7883778  38.6888008  61.2244301  24.4160728
   0.6108849  35.0084190  17.7774982   0.7966098  35.1072197  16.8437023
   1.4649609  34.8385696  18.1749115  10.9634619  59.5254593   9.8769979
  11.2663898  60.4276314   9.9796963  10.1895962  59.5948257   9.3179331
  25.3603287  57.1735306  27.0332909  25.1162243  57.1878777  27.9587307
  25.3446941  58.0928650  26.7671833  16.9291496  29.5453968  80.4337463
  17.2519684  30.4202347  80.2177048  17.6960335  28.9790859  80.3476334
  39.5317535   3.6820388   8.1519442  38.7546768   3.9553335   7.6644082
  39.9555740   3.0374143   7.5853148   5.6906409  20.3529549   2.0963819
   6.4436421  20.8488007   1.7748858   5.5069623  19.7196541   1.4025358
  13.4306793  48.6480217   4.2244678  14.0566769  48.9344559   3.5594008
  12.5980120  49.0330620   3.9512672   5.9425435   7.8698096  50.3667870
   6.4165130   8.3184090  49.6665421   5.0550761   7.7623038  50.0246239
  17.8343544   5.3844881  63.5944633  18.2547932   6.1469164  63.1967621
  17.6137371   5.6682148  64.4816284  77.6386185  21.9686451  75.4074097
  77.2283859  21.7673244  76.2484818  77.9287033  21.1199055  75.0731583
   8.5831804  22.3062782  27.1700153   7.9065628  22.5244999  26.5290775
   9.2726698  22.9530773  27.0200539  74.0423050  67.2173538  15.0076504
  74.5312500  67.5130692  14.2397175  74.6724167  67.2669754  15.7264910
  49.0098763  39.2078781  12.1586113  48.5233765  39.9344254  11.7691574
  49.6147270  39.6258812  12.7715244  21.5183525  34.2747803   8.7279081
  21.1997433  33.7282639   9.4462690  20.9029408  34.1130981   8.0128126
  11.4471941  61.6981468  87.8034363  11.3741703  62.6499367  87.7327347
  10.5667620  61.4073868  88.0411987  52.5863533  31.4073639  72.8810806
  53.2265282  30.7115250  72.7320175  53.0870819  32.2176895  72.7868729
  -0.1415218  45.6974144  34.9245033   0.5702009  46.0384369  35.4661522
   0.0270380  46.0567932  34.0534897  12.2398481  41.7394180  51.1545334
  11.5616341  41.2296219  51.5976639  12.9471798  41.8057251  51.7960281
  21.3570156  68.8946686  51.2755013  20.8499508  68.0878143  51.1854973
  21.8547516  68.7757797  52.0844231   2.1267912  70.0445251  88.4578552
   2.5037467  70.6147461  89.1279144   1.6410772  70.6373901  87.8844223
  48.3893051  59.2999077  12.3167171  48.8779602  59.0087166  13.0865593
  48.3346252  60.2506599  12.4132414  43.7310715  32.3578224  39.3740044
  44.3707161  33.0674171  39.4336929  43.5903664  32.2406044  38.4344864
  36.9361191  45.8989410  77.8517990  37.0884438  44.9583931  77.9434280
  36.2191200  46.0856171  78.4578476  66.9482269  32.3468513  78.4749222
  66.4751053  32.5649757  79.2779236  67.3787766  31.5143299  78.6692429
   0.2162383  58.9511909  87.9323883   0.2580967  58.4785767  87.1010590
   0.7776865  59.7153931  87.8019791  59.1348152  59.6789932  63.3660393
  59.1453362  60.4462090  62.7937622  60.0582314  59.4994736  63.5429611
  57.8278046  36.4157219  69.8399887  57.8246384  37.3646011  69.7140732
  56.9039841  36.1669960  69.8096237  73.0799789  60.3774948  27.7256393
  72.8885345  59.7939987  26.9913960  73.8240356  59.9692612  28.1683025
  62.4661179  43.2908554   1.9314643  62.8158875  43.6811333   1.1304784
  61.5555382  43.0851898   1.7198515  11.4350176   6.6341710  59.5707817
  11.0502481   6.2923775  58.7637100  10.7460117   6.5307288  60.2271347
  37.5062027  46.5138397   0.9754037  37.3937073  47.4263382   0.7090842
  37.2186775  46.0057564   0.2168441  25.6113205  21.3271770  68.5284195
  25.7911625  20.3981094  68.3844757  26.0844421  21.5409298  69.3325958
  51.3963127  25.9350491  69.7605057  52.3262024  25.8741074  69.9791870
  51.3219757  26.7435646  69.2535477  79.5449905   6.6083245  56.4877472
  78.7060928   6.8514566  56.0961227  79.9309311   5.9929428  55.8643799
   9.3221130  25.9716854   1.7984333   9.8145571  25.7069588   2.5753827
   9.3749828  25.2165775   1.2125607  76.3173828  13.9137201  34.6625633
  76.1435928  13.4421444  35.4772110  77.2531128  13.7858391  34.5067291
  48.2039680  29.7986698   4.5520859  48.6610947  29.8188362   3.7113357
  47.3043976  30.0491238   4.3416696  86.0480957  70.2286453  65.6813812
  86.2449799  71.1446686  65.4855042  85.1375809  70.1157227  65.4085388
  78.8106842  40.4726028  74.4362488  78.2885818  41.1454811  74.8731308
  79.7088623  40.6456718  74.7183075  30.4918938  48.6582756  23.2029095
  29.9928112  48.2234268  23.8943233  30.1322556  49.5447044  23.1692276
  16.9368343  31.5735378   3.4017289  17.2889919  32.3823853   3.0302694
  16.0313892  31.5424366   3.0928009  52.7460251  34.9508629   5.3330188
  53.1642189  34.1242943   5.5741253  53.4541168  35.5943680   5.3600607
  76.1364517  40.4960060  43.5481339  75.4345703  40.1151619  43.0203476
  76.3737869  41.3002663  43.0865402  59.2144051  27.9243908  22.9554176
  60.0046883  28.2097702  23.4139423  58.5193367  28.4805679  23.3072376
  58.7743416  65.3120499  79.0309067  58.1565666  66.0127487  78.8220749
  58.4424210  64.5505066  78.5553970  68.0634842  60.0346756  54.3169441
  67.4405823  60.4356155  54.9231415  68.6502151  59.5269432  54.8774643
  67.1219406  52.4368973  14.6275330  66.5236511  53.1700249  14.7717533
  67.9721298  52.7591286  14.9268379  86.5844116  21.4752846  83.4845200
  85.8166809  21.6948128  82.9566727  86.5785065  22.1173019  84.1944580
  77.5960693  34.2316704  41.7443886  77.8644104  34.8593407  42.4154015
  76.6632385  34.4031563  41.6153564  17.0353222  55.7103462  72.1767197
  17.5118179  55.4100533  72.9506760  16.7275906  56.5862465  72.4098129
  83.3838959  64.9036560  42.0714378  83.7724686  64.7465439  41.2108841
  82.4511795  65.0258331  41.8943863  39.8978844  51.2708054   9.9878893
  40.8411064  51.1154633   9.9385386  39.7440262  52.0023499   9.3900595
  68.4905930  25.1970367  28.4341335  68.0903702  24.6138153  29.0790443
  68.4152832  24.7248707  27.6049061  76.4116135  64.6173859  65.9342957
  76.9698639  63.8830414  66.1898880  75.6527786  64.5546036  66.5143509
   7.0678988  15.8078470  80.4815903   7.0056467  15.6287680  81.4198227
   6.4950490  16.5621166  80.3431931  27.1871758  68.4598923   5.7174964
  26.6754894  67.7667389   5.3004251  26.9583187  68.4014511   6.6450958
  44.7986374  61.6897507  86.4335403  44.8480148  62.2922211  87.1757126
  43.9672050  61.2306557  86.5526276  70.1893082  38.3271179  53.0992470
  70.8262329  38.9233704  53.4929962  70.4578171  38.2609367  52.1828651
  20.6499538  69.6269302   9.7092981  21.0981293  68.9472580  10.2127104
  20.0746307  70.0546494  10.3435602   6.0372548  57.1677933  51.2086906
   5.1717062  56.8193855  50.9949875   5.8782210  57.7804947  51.9267006
  42.6635399  19.2558594  11.8297853  41.8602867  18.8130455  12.1035271
  42.4699898  19.5812073  10.9506273  23.4466801  22.3824844   8.4041948
  24.2406559  22.5630074   7.9009604  22.7744331  22.9269218   7.9944372
  75.9884720  54.2128220  26.7161922  75.7874603  55.0066528  27.2118301
  75.4471588  53.5346489  27.1202908   1.0375371  61.7838936   6.1103072
   1.0956765  61.1096001   5.4334202   1.4608659  61.3930740   6.8746915
   6.4827905  32.8887444  70.0530548   7.2485085  33.4611893  70.1001511
   6.4655104  32.4417419  70.8992920   6.3360133  61.3982544  72.1295242
   5.5595155  61.3550758  71.5714798   6.9123483  62.0234871  71.6900330
  38.3108749  65.8846512  69.8564453  39.2025299  65.6411743  69.6076355
  38.3791275  66.8004990  70.1262512  60.0585365  24.8779259  37.8202171
  59.2682495  25.1252327  38.3003426  60.3881989  25.7016659  37.4610443
  11.5448427  29.9203110   7.5331268  11.1614361  30.3925400   6.7940526
  12.4832821  29.9028702   7.3453517  45.3370667  70.2950134  34.2993889
  46.0715828  69.8960495  33.8329697  45.5192566  71.2343750  34.2743263
  47.6514702  71.0155869   6.7215037  48.3392105  71.6296387   6.9787645
  48.1227264  70.2712097   6.3472710  69.4620590  62.8010750  55.4525490
  69.2088394  62.1790657  56.1346169  68.6407623  63.2175674  55.1913376
  76.8730087  32.5267639  12.7231398  76.1327362  32.9567986  12.2950106
  76.4957962  31.7439709  13.1246023  26.5671940  52.5357819  57.6401329
  26.0761395  53.3090706  57.3624191  25.9017963  51.9410629  57.9862328
  74.1589813  19.6991138  86.6573792  73.5505676  19.6769333  87.3960114
  73.6964951  19.2459049  85.9524384   9.7322264  36.9492416  61.3556252
   9.5881433  36.3062363  62.0498962   8.9379272  36.9086952  60.8230133
  47.1261559  13.0103951   9.7883482  46.3801003  13.3813477  10.2595472
  47.8869400  13.4681234  10.1460104   3.6455626  32.3078079  54.0374451
   4.0537519  31.7163677  53.4051399   2.7520337  31.9777813  54.1318970
   1.7045560  47.1769066  68.6207047   1.6621956  46.2236252  68.5452652
   1.4500675  47.3570938  69.5256882  31.6807613  50.4199295  44.5549240
  30.9700050  50.5861244  45.1741447  31.9596157  51.2905121  44.2710991
  27.1332989  18.7901917  52.6904564  27.6834412  19.5287380  52.9514656
  26.8989449  18.9757080  51.7811203  79.8494720  15.4339390  67.8770905
  79.6005936  14.5502977  67.6060333  80.5970078  15.3038521  68.4606094
  71.2107239   2.9781580  88.4609909  70.5096207   2.8737056  87.8177338
  71.8694839   2.3329418  88.2041702  32.8516731  35.1335602  11.8648252
  33.4009438  35.9038696  12.0102863  33.1993294  34.7390823  11.0649786
  26.2677441  48.8938942  84.4163055  27.0849571  49.2074203  84.0288773
  26.2703075  47.9511604  84.2505569  16.0477200  55.5218773  48.1284409
  15.8988819  55.9627266  48.9649429  16.9258041  55.7975235  47.8653412
  10.4559546  30.0707684  67.2997742  10.7561712  30.9774837  67.2367783
  10.9012852  29.7241879  68.0729446  42.8898697  24.0191326  11.8803768
  42.7313881  23.1833649  11.4415054  43.3445740  24.5504360  11.2267761
  82.8860245  56.4996490  79.5072556  82.3291702  57.0525894  78.9591675
  82.3600311  56.3299561  80.2887650  68.6038361  51.3572426  60.3155937
  69.0640411  52.1251564  60.6543427  69.2401352  50.9304733  59.7418137
  47.3978310  12.4391432   5.0214643  46.9854698  13.0160046   5.6644430
  46.6865196  12.1918116   4.4306197  66.1867828  31.0281868  74.7899857
  65.9491959  30.7778912  75.6828079  67.0956650  30.7432690  74.6951904
  18.6202755  35.1352615  15.2390270  18.8508797  35.3885078  14.3452044
  18.6786747  34.1798439  15.2398901  54.5154686  14.9979162  48.2122040
  54.6340637  15.5746231  47.4575043  54.7212372  14.1239367  47.8804665
  75.5014725  11.3768587   9.2944031  75.7811203  12.2833548   9.1667614
  74.5452423  11.4196863   9.2996950  50.1497536  14.9400520  51.3344078
  50.8010406  14.7934170  50.6484375  49.3660202  14.4886427  51.0210114
  47.9076881  48.6976433  54.1319923  47.3383446  48.8995705  53.3894920
  47.5456772  49.2072029  54.8569221   1.5227795  20.1047497  21.7707367
   1.1761739  20.0828934  22.6627121   2.3398132  19.6084080  21.8190346
  54.2077141   3.0434973  31.6639328  53.6391296   3.0680459  32.4335670
  53.6853523   3.4413521  30.9674549  65.6722107  60.9248352   2.2320037
  65.9583206  60.4437218   3.0084715  66.3866577  61.5359383   2.0521352
  17.2640419  29.5747967  75.9506454  17.2220764  28.6379871  76.1426239
  16.4036007  29.9097729  76.2029648   9.3929491  51.3348961  20.9221916
   8.8799496  50.9776001  20.1973457  10.1776867  51.6925049  20.5068188
  84.5723419  53.6817474  37.2489891  84.7834167  54.1647263  36.4499855
  85.1769028  54.0283928  37.9051704  39.3848534  26.9844723  89.0876389
  39.9361992  27.7268028  88.8402634  39.9988594  26.3316212  89.4238129
  20.5077744  60.9741325  86.5614624  21.3630352  60.7203636  86.2145309
  20.5942135  60.8729668  87.5093689  65.4593277  13.9955044  88.8471375
  65.8230438  14.6178265  89.4769440  66.0116196  14.0897465  88.0710449
  16.7058640  67.0879745  81.6274033  17.5865479  67.2153931  81.9800949
  16.1546059  67.6788864  82.1404114  46.7240677  64.3319702   5.9216256
  46.6108398  64.6256790   6.8255882  46.7003708  65.1365509   5.4036255
   7.7596817   3.5739012  62.5880356   7.9947147   3.3958688  61.6773796
   6.8878403   3.9658647  62.5381470  76.8094406  65.3490524  52.1042404
  76.3977585  65.2423630  51.2467041  76.4467392  66.1671600  52.4439240
  69.7242508  17.7865810  41.1774559  69.9086838  18.7255993  41.1989784
  68.7687378  17.7302647  41.1703835  44.3116837   2.4153521  70.8843307
  45.2500000   2.2383001  70.9510117  43.9453125   2.0761690  71.7010040
  81.2484436  36.1496353  74.0093307  81.7280731  36.9780006  74.0081253
  80.3796997  36.3753929  73.6768570  26.5516777  35.0315971   9.7027225
  27.4595833  34.7294426   9.7279968  26.6180534  35.9838142   9.6312637
  24.7800026  71.3374252  25.7584114  23.8579197  71.3657532  26.0137367
  24.7676926  71.0383377  24.8492203  50.0318031  62.2885666  50.1546822
  49.6145744  63.1487122  50.2027016  49.3038712  61.6741982  50.0603523
   2.9260299  56.4355431  65.3833542   3.4788702  55.8907471  65.9435272
   3.5441351  56.9334641  64.8483200  60.5841866  59.9867821  28.7880154
  60.4290390  60.2987518  27.8964806  61.3940430  59.4801865  28.7269650
  42.8848648  36.1973763  11.5443716  42.3585663  35.3979340  11.5328798
  43.1923828  36.2687111  12.4480171  56.3874550  39.6308250  22.2282772
  57.2825012  39.9579239  22.3184547  56.4748459  38.6786423  22.2723999
  47.5878029  38.9600487  22.6204662  47.8502388  39.8324509  22.9141865
  48.1910629  38.7564201  21.9057312  30.7632866  52.9231682   1.9477960
  31.4929543  53.3792343   2.3671052  30.4217396  53.5516891   1.3117645
  56.9966736  42.6981697  71.9719391  56.2675362  42.0844612  72.0611115
  56.7235909  43.4685631  72.4700851  50.2696266  63.4430847  63.7902718
  50.3276863  64.2666245  64.2746658  50.6130638  62.7850189  64.3946152
  15.0382757  70.1677475  21.0147362  15.9033737  70.0204468  21.3970184
  14.9668903  71.1196060  20.9433403   7.2875233  71.0798721  14.5656700
   6.3591385  71.3118362  14.5428047   7.4656510  70.7188416  13.6972437
  74.4159851  66.8579025  68.9980164  74.6810226  67.6146851  68.4752731
  74.5947342  67.1168060  69.9020386   3.4103444  51.9287376  88.8284454
   3.8980901  51.6361732  89.5983429   3.9789917  52.5801811  88.4179688
  35.9082947  36.7281609  71.2315292  35.2327347  37.2126045  70.7570114
  35.4250069  36.0692177  71.7299805   5.8866882  29.7646217  82.7288589
   5.4362717  30.0476780  81.9330978   5.1982126  29.7254219  83.3927078
  70.2848282  58.4791679  65.5150070  71.0657883  58.7772865  65.0486755
  70.6211166  58.0977211  66.3259583  43.8235245  58.6568947  10.4816360
  44.5000572  58.4270668  11.1185913  43.3223076  57.8500900  10.3629560
  19.9814129  53.3847542  14.3684254  20.5092392  54.0983429  14.7267904
  20.2943134  53.2834740  13.4694996  53.3131447  69.1931839  18.8071651
  53.9568863  69.5272293  18.1824684  52.4711609  69.4994583  18.4702797
   9.3877516   0.9603695  66.7199249   9.4012651   1.1339060  65.7786865
   9.7776136   1.7411941  67.1130600  42.4854431  37.8831253  61.8850327
  42.6039429  37.3446426  61.1025810  41.9217758  37.3585663  62.4536705
  72.7315674  33.0709610  33.3596458  72.4217834  32.1924820  33.1393356
  73.6432877  32.9445419  33.6223488  71.8240433  38.5693130  47.6041069
  71.8663940  38.6802597  46.6543007  72.6065216  38.0625153  47.8211708
  63.8445015  41.7219887  74.6808319  63.4435005  40.8973618  74.4062042
  63.7693329  41.7187691  75.6350708  86.2921371  15.2285204   2.9790769
  85.7165298  15.1635237   3.7411067  87.1420975  15.4783373   3.3415513
  55.6942635  50.4783897  26.0774307  55.9388237  49.5630989  26.2140579
  54.7942009  50.4400902  25.7539310  51.3618279   1.5486971  45.8158417
  50.9456711   0.6977670  45.9535522  52.2990646   1.3557833  45.7913017
  15.8646936  40.8086052  10.4463892  15.3820667  40.9926338  11.2522650
  15.4308176  41.3418121   9.7802992  44.0476875  18.2760468   3.1006920
  43.1956215  18.1990623   2.6714048  44.6787453  18.0197258   2.4281609
  11.7598257  12.2285185  83.6430969  10.9345093  12.4506302  83.2121124
  12.3447657  12.9554834  83.4295578  80.2561493  50.9019508  84.3293991
  80.9834366  51.0899200  84.9226532  80.4693069  50.0484772  83.9520645
  76.1896210   5.8693557  72.8570099  76.6462631   5.9709315  73.6921158
  75.4845047   5.2494478  73.0434418   5.6515412  36.9013786  44.0385132
   5.2676377  36.2789116  43.4209480   6.0909195  36.3534660  44.6888733
  12.1505919  44.6351433  71.2015610  11.5986042  43.9897919  70.7598953
  12.7966366  44.8889084  70.5424194  35.9335442  56.9940681  31.1653004
  36.3191833  56.1827507  30.8347225  36.5286179  57.2765160  31.8598099
   3.3574355  62.7690697  83.1675720   2.9462419  62.8159981  84.0306778
   3.8493831  61.9480705  83.1809616  36.5306664  46.5167999  41.4949722
  36.4493217  46.2003479  40.5952644  36.4684715  47.4690666  41.4204750
  77.5487442  25.6019249   1.8498381  77.7766876  25.5983162   0.9201823
  76.8968811  24.9067249   1.9393126  24.2467384  37.1853828  60.3119087
  25.1186752  37.4424362  60.0121040  24.1725445  36.2623787  60.0694389
  26.9826603  68.3014526  86.9867020  27.8149338  68.7476120  87.1432266
  26.3291912  69.0006866  87.0035400  77.1781158  41.3988266  49.6166306
  78.0257492  40.9661446  49.7192993  77.2465820  42.1897163  50.1514549
  56.5921707  31.5054245  55.6210403  56.0191307  32.0405083  56.1701698
  57.4672165  31.8652935  55.7660255  56.1416435  18.3750172  76.1904144
  55.9743004  18.3377495  77.1321335  56.5790672  17.5470695  75.9919281
  74.5163651   6.3608069  31.4356003  74.7351456   7.2812610  31.5809727
  73.9817047   6.3642058  30.6416473  75.9308624   8.0101519  11.9283123
  76.2514801   7.7806821  12.8005390  76.3915863   8.8200579  11.7091846
  48.0019875  32.2566261   8.8993063  47.9909401  33.1102219   8.4663181
  47.5042343  32.3907166   9.7058382  39.6966324  63.4387016  46.4324684
  39.2287560  64.0928116  46.9515724  39.1526375  62.6532326  46.4902534
  52.9308243  32.6587601  12.6040668  52.0481567  32.4730415  12.9244385
  52.8774033  32.5167694  11.6589651   0.7104286  43.6849976  28.1361103
   0.1785419  43.0220833  28.5764217   0.7820162  44.3962288  28.7727089
  39.9559174  37.8616714   8.7824306  39.6540070  37.1206551   9.3077631
  40.3303185  38.4701385   9.4194736  38.6691208  18.8469296  78.7008896
  38.2467766  19.6152210  78.3167191  37.9433632  18.2793884  78.9605179
  48.2759476  64.1702805   9.5587826  47.9430008  64.9689026   9.1494217
  48.0747299  63.4770813   8.9301167  81.2219467  17.6499615  63.6782494
  81.2179947  17.4871006  64.6214828  81.0744476  18.5922565  63.5972710
  16.2321644  48.6211700  71.1235657  15.8863411  48.0082779  71.7724152
  16.8146362  48.0908623  70.5797577  66.6680374   1.5213126   3.7570014
  66.4097519   0.8824434   4.4213548  66.5166016   2.3712621   4.1703839
  77.8830109   3.3294265  58.1784782  78.2215424   4.1238298  58.5914574
  77.3656921   3.6462135  57.4380302  77.6235428  57.6196976  70.5965881
  77.0632629  57.8904648  69.8692627  78.1163940  56.8738480  70.2544861
  71.7908173  47.7983742   7.6041522  71.2190628  47.0942268   7.2983613
  71.5676575  47.9035187   8.5290174  30.4986210  23.9549828  68.7732468
  30.9770794  23.8340034  67.9530792  30.6575394  23.1489048  69.2643890
  80.1175003  25.3975220  29.6904125  80.7464523  25.3365955  28.9714241
  80.6459732  25.2875290  30.4808884  80.1685638  51.9716263  57.7394028
  80.5881348  51.1842422  57.3926811  80.8363190  52.3741074  58.2946854
  64.2327957  61.3284874  63.7998314  64.7862549  60.6355629  63.4395981
  64.4107513  61.3126068  64.7402115  65.1965790  45.3371201  76.9829025
  65.6240921  44.4807434  76.9919815  65.5393524  45.7841492  77.7567902
  83.8974533  47.4402733  73.6472168  84.4491043  47.6347351  74.4049072
  84.3388367  47.8681183  72.9134827  20.4396725  49.0079002  38.6087379
  20.8440094  48.3685532  39.1952362  20.1247101  48.4886055  37.8688927
  76.6852264  20.9325562  18.7596779  77.5195999  21.2185860  18.3878765
  76.5256805  20.0773811  18.3603649  18.9710674   7.3505034  62.1991196
  19.0316505   8.0167360  61.5145073  19.2153568   7.8098226  63.0026016
  73.0697174  38.9111443  45.0759773  73.9346924  39.2180214  45.3477974
  72.9312592  39.3137169  44.2186546  58.1904755  55.8252373  29.4167919
  57.6143913  56.5819626  29.5250835  58.2153664  55.4173508  30.2823792
   9.1349859  38.2366371  14.4537487   9.6929884  37.4616852  14.3880434
   9.0516529  38.3927155  15.3944540  79.3583679  42.7405281  46.9401360
  78.9672394  41.8983002  47.1722908  79.5194244  43.1695824  47.7804947
  44.7710762  34.5715904  47.8350105  44.4866562  33.7693520  47.3971214
  45.7155685  34.6053352  47.6832809  59.3157959  39.6581612  80.8576584
  60.0692863  39.8020325  81.4301758  59.6725540  39.1832962  80.1070175
  54.1263275  21.4873276  49.2585831  53.5850983  21.2920284  50.0235405
  54.0483437  22.4346275  49.1455574  83.4819946  44.3785896  41.2034645
  84.0538788  44.7569275  40.5355988  82.5969696  44.5099640  40.8633232
  37.0314178  65.6529541  77.3578568  36.0765190  65.6149063  77.3034744
  37.3229294  64.7922363  77.0571594   0.1815937   4.3602672  56.3411446
  -0.2713951   3.8049121  55.7066269   1.1099697   4.2513194  56.1350403
  17.1364040  17.3055305  11.6269875  16.7231388  18.1427174  11.4158907
  17.2781143  17.3401756  12.5730047  83.0006180  20.8966827  56.2360649
  82.4686432  21.6509552  55.9824829  82.4521561  20.4137497  56.8542824
  14.6280184  56.3312759  39.2862740  14.6393051  55.8648720  40.1220818
  13.7358265  56.2155266  38.9594307  82.2995911  40.8270226  85.9245071
  81.9011765  40.4378967  85.1459961  81.9812851  41.7297249  85.9307022
  60.9403496  65.8077850  58.1778908  61.4614487  65.8839569  58.9771919
  61.5838051  65.8289337  57.4695511  50.6543694  54.9598961  48.5418167
  51.4147263  55.5020027  48.3315468  50.4600143  55.1643715  49.4565010
  22.4315739  46.8918571   0.6500578  22.6797848  46.6495972  -0.2420924
  22.1980610  47.8182259   0.5905117  38.5576706  58.9626617  81.4426193
  38.1267509  59.5469017  80.8187561  39.4766159  58.9619675  81.1747208
  43.3856735  13.3173456  79.4564590  42.5929375  13.3424416  79.9923477
  44.1030540  13.3112755  80.0901489  82.6943817  64.9661636  29.4507542
  83.5292511  64.5453415  29.6560421  82.7173386  65.7921753  29.9338779
   0.6885877  39.1478462  46.8683167   1.2384689  38.8634720  46.1382523
   1.2136340  38.9674568  47.6480751  19.1881332  64.4198380  38.5749855
  20.1152344  64.4676895  38.3416939  19.1458988  64.7752228  39.4627609
  44.6832695  42.5767288  66.4015045  44.2340202  43.1883545  66.9848709
  44.7222710  43.0325127  65.5606842  26.2854385  55.3726044   2.8910441
  25.5297012  55.9582901   2.9364803  26.6408501  55.5079155   2.0126331
  69.0107040  27.0341187  13.8333321  69.8054047  26.9969978  14.3655949
  69.1508560  27.7761211  13.2450953  64.7095184  47.9075127  70.2846527
  64.2775421  48.1099739  71.1144943  64.0982513  47.3264427  69.8319473
  80.5955200  28.2034683  17.7107830  79.8487930  27.6073151  17.7677097
  80.8921967  28.3028069  18.6154079  14.3699703  11.7226782   6.0591450
  15.2304411  12.0924702   5.8614693  14.2014627  11.9794340   6.9657393
  23.6987896  29.4553623  13.2529612  22.7821884  29.3726864  12.9898281
  24.1949253  29.1714344  12.4851942  68.4670334   7.1821012  38.1118202
  69.1697693   7.2216821  37.4631119  67.9784470   6.3901048  37.8876343
  35.3630600  17.1766262  69.7470093  35.5765495  16.2676506  69.5362549
  34.4076614  17.2147827  69.7024536  61.2265091  56.9741287  23.2162666
  61.4217529  56.2050171  22.6809349  61.9374847  57.5858231  23.0250111
  80.0682144  53.9528351  46.4892044  79.3855057  53.7304802  47.1222153
  80.6725464  54.5134544  46.9757347  53.7178345  69.4680939  73.7363052
  53.9823647  70.1989594  74.2949524  54.1540070  69.6351700  72.9008026
   4.0737653  22.0983582  16.6877136   4.1562738  21.8235226  17.6008892
   4.1955776  23.0474834  16.7113056  45.0067787  57.1849327  40.0714226
  45.9217834  57.4572372  40.0017929  45.0499496  56.2591896  40.3109398
  15.8424368  48.2525406  11.7612410  16.5828381  47.9396629  12.2809992
  15.8910828  47.7497406  10.9481859  30.1135139  61.0198441  51.0799675
  29.8367729  61.9170532  51.2661476  29.8356018  60.8659706  50.1770210
   0.7317836   7.9423141   7.6803718   1.2093619   7.4798212   8.3690310
  -0.0515393   8.2780523   8.1161661   0.3588013  66.8465500   8.4673824
   0.7605842  66.9314499   9.3320179  -0.5537260  66.6212463   8.6483898
  42.3327942  28.6679726   7.7131500  43.0250740  28.0985069   8.0488377
  42.1064949  29.2315788   8.4529934  18.4602985  29.0130177  85.4734421
  18.3953400  29.3087177  84.5653763  18.7548351  29.7852345  85.9563065
  58.3969879  48.9571342  85.0326614  59.2461052  48.6500816  85.3503952
  57.7571526  48.4333878  85.5148849  53.8323593  11.9902229   9.4913530
  54.6620445  11.5154047   9.4423647  53.8308105  12.5504351   8.7152138
  56.6936455  67.3460312   6.9106956  55.9972305  66.7627106   6.6090817
  56.2585678  67.9444733   7.5179925  49.5761528   3.8741026  45.5620995
  50.4059982   3.4028404  45.4879532  49.0294800   3.3116300  46.1107407
  19.2367287  48.5312080  63.8518867  18.9178600  47.7296028  64.2665939
  18.7453671  49.2332954  64.2783508  48.1312675   6.6416063  75.5722046
  48.3402405   7.1417785  76.3611145  47.3220863   7.0355325  75.2461929
  71.3416290  39.4830170   5.1303263  72.1497650  39.6689568   5.6084318
  71.3784256  38.5428734   4.9542456  49.2348442  62.8259468  80.5256653
  49.6790810  62.3345261  79.8347321  48.6148872  62.2017441  80.9028320
  16.9333630  58.2588615  18.5652542  17.3661804  59.0783577  18.8046799
  16.8774948  57.7689171  19.3856602   8.0861320  71.0302582  44.4515190
   8.9602470  70.7659225  44.1646690   7.8194914  71.6996384  43.8213844
  83.5168304   2.6869805  80.6035538  83.4205399   2.0728121  81.3313980
  83.0329361   3.4648783  80.8809586  56.1827812  11.1790705  78.1007843
  56.5620422  10.3323889  78.3364182  56.3302498  11.7298746  78.8696136
  44.1777649  35.6375160  60.1019135  43.6358681  35.1044540  60.6836548
  45.0715790  35.5025330  60.4167252  62.3955383   5.8270240  14.0592985
  63.2501793   5.6258793  14.4405642  62.0202599   4.9721370  13.8481922
  85.9807358  29.3680191  61.3833923  85.0531540  29.4283562  61.6118469
  86.1536179  30.1590614  60.8729057  22.0269146  23.9988079  56.3261375
  22.1619358  24.9016933  56.6138840  21.3895702  24.0667686  55.6152191
  85.5594254  24.1934223  50.8832932  86.3008575  23.5882702  50.8658600
  85.9469147  25.0519333  50.7128792  75.2220001  11.3994560  56.5988007
  75.7994080  10.8228617  57.0991669  75.7184601  12.2123928  56.5044975
  60.9575272  52.5659523  15.5887365  61.1852226  51.6386414  15.5217657
  61.0536652  52.9011688  14.6973219  59.6285286  60.7124748  83.7596664
  59.0233002  60.1582985  84.2524338  60.3013229  60.9565735  84.3952789
  49.2010803  51.7619820  46.0211296  49.6652298  50.9314156  45.9164314
  48.9790802  52.0264854  45.1283913  63.2570190  71.0820312  51.6471367
  63.2227249  70.7017670  50.7693825  62.4051590  70.8748398  52.0313721
  86.6025467  28.7617474  45.5819435  86.0558777  27.9926491  45.4210777
  86.0387497  29.5052357  45.3684235  67.6278534  24.1881237  83.6018448
  67.7832336  24.3811340  82.6772766  68.2505798  24.7438450  84.0704803
   2.7698565   6.3360062  70.0272064   3.3017776   5.6334810  70.4010391
   3.3708460   6.8127384  69.4546967  51.2544785  22.3264961  34.1329384
  50.8110313  22.9922123  34.6586838  50.5458107  21.7870007  33.7822647
  54.2003593  55.8459702  87.7724686  53.5422478  55.1544342  87.7024612
  53.6985168  56.6597557  87.7263031  67.4640121  65.0213928  24.2474442
  68.1294327  64.5280380  24.7270718  66.6761322  64.4810486  24.3067207
  21.9776440  67.3392563  55.4635582  21.9653187  68.2949677  55.5154419
  22.8794117  67.0994110  55.6769180  60.1048317  30.5103760  55.5733566
  60.7962494  30.6058922  56.2283783  59.9913483  31.3905907  55.2147827
  81.9329529  21.3109779  12.5285149  82.8291092  21.0274010  12.7093935
  81.9364777  21.5373440  11.5984726  31.2335472  50.6121902  48.7186012
  31.6456337  51.4523697  48.9198875  31.7506332  49.9693947  49.2040558
   9.0598793  21.5188808   6.1045399   8.6625071  20.8927174   6.7097225
   9.9981632  21.3356171   6.1521850  44.8127213  38.2022934  82.4512100
  45.3969193  38.3901787  81.7166061  44.3276978  37.4234772  82.1783905
  33.8843346  15.9388123  84.3330002  33.6274185  16.5249081  85.0448380
  33.3495140  16.2164745  83.5892868   2.0999198  12.8871584  60.5617065
   2.8473535  12.9720612  61.1536217   1.3360721  13.0468855  61.1160126
  27.0023746   2.6392250  55.2679214  27.5348129   2.2694533  54.5636406
  26.5631790   3.3895426  54.8674660  57.0102959   7.9123988  20.8394222
  57.5465698   7.8353539  20.0503044  57.3862000   7.2759185  21.4475498
  37.6988144   2.3087268  43.6325874  37.1683884   3.0271564  43.2880020
  37.3105011   1.5206587  43.2525940   2.8826888   8.5043182  40.3882408
   3.4639497   7.7798333  40.1569633   2.0079346   8.1933575  40.1551323
  38.9480247  60.6896515  18.6622410  38.1074715  60.4458084  18.2746296
  38.7619629  60.7866783  19.5961571  54.9997330  38.6422348  66.8306427
  55.8639946  39.0468750  66.9051437  55.0271683  37.9048004  67.4402847
   5.1809382  51.2230377  46.0673866   5.9126453  51.6804161  46.4816818
   5.5243554  50.9400444  45.2199135   3.0280049  28.2068615  87.3832855
   3.2776077  28.0470428  88.2934494   2.3413334  27.5637741  87.2067871
  66.5084457  49.2985840  68.7240143  66.0362549  48.7107506  69.3136978
  67.4324417  49.1409340  68.9179688  66.1567993  33.5303802  26.1772995
  65.5319824  32.8053970  26.1929226  66.7095184  33.3868103  26.9454899
  28.9434185  24.3720818   2.0509412  29.8325882  24.5127621   2.3762393
  28.8059311  25.0763321   1.4174112  61.1492767  38.6556282  40.8228035
  61.4050484  39.0446053  41.6591721  60.6565666  37.8712692  41.0641518
  26.1815281  15.5784397  43.0706100  25.2250080  15.5509653  43.0472374
  26.3946075  16.5115852  43.0623474  60.0538864  29.5795326  46.2239037
  60.3109245  28.6668568  46.3549995  60.6874161  30.0826378  46.7355232
  63.9338799  19.9782486   4.7815170  64.4959946  19.2175007   4.9282165
  63.4305954  19.7566509   3.9980431  62.5456390  19.6669064  30.4227104
  63.0379601  20.4583015  30.2046585  62.0898209  19.4376316  29.6128387
  75.6439285  36.6860619  42.1494522  76.3162994  37.1305084  41.6331062
  76.1084976  36.3655891  42.9225655  24.8151875  64.8376236  38.0686646
  24.5135536  65.7460556  38.0692863  24.3510036  64.4316330  37.3365898
  37.9035683  35.4732513  63.6964684  37.1433716  34.9156303  63.5309639
  38.4785576  35.3232422  62.9460564  22.6309490  32.1264076  75.2991257
  21.8764057  31.5521526  75.4299927  23.3899689  31.5558681  75.4199677
  19.1278915  19.2003517  21.9652195  18.4785786  19.8755817  21.7685204
  18.8876934  18.8834858  22.8359280  15.8322859  60.3758354  26.1179733
  15.8778477  59.8432999  25.3238926  14.8961458  60.4495087  26.3035641
   9.2564259  17.6000271   7.2069526  10.1518650  17.7188931   6.8902636
   9.2399626  18.0482464   8.0525656  68.1325378  35.0069847  52.1775780
  67.6959152  35.8587723  52.1708031  67.7616653  34.5417595  51.4277420
  45.1219330  58.1170998  44.5853310  44.5036163  58.4206505  45.2499924
  45.9048958  57.8744240  45.0796051  57.7225227  19.2780952  49.7939415
  57.2543564  18.4432926  49.8065720  57.6250648  19.6208210  50.6823502
  10.5473928  63.4660110  35.6508141  10.6800203  63.8646545  34.7907410
   9.6076193  63.2885094  35.6901817  38.3452034  10.9080219   5.8851013
  38.8347740  11.6110334   5.4580998  38.4501114  11.0775013   6.8213186
  65.3753815  18.6815891  39.2458534  64.5825653  19.0112267  38.8227501
  65.4693375  17.7881126  38.9155464  72.5854797  10.4891729  48.9559860
  72.2843704  11.2582035  48.4720879  72.1409378  10.5490723  49.8015785
  59.2441406  12.2838249  55.6171303  59.7916946  12.4932318  56.3738136
  59.6033859  11.4625378  55.2814789  30.2824860  46.1842270  77.2953262
  29.7594109  46.3906708  76.5207214  29.6382866  46.0489769  77.9902649
  74.4621506  17.3358727  46.8239441  74.1693344  18.2396851  46.9406319
  73.6544952  16.8223248  46.8101921  36.3031387  67.9727859   4.1896920
  37.0627975  68.3630447   3.7574377  35.8509064  68.7132950   4.5938764
  51.2530403  20.6472054  46.5890999  50.9773712  20.8432579  47.4845352
  50.5825272  20.0500355  46.2573929  85.8518600  67.9965439  77.4583969
  86.4250183  67.4879608  76.8847580  85.2823944  68.4803314  76.8601532
  19.0549240  54.6883430  87.9382553  19.3440971  53.7957573  88.1277390
  19.7997360  55.0918770  87.4925537  56.3747177  53.8361626  22.7518406
  56.8688164  53.0733757  22.4514160  56.5888367  53.9090996  23.6819286
   3.6747963  67.1647110  77.9097214   2.8699980  67.1944427  77.3923721
   3.5696592  67.8624420  78.5565186  65.8392639  27.1147480  37.1017418
  66.6332092  27.1771278  36.5707207  66.0688248  27.5420990  37.9269104
  54.3326607  39.5126915  26.1258507  53.7843437  39.1083450  25.4534779
  55.0885925  38.9302750  26.2006149  68.4733276   6.8155332  88.3965836
  68.2580261   6.6906943  87.4723053  69.0895309   6.1107988  88.5962753
  78.1257706  33.6344337  18.9679718  77.9089127  32.7038422  18.9113407
  77.9926376  33.8557243  19.8896751  15.5339804   2.7719953   1.4289485
  15.9568501   2.4631827   2.2302270  14.7170858   2.2752488   1.3824954
  69.6554260  54.3938751  82.8321915  70.1425095  55.0985146  82.4050369
  70.3002701  53.6972237  82.9550095  78.4479980  46.9528809  58.5979195
  79.0255661  46.4116173  58.0597000  77.5646820  46.7083740  58.3218765
  10.8787479  17.2882099  16.1381435  10.8351250  16.4233303  16.5459576
  11.6036940  17.7267380  16.5835400  48.0525589  60.8254700  30.6446571
  48.4057503  61.5077744  31.2155781  48.4992981  60.0257835  30.9224300
   4.5700603  58.3846931  20.9282417   5.2315135  59.0556908  20.7595081
   4.4929752  58.3588448  21.8819828  72.2735519  66.8045654  18.7927494
  71.5173416  66.7465210  19.3767052  72.4716415  67.7400513  18.7496586
  60.2788582  16.6195641  21.2689228  59.8988266  16.4762993  20.4021568
  59.5453110  16.9201946  21.8053570   3.3810797  55.5785522  43.7990341
   4.1950417  55.1833839  43.4867249   3.5112436  56.5195732  43.6816673
  11.1563540  68.2793121  45.6884308  10.4209137  68.8366623  45.9428368
  11.3292217  68.5124283  44.7762871  59.8889542  22.1620674  49.9616776
  60.4538765  21.8216228  49.2679977  60.0128899  23.1105976  49.9275894
  26.9151211  36.9490738   0.7871854  27.5177612  36.2873764   1.1266164
  27.3446560  37.7834549   0.9757091  44.4462471   6.7972207   7.8750978
  44.3575020   6.4902620   8.7773905  45.2439232   7.3263025   7.8794613
   1.4319696  69.6389465  56.2161713   1.0433887  68.9570618  56.7641373
   1.7681603  69.1698914  55.4524994   3.3372331  39.4730263   5.3996811
   3.8521032  40.1726799   5.8017092   2.4798231  39.5343475   5.8207750
   2.5545938  34.9146729  40.7211456   3.1120868  35.6655884  40.5172729
   2.9765978  34.5004120  41.4738274   2.1525979  27.4943581  55.1187820
   2.3180730  26.5546227  55.1945763   3.0213327  27.8944092  55.1574020
  45.2621956  58.6699982  35.7209282  45.4753799  57.9673271  35.1068954
  45.6325150  59.4573135  35.3218994  27.1628590   6.9774137  10.5350924
  27.6233387   6.1385088  10.5143881  26.6121426   6.9677277   9.7522459
  52.4583549  68.4042969  66.8535156  51.7381134  69.0177994  66.7082596
  53.0300713  68.5221786  66.0949173   0.6089254  26.3142548  77.5898056
   0.6263960  27.0993481  77.0424881   1.2703388  26.4764481  78.2624512
  73.7862625  17.8205929  56.3117142  73.2000351  17.1009808  56.0777664
  73.5415115  18.0468578  57.2090034  14.7075138  66.1089935  23.2949333
  15.5207462  66.6136627  23.3088570  14.9620876  65.2362289  23.5944462
  37.7806053  59.1134720  38.9701653  37.6521072  59.7732697  38.2887039
  37.6961327  58.2769699  38.5126076  50.5204201  50.2471581  80.4430923
  50.8589325  51.1176796  80.6524582  49.6239128  50.4037514  80.1464767
  60.2243271   4.4443917  26.4960480  61.0209656   4.6139774  25.9932194
  59.5878868   4.1501608  25.8444328  18.9757099  71.0270309  66.6449280
  18.3474903  70.4079361  66.2730560  19.3424950  70.5703964  67.4020157
  12.6280251  13.9281025   5.1670489  12.0182009  13.3910599   4.6611524
  12.4880400  13.6587963   6.0748544  51.1335716  33.7529869  52.9121742
  51.3832436  34.6746635  52.9785767  51.5408669  33.3390923  53.6731148
   9.1087904   9.4453869  59.8997040   8.3000145   9.0000534  59.6471367
   9.6367378   9.4541855  59.1013145  48.4280777  39.6921272  49.7745209
  47.7419891  40.1163101  50.2898712  48.5284386  40.2505722  49.0036125
  35.8378410  54.4125214  67.4019012  35.5772934  54.9806252  68.1268845
  36.2963524  54.9936790  66.7950592  13.1041651   2.0852830  66.4099274
  13.0783062   2.2283468  65.4638367  12.1945705   2.1823566  66.6917877
  64.3878708  48.6650085  53.3861389  63.6233711  48.7965622  53.9469147
  64.1297684  49.0301361  52.5397949  70.5315704  53.0901260  61.5105820
  70.6136551  53.2297592  62.4539795  71.4290237  53.1420784  61.1817856
  55.0944214  24.3330593  21.6995735  54.8796921  24.2598419  22.6294994
  54.3576088  24.8123779  21.3206387  19.9950485  64.0169067  56.8890076
  19.1739006  63.5250626  56.8954773  20.4885998  63.6493797  56.1558189
  67.5527954  32.6292000  13.7803297  66.7803802  32.5835533  13.2168369
  67.8215485  33.5471916  13.7444181  75.8285980  28.7800980  55.9483528
  75.4665222  29.3910599  55.3065910  75.1438675  28.1214638  56.0648842
  46.3694458  12.1017380  27.3412476  45.9713364  12.9185419  27.0402946
  45.8929596  11.8839922  28.1423607  73.6233521  60.6239586  39.0813293
  74.3691330  60.7270164  38.4902077  73.6645889  59.7097015  39.3617973
  69.0409317  29.9432621  63.5872078  68.4803925  29.6783485  64.3164825
  69.7371216  30.4582672  63.9950294  22.0961037  10.2395706  81.6607208
  21.6008472   9.5481691  82.0999451  22.3888969   9.8408489  80.8412552
  56.0162010  50.5934105  85.9516144  56.8036232  51.1245461  85.8328934
  56.1959877  49.7871437  85.4680405  45.0534477  14.7781591  18.0466824
  45.7617226  14.3759890  18.5495129  45.4702415  15.5064783  17.5861759
   8.2168751  56.0417900  73.4357758   7.5050302  56.4048843  72.9088364
   8.5720005  56.7939758  73.9094162  49.5413055  13.6667786  86.9356689
  49.6250038  12.8483973  87.4250336  48.6937637  13.5974703  86.4962387
  80.1635971  65.6583557  33.2745018  79.5131149  64.9562149  33.2843132
  80.2342453  65.9322052  34.1889648  83.0492477  52.7079926  85.8321686
  83.9124680  53.1203346  85.7996521  82.8619003  52.4725304  84.9235001
  79.5592651  66.0948639  10.1147232  79.2770004  66.6821213   9.4135141
  80.4086533  65.7639999   9.8226624  78.8628845  35.1366539   8.1475258
  78.6284027  34.3662071   8.6648836  79.5924530  35.5323792   8.6243610
   6.2951374  57.4663925  72.1223450   6.7714810  58.2867889  71.9947510
   5.8209386  57.3345909  71.3013687  82.7916718  50.8411217  23.8905430
  83.6531906  51.2480125  23.9825726  82.3499374  51.0254822  24.7194653
  28.5759029  69.6293488  30.9821510  29.4199562  69.2327957  30.7664013
  28.0004845  68.8855515  31.1607494  31.4499435  24.7947025   2.9984469
  32.3986511  24.8968983   2.9226665  31.2197437  25.2771378   3.7924848
  79.4206161   7.5510550  66.6249542  79.4869156   7.0347557  67.4282379
  79.9015808   7.0418401  65.9725647  39.0254059   4.7923231   1.1776205
  39.5176468   4.3083787   0.5144981  39.6278458   5.4754276   1.4720144
  67.9151077  21.6078377   6.6286278  66.9857025  21.5231056   6.8413496
  68.1336365  22.5093479   6.8647585  76.6997757   8.0968323  46.4101105
  75.7973480   8.4118023  46.4615555  77.2023926   8.8568830  46.1169662
  54.3628311  52.1879120  88.4650116  53.4358673  52.0099754  88.6240997
  54.7831726  51.3292732  88.5127716  65.9173965   3.6972558  17.8206921
  66.4137039   3.1762252  18.4519081  65.8938065   4.5753946  18.2008858
  83.9975281  31.1055355  24.4571877  84.8660812  31.2894611  24.0994053
  83.6139908  31.9689846  24.6107616  47.6844826  35.0226440  63.2780800
  47.0568275  34.2999611  63.2797813  48.4214897  34.7010078  63.7973099
  38.1433830  64.4005585  25.9978275  38.5976677  64.0741959  25.2210712
  37.2141876  64.2928467  25.7947979  49.6393013  25.9722538  13.5162287
  49.0252151  25.3177090  13.1835079  49.5578499  25.9150009  14.4682369
   3.7189550  -0.1977159  38.8650284   2.8154101  -0.1616726  39.1789360
   3.7395029   0.4081570  38.1242676  43.1135559  49.9273491  57.4241180
  42.7433853  49.7059288  58.2786255  43.7656593  50.6020775  57.6131477
  27.4965839  30.4641361  79.2536163  28.2248878  30.7145920  79.8220139
  27.2710972  31.2677917  78.7850800   3.8655932  69.8433075  35.5358543
   4.6093688  69.2536850  35.6598244   3.3128855  69.3996582  34.8924866
   2.8073869  39.4706268  79.4760895   3.3207376  39.6746178  78.6943665
   2.9024200  40.2430725  80.0333405  23.6102848  52.3764114  20.5163174
  23.9449425  52.6969719  19.6787739  23.0563736  53.0865555  20.8405209
  12.7373743  69.7203827  64.2008438  13.4912663  70.0378418  64.6979370
  12.5882206  70.3929749  63.5363121  37.5904655  63.9335709  12.0829668
  38.0163307  63.2469826  11.5696754  38.2328758  64.1642685  12.7540226
  75.3536148  60.5756454  32.2333641  75.0118713  59.9469948  32.8691635
  74.8904572  61.3901253  32.4291458   9.6808815  50.0186920  52.5549431
   9.3255377  49.3220100  53.1068459  10.6303139  49.9256096  52.6333389
   3.1705763  54.3755646   7.1482787   2.3050067  54.3512878   7.5562396
   3.3787017  53.4577980   6.9732795  28.2631302  30.6530609   8.5134935
  28.0692444  30.8254795   7.5921297  29.1632843  30.9570808   8.6297913
  52.1578751  48.3580971  10.0292044  52.5581017  49.2072411  10.2162971
  51.7965164  48.0734749  10.8686323   4.4635448  35.5765076   0.0628316
   4.9818978  36.1124992   0.6630438   3.7263622  35.2702217   0.5910210
  38.6167030  24.1032734  74.1981354  38.0810661  23.9525757  73.4192810
  39.4244461  24.4914894  73.8618698  62.8742065   3.2964365  74.3736801
  62.1947861   2.6235855  74.4171906  62.9822807   3.4675429  73.4381180
  62.4709549   0.7292231  61.1236115  62.1200294   1.4288505  60.5726051
  63.3968849   0.9482397  61.2280769  41.1501389  59.0193596  75.3699951
  41.0566063  59.9719772  75.3707962  40.2699661  58.6921234  75.5555954
  49.6571007  48.3667793  26.0495052  49.3507118  47.4863853  26.2669144
  50.0006981  48.2878494  25.1595936  32.5067177  48.5643387  25.6916809
  32.2354584  49.4756927  25.5817394  32.6023521  48.2335014  24.7985783
  32.9422455  53.6447334  52.5717697  33.7500648  54.1561775  52.5260925
  32.8617058  53.4061661  53.4952583  65.2715683   4.0485539  31.0435352
  64.3651657   4.2031503  31.3095417  65.6626740   4.9214458  31.0070286
  38.8004990  13.6874285   4.1524572  39.5363121  13.7536449   4.7610846
  39.1883659  13.3548098   3.3430402  13.1323500  43.6185074  49.2325401
  12.7083702  43.0960045  49.9133224  13.9126625  43.9760895  49.6561890
  44.3734512   4.7502022  24.6977501  44.6060410   3.8221154  24.7258492
  44.8759689   5.1008992  23.9624119  71.5933685  65.3623734  85.2195587
  71.0546875  65.1486435  84.4577408  72.0438080  64.5447769  85.4313736
  46.8396797  43.9344673   2.2243412  47.6091614  44.5032730   2.2487013
  47.1977730  43.0504379   2.1437900  58.5344620  58.2321663   9.4869394
  58.9851265  58.1663094   8.6450386  57.8416977  57.5732994   9.4399586
  14.7638988  66.5560303  75.1733780  15.3494139  66.7814713  75.8962708
  13.8845472  66.6937561  75.5255203  12.9206371  68.1016769   8.5753775
  13.0772018  67.3153229   9.0982170  12.1346588  68.4913406   8.9583044
  53.6340294  11.4522305  30.6696453  54.5660858  11.5633640  30.8571262
  53.6111145  11.0309649  29.8104362  44.3407974  68.2214279  31.8480072
  43.7035561  68.3898239  32.5421257  45.1155853  67.8977585  32.3075447
  72.8709641  59.6486320  78.6587753  71.9289703  59.7732201  78.5432587
  73.1649933  59.2653961  77.8323898  13.9162159  21.7003632  81.9937820
  13.8850155  22.4003696  81.3416748  13.6829538  20.9095211  81.5075836
  40.1260567  48.8703728  71.0245514  39.5817375  48.5352440  71.7370377
  40.4255333  49.7253380  71.3337097  36.1153717   5.2076297  23.2386379
  36.8700905   5.2155333  22.6499367  35.6392097   6.0109406  23.0284157
  40.8336830  57.0444336  45.6345978  40.7681923  57.1441727  46.5843315
  41.2489777  56.1908493  45.5114784  20.8921776  43.9088860  39.4333382
  21.1762924  43.2832298  38.7669601  20.8121567  43.3879471  40.2323685
  77.0815735  29.6037407  76.0925598  76.3659210  29.0275173  76.3609543
  76.9692993  29.7005787  75.1469116  41.8978386  20.3982697  69.9947586
  42.7524376  20.8289680  69.9750137  41.5027885  20.6110725  69.1492538
  35.5645332  63.1857033   6.3432789  35.2574997  63.9225769   5.8150940
  35.5740471  63.5211143   7.2397385  52.3089104  61.8273849  64.8982468
  52.7070885  61.1371498  64.3679047  52.4223938  61.5311050  65.8013382
  59.0552826  10.7264013   6.5072279  59.5545845  11.5396090   6.5822043
  58.5721474  10.8168497   5.6858683  79.5303497  28.7734070  52.0953865
  79.5481796  29.0250034  53.0187607  79.3696442  27.8298702  52.1072960
  12.6728592  65.2546005  13.1803102  12.3014879  64.3963547  13.3845940
  12.2556381  65.5061417  12.3563662  78.4106979  16.9205990   4.1325927
  77.7720413  16.9792633   4.8431563  78.6230392  15.9888620   4.0777211
  18.4580479   7.1623836  48.4654083  18.2902412   6.3214097  48.0401611
  19.3328724   7.4112663  48.1671257  44.9717865  63.3572693  36.8386650
  45.3220406  63.6194153  35.9872932  44.0304451  63.5164986  36.7697105
  45.0731926  19.0326233  81.2410736  45.0448685  18.2030010  80.7644653
  46.0056915  19.2371769  81.3106232   5.9384708  24.4170265  84.4507065
   5.4769564  23.5837479  84.5449600   5.9674573  24.7763977  85.3374100
  19.5331841  14.8242722  56.5847549  19.6546001  14.6808453  57.5233307
  18.6808662  15.2545357  56.5164986  86.5886002  68.1604080  69.6781769
  86.5831223  68.9969025  69.2129059  86.6521378  68.4008713  70.6025009
  61.9878273  64.6430206  73.0091782  62.9006538  64.3850098  72.8810883
  61.6212540  64.6734009  72.1254730  26.8794479   7.7398729  80.3777313
  27.7454300   7.9983945  80.6931229  26.6704655   6.9482107  80.8735428
  57.3004799  54.7148399  80.6676712  58.1970291  54.4488297  80.4635391
  57.3753548  55.1971664  81.4910660  83.5599747  15.3394117  17.7348137
  83.8805008  14.5521402  17.2947025  83.5294113  16.0032902  17.0459270
  38.2345314   8.2552633   0.3536163  38.3031807   8.1807213  -0.5982045
  39.0401688   7.8575130   0.6837358  77.2149277  63.3616219   9.4871159
  77.9383774  63.3750954  10.1137533  77.5571899  63.8144684   8.7163887
  27.7534904  69.8841019  38.1209831  27.6560307  70.8304672  38.2264404
  26.8591099  69.5453415  38.1604385  32.9346466  33.4089737  76.2906799
  33.6456299  33.2059364  75.6828079  33.1918297  32.9859734  77.1099243
  72.1032257  15.8742142  25.5612240  71.8367462  14.9552917  25.5895233
  71.7875900  16.1891499  24.7142143  67.0781174  45.1823997  38.0850983
  66.6720657  44.3525352  37.8347397  68.0166397  44.9948311  38.1003799
  23.4567356  48.0374222  44.3114471  23.0283318  48.2682533  45.1357155
  22.8098373  48.2480621  43.6381035  80.3946915  65.1515274  15.8633404
  80.2369080  64.2748337  15.5130043  80.6265259  65.6772385  15.0977602
  44.4518776   3.5196292  34.1958084  43.8418312   2.8041804  34.0163307
  43.9644203   4.3121247  33.9709282  77.5343246  36.1730843   1.9236265
  77.7136383  35.3430176   2.3652897  76.7511292  36.5111427   2.3578537
  42.1878815  28.6281643  81.1678009  42.9089279  28.2466927  81.6685944
  42.6065254  29.0034580  80.3931198  50.0136337  39.0174217  24.7837467
  49.1294899  38.7605019  25.0454903  50.2019539  39.7958183  25.3080254
  48.1817932  27.8125134  71.3392868  48.4965706  26.9107857  71.2757568
  48.9525833  28.3175907  71.5981598  80.5588303  68.0809937  54.9467010
  79.9910126  67.3244553  55.0931931  79.9557266  68.8180161  54.8502655
  62.2003746   9.3875847  68.8977966  62.3006020  10.3164463  69.1061249
  62.0830269   9.3664408  67.9480515  73.8640442  53.5752373   2.2227082
  73.1856232  53.8527107   1.6070895  74.6725922  53.5896683   1.7105868
  81.8927383   4.3400292   1.3202728  82.5974426   4.8479776   0.9182703
  82.3157806   3.8709357   2.0394487  35.9358215  62.7811661  23.4811230
  36.4941254  62.3883247  24.1520977  36.3053284  62.4751701  22.6528320
  82.3881226  52.5805702  34.9400864  82.3165207  51.6308746  34.8442421
  82.9344788  52.8551064  34.2036324  76.3237076  48.2320213  52.3324013
  76.1562881  47.8959084  51.4519310  76.1384430  49.1690674  52.2702980
  10.8822966  41.4696808  56.1478462  10.0754862  41.1271439  55.7631950
  10.9287453  41.0596886  57.0115471  74.5307770  70.1315384  55.1735497
  74.5704041  70.8178558  55.8396034  73.6555557  69.7557907  55.2685928
  26.1329536  17.3359966  86.2442017  26.7279778  16.7477131  85.7793350
  26.7085953  17.9700432  86.6718140  33.2497940  61.2416039  87.1982727
  32.7453766  61.4670219  86.4166183  32.6276817  61.3343849  87.9197922
  49.7531662   3.2079134  28.5402813  50.2799110   3.8302896  28.0388603
  48.8491821   3.4108102  28.2997074  67.7468262  30.8186340  43.3016205
  68.4730835  30.8176308  42.6781006  67.0679321  31.3436451  42.8777084
  23.8892841  68.0940781  42.7206039  23.7887974  67.7668610  43.6145096
  24.7273121  68.5565643  42.7276344  53.0594978  71.1673584  83.7986832
  52.8355484  72.0397110  83.4745255  53.6475334  71.3296051  84.5363235
  46.2079735  28.6534538  85.2442245  46.8971214  29.3174267  85.2231064
  45.8443909  28.7136288  86.1276321  49.1473122  21.6098137  64.6669769
  48.7715378  22.4824524  64.7832794  50.0860939  21.7651882  64.5631485
  20.2722378  11.8279924  63.8159561  20.7774353  12.6384258  63.8807983
  20.2900181  11.4632292  64.7007523  85.3194275  25.7924213  48.0628395
  85.1336365  26.0592289  47.1625481  85.4399261  24.8442192  48.0116158
   2.2358184   9.8236485  30.9308529   1.4730895   9.5349445  31.4319782
   2.9080837   9.1688452  31.1193314  10.5555611   9.5434599  81.5067444
  11.0600929   8.8845167  81.9836884   9.9200134   9.8669128  82.1452484
  37.0632935  68.3704681  34.9208298  36.8005486  69.1822510  35.3546562
  36.8693886  67.6841202  35.5592384  69.0342636  53.6179619   9.5729923
  69.6041412  53.7168770   8.8103104  68.8231735  54.5148926   9.8321915
  75.5444565  55.1752815  75.5668259  75.4437256  54.4078407  75.0036926
  75.4312515  55.9211655  74.9776993  71.8031769   5.7726550  88.0548172
  72.2055893   6.1878109  88.8176651  71.8923340   4.8337312  88.2182312
  17.4085522  44.3603325  47.8566895  16.9204350  43.6361351  47.4648857
  18.0393028  43.9367752  48.4389153  41.8074379  13.6770744   4.7835288
  41.9446716  12.7837992   4.4681592  42.1556358  13.6724367   5.6751404
  72.8587875  21.4080544  66.0338669  72.8261719  21.0441055  66.9185791
  71.9725418  21.2880688  65.6926956  66.4737396  43.4176598  12.1653280
  65.6967926  43.0802498  11.7195263  66.3875504  43.1054802  13.0660772
  54.6563148  64.2858582  81.7373657  54.6685219  63.4069099  82.1162262
  55.5009270  64.6639328  81.9821472  69.5027771  34.0674019  38.9087257
  68.7331009  33.7932930  38.4100342  69.6491089  34.9754105  38.6435089
  36.2788162  12.9497433  60.2536545  35.4171104  13.3533134  60.1495934
  36.0910530  12.0470648  60.5108452  54.3137169  65.3097916  23.0541515
  54.7020454  66.0507278  23.5193901  54.1649933  64.6518707  23.7333069
  85.0982132  34.4872589  43.0069084  84.6097794  35.1429138  42.5091286
  85.5298538  33.9529877  42.3402176  68.4174500  21.4353409  14.6559410
  68.7279053  22.3281231  14.5049849  68.4496689  21.0215054  13.7934256
   5.2110896  63.0824890  14.4057493   5.5589924  63.8808937  14.0085783
   4.6993961  62.6716537  13.7088890  28.5307465  70.9120178  14.2027321
  28.2458057  71.5785980  14.8278055  27.8165207  70.8582306  13.5677357
   4.6898413  43.0304565   0.6009189   3.9934454  43.2393303   1.2235225
   4.9802861  43.8812065   0.2721412   0.2534017  21.7495632  57.9244003
   0.7075302  21.7387066  57.0818558   0.6921303  22.4380703  58.4241066
  62.0220032  67.7304382  52.2978134  61.0756340  67.8177185  52.4118080
  62.3937416  68.4260712  52.8401527   2.1433399  24.1741714  35.3957825
   2.1255338  25.0373020  35.8092079   1.2212626  23.9382019  35.2941780
  82.4109802  43.6860619  75.8780060  83.2033386  43.6889687  75.3409882
  82.3841934  44.5588531  76.2701187  71.9655762  70.9062958   7.6699457
  72.0661621  70.0522537   8.0903301  72.8443604  71.2854462   7.6845880
  57.9100533   5.9910498  78.2058334  57.6496544   6.1528115  79.1126175
  57.1079865   6.1202083  77.6996384  11.1739206  69.0638885   6.2183614
  12.1016035  69.2959442   6.2606373  11.1110792  68.2393341   6.7004271
  46.6007309  63.3816223  39.4753990  45.7505569  62.9992943  39.2579994
  47.1050491  62.6534729  39.8382950  57.6540642  65.0201569  24.4294491
  57.0057068  64.4504776  24.0155258  57.5555344  64.8535995  25.3668823
  53.5689240  23.9090271  47.7863884  54.5054054  23.9985371  47.6096878
  53.1741257  23.7767696  46.9244881  65.9231567  16.2157192  69.4980392
  66.6008148  16.6031570  68.9440460  65.2790527  15.8683357  68.8810501
  24.1990795  20.9658165  10.8735456  24.0862370  21.6212101  10.1851006
  24.5430851  20.1971951  10.4184504  67.2657852  37.2304573  29.7320194
  67.7520142  37.9182091  29.2772503  66.4147415  37.2094078  29.2944012
  70.7887650  61.5016899  27.0120468  70.2697449  60.8685570  26.5160770
  71.5375748  60.9988937  27.3325386   9.1758366  26.5888691  66.9774628
   8.7434883  26.1177673  67.6897583   8.8892488  27.4961872  67.0817337
  42.3380127  60.8625526  26.6602211  41.9835129  61.3674011  27.3921299
  42.3144035  61.4671555  25.9185143  76.2818985  27.9204807  23.7722549
  76.2398529  27.0853119  24.2380409  77.1283493  28.2914219  24.0215683
  28.3960094  55.6860657  56.9394302  29.0231247  56.0987816  57.5332527
  27.6626663  55.4361115  57.5015373   9.2148027  70.3997498  30.8905544
   9.4149694  69.8007507  30.1712780   8.9480171  71.2114639  30.4590664
  55.2293854  53.0936470  49.8147202  55.0761147  53.9516792  50.2103462
  54.7847900  53.1373672  48.9681664  68.5206146  67.5208054  78.5945969
  69.2650833  68.1032562  78.7454071  67.7518158  68.0721893  78.7400589
  65.3221512  57.2168388  81.1466980  65.8754349  57.2709045  80.3674698
  65.8023300  57.7047768  81.8157120  45.2653084  44.7559700  73.0776291
  44.7742577  44.1671906  72.5045319  45.3698387  45.5573845  72.5647583
  84.2590485  52.9716721  62.4917450  84.1961670  52.8047218  61.5513153
  85.0663681  53.4760666  62.5920029  85.9747696  62.9964714  53.3336754
  85.6043472  63.1333771  54.2056160  85.7687149  63.8005333  52.8569603
  73.6597519  58.5430260  75.8279648  73.5013123  59.4721909  75.6612778
  73.1124725  58.0881310  75.1878128  29.8120651  63.4949303  52.1839600
  29.4752293  64.3802338  52.3218155  29.6433964  63.0430489  53.0107536
  80.9812241  33.0475273  17.8347244  80.0532761  33.0977669  18.0641289
  81.3024597  32.2772408  18.3034477  53.9844971   3.7649448   2.9962091
  53.6649704   3.0821981   2.4063022  53.8451920   3.4080334   3.8733864
  77.3343582  66.8438644  18.4593372  76.8934937  66.6482773  19.2861481
  77.9057159  67.5846252  18.6619415  83.6604614  14.8320503  28.3030186
  84.4459152  14.3831396  28.6157055  83.3763428  15.3635969  29.0466347
  57.9135361  24.5494308  75.3678360  58.3040504  25.2856464  74.8969727
  57.8467636  23.8545647  74.7129059  18.2339783  37.9460564  46.2707367
  18.2935658  38.4811668  45.4793205  19.1257915  37.6288185  46.4130707
  45.8892708  36.9216881   5.2924910  46.7271118  37.0214272   5.7444949
  45.2815475  36.6363144   5.9747405  45.4974022  51.7039948  57.0362396
  45.7016220  50.9338570  56.5057564  46.0611801  51.6213913  57.8053703
  20.6402874  16.8333302  78.0162201  21.4440022  16.7096577  78.5211716
  20.5322742  16.0138969  77.5334167  69.4994278  24.3360004   6.3386092
  70.2646255  24.3194237   5.7637787  69.8457947  24.1211929   7.2047048
  53.7113190  18.4880886  50.1415405  54.2214813  18.5381947  49.3331757
  53.7775841  17.5717506  50.4101715  66.8862839  15.8724890  24.1658459
  66.2794571  15.9715023  24.8994598  66.6672592  16.5929604  23.5749283
   9.1249895  62.9009819  85.9605560  10.0183878  63.2441368  85.9427719
   8.7561369  63.1492577  85.1128922  73.0995789  67.5740280  40.9745293
  73.4134369  68.4455414  41.2157516  72.4210434  67.3766251  41.6201668
  68.6186600   1.7397318  21.3611603  68.3479156   0.9211439  20.9454117
  67.9678574   2.3805346  21.0746994  59.6835098  56.3964806  78.6245270
  60.3518257  57.0161133  78.3318863  60.0036354  56.0802078  79.4693451
  60.6774597  27.9152508  50.8386993  61.5187531  28.3321743  50.6526070
  60.4922714  28.1454449  51.7491684  61.9557762  14.8071833  52.2968216
  61.7093544  15.5738201  52.8142929  61.5177307  14.0747509  52.7302856
  62.9469109  66.8290939  46.4108124  62.6979103  66.5169601  47.2807541
  63.5414009  66.1575089  46.0764694  48.8994293  47.7400856  41.7237625
  48.3873100  47.8082657  40.9179611  49.8104973  47.7731209  41.4320488
  23.0312119  23.5859890  83.1399460  22.4953232  23.7288952  82.3597946
  23.5223408  22.7866421  82.9500275  46.4207153  55.5920906  11.7248297
  46.8998070  55.5799255  10.8962431  46.2781029  56.5212212  11.9054193
  76.1801376  44.0300064  10.8519239  76.4157486  43.9359512  11.7748957
  75.6704102  43.2444649  10.6535997  39.8840065  47.5128021  51.7904701
  40.6619911  47.4939308  51.2331467  39.8869858  48.3887749  52.1763306
  38.3136024  43.0549965  14.6186275  38.4453506  42.3111687  15.2065039
  37.8316612  42.6909485  13.8760386  28.6065884  17.9362659  75.2423248
  28.1218719  17.3299561  74.6822662  29.0500965  17.3735275  75.8770370
  51.9845009  59.2254295  46.5654984  52.9110298  59.4353752  46.4484596
  51.5825310  60.0535965  46.8277779  76.9806900  12.3371391  39.2519646
  77.7033157  12.9537239  39.3697281  76.4949875  12.3771973  40.0758133
   9.0250511  65.0719528   8.9030924   9.2491884  64.3193054   8.3558121
   8.0687847  65.0619278   8.9441490  85.3692780   1.4001415  30.6799049
  84.6326370   2.0113020  30.6885033  85.2739792   0.9217348  29.8563290
  35.1802063  63.9082985  14.2621536  36.0278969  63.7792015  13.8367290
  35.3477821  64.5685806  14.9345942  38.3157463  50.4987793  73.9816360
  38.6988678  51.1573410  74.5610733  37.9664192  51.0013847  73.2457047
  62.9628639   8.4056969   7.7394471  63.3392639   9.2834320   7.6751475
  63.0877151   8.0272074   6.8691654  78.4273987  35.8867760  80.9208450
  79.3700867  35.9374733  81.0789795  78.2729721  34.9720497  80.6849289
  42.7047615  56.2543793  30.8370724  42.1275711  56.4777145  30.1068611
  42.8653488  55.3160553  30.7371178  73.8551636  10.1582050  84.0103149
  73.3366394  10.6066246  84.6783600  74.4991379  10.8086977  83.7303314
  30.6453209  28.4342041  87.8046570  30.9501152  27.9806690  88.5905533
  31.0598259  29.2958393  87.8494186  70.9016037   9.3599606  12.7665987
  71.1979828   8.4503527  12.7983313  71.4540939   9.7687769  12.1003733
  78.6916885  58.4255867  15.9294529  77.9124603  58.0522079  15.5175991
  78.5621567  58.2767639  16.8660984  61.9185829  34.6982422  63.4974442
  62.8354454  34.9299583  63.3494453  61.4993896  34.8237686  62.6461182
  14.4505882  45.8537788  24.7590084  13.5756321  46.2384033  24.7065792
  15.0094013  46.5700340  25.0605698  47.2599869  53.3921204  61.4514313
  48.0313835  53.9588013  61.4445915  47.2961197  52.9282684  60.6149101
  81.3393402  61.3720360  20.4697151  81.0195770  60.6334648  19.9515495
  81.6399002  60.9778366  21.2885609  80.8016357  15.3526630  46.8085327
  80.3362961  14.8936634  46.1092377  80.1695099  15.4003115  47.5257378
  74.7758865  22.6400795  61.3567467  75.5142517  23.1562405  61.0332870
  74.8240128  22.7238503  62.3090591  76.9289322  32.6167641   0.3608671
  76.5116501  33.3288345   0.8457063  77.5237350  32.2130318   0.9928784
  83.0545654  29.0476208  81.0651550  82.8600540  28.5934296  80.2453308
  83.7497635  28.5274296  81.4680557  82.2555695  51.3577576  59.5456772
  82.1106262  52.2997131  59.6347771  81.5811234  50.9586067  60.0952568
  33.9000854  48.6593208  54.8047638  33.0577736  48.5415611  54.3655853
  34.5509377  48.4551773  54.1332397  85.2481232  50.5757751  67.6622391
  84.3935471  50.9827080  67.8048553  85.0488586  49.6570015  67.4822845
  70.3647308  49.8746834  22.7854328  70.1490936  49.9266891  23.7165756
  69.5220947  49.9595146  22.3393383  62.6034966  30.9980717  63.3220482
  62.5707626  30.0953617  63.6387138  62.0172081  31.4783859  63.9066811
  69.2794495  32.9439087  85.6293869  70.0857239  33.4495888  85.7315674
  69.4781876  32.3135643  84.9370041  30.2266541  51.0368805  54.9240341
  30.3135815  51.0581589  53.9710274  29.2822247  51.0121613  55.0779037
  46.8420067  55.5657425  73.3558044  46.0401497  55.2825775  72.9164047
  46.6003494  55.6254501  74.2800751  55.7315826  71.2558975   9.7256508
  55.3192635  71.3866425  10.5795412  55.5515671  72.0646820   9.2463932
  77.3579330  41.9349937   2.7355068  76.8319016  41.4577789   2.0937955
  76.7175980  42.4147835   3.2608719  34.2618675  52.9823875  25.6971092
  33.4860115  52.4712830  25.4667721  34.1910019  53.7769432  25.1680603
  55.6651993  57.3740044  61.7866592  56.3444977  57.2394943  62.4474869
  55.1936302  56.5416222  61.7550545  25.0815678  51.4277115  52.1337967
  24.3180065  50.9261017  51.8481483  25.1172142  52.1723824  51.5334358
  28.1151085  64.3341675  14.7382202  28.9686604  64.5757446  15.0978374
  27.8285751  63.5963135  15.2764549  63.1585236   5.1788149  76.5068588
  63.1721497   4.6268463  75.7249527  62.5902290   4.7121210  77.1196136
  66.2204285   2.4772155  38.0331345  66.8811874   2.2833059  37.3682785
  66.6118469   2.1786602  38.8540421  53.4175568  28.4114113  84.9593353
  53.9961090  29.1739616  84.9645615  53.8916512  27.7545528  84.4494324
  61.7255745  39.3493118  77.0007553  61.0364990  38.9349861  77.5201263
  61.3044205  39.5577278  76.1668396  73.9857178   8.9321861  46.7772369
  73.2906799   9.2275553  46.1890984  73.8551178   9.4414425  47.5771332
  28.5454941  43.0476074   1.4694946  27.8541183  43.5442390   1.0317856
  28.0887737  42.3158150   1.8843675  64.8716202  13.9211569  31.6688747
  63.9630928  14.1592150  31.8536263  65.1078873  13.3149252  32.3709412
  76.8908463  59.4328308  39.2067032  77.7251434  59.8115005  39.4838028
  76.6912689  58.7777252  39.8754616  63.9095802  27.2381592  54.4376717
  63.0275269  26.9467888  54.2067642  64.3834991  27.2493477  53.6060982
  86.5687180  23.4528599  85.7631760  86.2579117  22.9040642  86.4832077
  86.3064117  24.3402863  86.0079193  86.0832214  21.6356812  27.8487492
  86.7723999  21.1838608  27.3617954  85.7410431  22.2842369  27.2335110
  25.1514359  47.6784668  57.8322792  26.0067501  47.9565239  58.1599274
  24.6711197  48.4947472  57.6936760  39.9947281  43.3134422  39.9112625
  40.0587540  44.2661743  39.8446579  39.3758469  43.0663605  39.2241173
  44.6019783  39.2048531  63.4649086  45.4580574  38.7814217  63.5287018
  44.1697617  38.7623787  62.7344017  80.0666504  49.9236908  20.3952579
  80.4603119  49.1624603  19.9688950  79.8296967  49.6129227  21.2690468
  44.4203682  22.7782764   8.6219845  45.0621643  22.7105427   7.9150620
  44.5946884  22.0184078   9.1773624  42.9323006  52.0148544  48.8116074
  42.3102112  51.9692421  49.5376625  43.7266617  52.3819389  49.1995163
  54.8647118  51.0191269   7.9417558  53.9407959  51.0572739   7.6944580
  55.1224556  50.1141357   7.7662778  79.7214737  70.2934799  40.7360039
  80.3382797  70.4734726  40.0265045  79.2948685  71.1342163  40.9015465
  16.9414425  62.5786133  68.2433014  17.3460007  62.1133881  68.9755096
  17.3241062  62.1766853  67.4633942  15.3826542  25.7180214  16.5537338
  15.8846855  25.5654926  15.7531519  14.5203571  25.9974155  16.2461395
  81.6400909  20.4361343  62.6413803  81.3202896  21.2257195  63.0778542
  82.0732727  20.7581978  61.8508949  44.3346291  66.9369736  85.7281494
  44.0565491  66.0871201  86.0697098  44.8395462  67.3280716  86.4411240
  50.8297119   4.6433749  26.3917942  51.2793999   5.4839344  26.4782200
  50.8887596   4.4348993  25.4594402   9.7417021  20.3843250  67.5125504
   8.9690542  20.2584915  68.0633774   9.8636284  21.3333015  67.4841537
  24.4900932  64.3437271  80.6017990  24.7459965  64.8904190  81.3446808
  24.1931000  63.5246735  80.9982452  85.4152832  36.3086510  82.0095215
  85.0659103  36.0353813  82.8577499  86.1929321  36.8233490  82.2253571
  32.3227272  25.6646652  70.1574097  31.6712227  25.3761959  69.5182266
  32.7627792  24.8597794  70.4308014  85.4361267  37.6887283   7.2552199
  85.9419861  37.8554497   6.4598951  85.9617462  38.0710182   7.9579358
  47.1584206   5.5776749  80.8480988  46.2140121   5.6892533  80.7391281
  47.2993851   5.6388164  81.7928925  14.4634886  14.1728697   2.8196046
  13.6842804  14.0401468   2.2797434  14.1450338  14.1077375   3.7199247
  54.3397446  44.1206284  25.9527931  54.7642860  43.7626266  26.7324295
  53.6841278  43.4650993  25.7147236  82.9955597  18.8178635   8.8373966
  82.8686295  18.0912743   8.2273254  82.5184937  18.5556660   9.6247253
  73.1376190  62.3476181  71.2638474  72.6066284  63.1388931  71.1734848
  72.6735535  61.6876450  70.7487640  47.8531036  45.8221359  23.8842373
  48.4115334  45.6454315  23.1271610  47.3213005  46.5727272  23.6196041
  71.3534164  17.0171490  23.0253620  70.7952423  17.2707729  23.7604427
  70.8664780  16.3213482  22.5837917  32.5769958   9.5000648   2.4686654
  31.6615601   9.6241465   2.2180488  32.9759636  10.3624468   2.3530996
  81.9294662  28.5920792  26.9398842  82.7132950  28.4546127  26.4079533
  81.9402618  27.8737411  27.5724239  51.3685455  63.1769333  59.4819717
  50.6182404  63.0727806  58.8967934  51.0639458  62.8395309  60.3243523
  48.2418404  40.8132324   6.3561687  48.6235237  39.9394302   6.2724009
  47.3317757  40.6540756   6.6065369  66.1783066  42.5977058  62.4880867
  65.8246536  41.7410316  62.7273979  66.5118866  42.9572411  63.3100891
  81.9626160  62.1581421  59.0245399  82.4567795  61.6681480  58.3673172
  81.2331009  61.5824928  59.2540398  27.4365559  32.1446419  75.8345718
  27.1956539  32.4164505  76.7201920  28.3936253  32.1601143  75.8312912
  82.0773163   9.5169325   2.9333851  81.4906693   9.8406801   3.6169569
  81.5470581   8.8919754   2.4389224  81.1440125   1.2934744  29.3360882
  80.8241806   1.9419053  28.7088108  80.3510742   0.9310278  29.7312012
  67.4973221  65.0368652  88.3159790  67.2091064  65.9289246  88.5093613
  68.3269806  64.9463120  88.7847061  56.2253571  51.7130547  54.3872719
  55.5176048  52.0779953  54.9184341  56.9804611  52.2688789  54.5799179
  67.9039459   1.6163067  25.1988583  67.3328171   2.3646309  25.0255070
  68.7497635   1.8698833  24.8293591  65.2228928  57.0300713   9.2788820
  64.6529541  57.1665039   8.5220547  64.9157333  56.2099533   9.6652699
  15.8090267  19.1920662  75.0251160  15.1194906  18.5739346  74.7828674
  15.3680639  20.0408955  75.0607452  42.1050987  46.5128136  59.2817459
  41.9167938  46.6001320  60.2161713  41.8901215  47.3695793  58.9130135
  81.3308563  50.1383095  39.8204346  82.0892639  49.6324196  39.5286789
  81.2687225  50.8595238  39.1941605  16.9996834  15.7925777  74.9613724
  17.0583916  14.8494730  75.1141357  16.0693798  15.9519587  74.8021088
  70.8083725  60.8193779  31.9336090  70.0749054  60.2610741  32.1916084
  71.4859161  60.2072258  31.6465054   0.4813623  48.6020889  81.8451462
   1.1085359  47.9754066  82.2059097   0.7101699  49.4347038  82.2582169
  37.5899277  43.0802155   8.2448282  37.3652725  42.3159637   8.7755642
  37.2318192  43.8230095   8.7308855  71.8862000  52.3862267  25.4291878
  72.4066467  52.2811203  24.6327438  72.4995956  52.2062035  26.1416283
  66.1043854  65.8773270  37.7527237  66.3650894  66.4795609  38.4495544
  66.2410278  66.3722305  36.9448738  32.9906349  49.5461235  83.1252441
  33.8376617  49.7251434  82.7169266  32.7901230  48.6441460  82.8753204
  55.3834190   5.3307881  70.8099136  55.3607063   4.9507990  69.9316635
  56.1839981   4.9814501  71.2014008  66.5817795   3.8935452   9.0721149
  67.5261154   3.8034809   8.9442291  66.3780136   3.2891371   9.7858391
   6.0441761  22.6059437  62.4056854   5.9333453  23.4108181  62.9117737
   5.2763486  22.5741997  61.8350143  56.1264496  17.0348892   7.2705746
  55.2378387  16.7487240   7.0591173  56.0045509  17.7770195   7.8627038
  62.2982178  60.3574867   9.5960922  63.1736374  60.0657959   9.3415461
  61.8354378  59.5522919   9.8278799  48.8453522   9.1124640   3.9682245
  47.9452133   8.8635902   3.7583530  48.9374657   8.9145679   4.9002028
  64.6688614  64.7753830  49.6250076  65.2870026  65.4699936  49.8522606
  63.8648338  65.2380524  49.3889885  43.1716881  45.4015465  38.4111023
  42.8943481  45.7893410  37.5810852  43.5011444  44.5351028  38.1724205
  46.9747353  38.9622955   8.7610531  47.0327187  39.6833076   9.3879576
  46.0659904  38.6671982   8.8187971  31.8159046   4.2138515  58.9514771
  31.4244308   3.3403652  58.9524841  31.1055260   4.7943769  58.6783752
   5.8688679  63.9089851  17.4083633   5.6615376  63.6597214  16.5077438
   5.0228634  63.9146614  17.8561077  11.3748894  36.9495163  44.4691048
  11.6119614  36.1836967  44.9921227  11.9119263  36.8763046  43.6801414
  84.9789734   7.0947523  21.9525642  85.0785065   6.2954750  22.4697514
  85.1755600   7.8029003  22.5658436  59.5376968  50.7547264  81.4825287
  60.3704414  50.6619186  81.9452972  59.3094521  49.8632584  81.2190552
  63.6553574   0.9449991  82.8074875  63.5841255   0.9120698  81.8535156
  62.8418198   0.5508291  83.1221619   8.9306488  24.2247696  84.1187057
   9.4470453  23.5877361  84.6124191   8.0211296  23.9921856  84.3055496
  56.9224510  63.1350021   7.6731143  57.6598930  63.7232780   7.5108037
  57.0373573  62.4265099   7.0398140  21.4935837  67.1406937   3.4741893
  21.7173538  66.2106628   3.5088954  21.9344864  67.4639664   2.6884842
  45.9983749  17.9922504  13.6876211  45.4818840  17.2495213  13.3748550
  46.5775185  17.6184998  14.3518038  79.0322342  33.2627754  80.4404755
  79.3148956  32.7288742  81.1829605  78.8549805  32.6301918  79.7443085
   7.7748389  28.6104774  10.7914009   6.9745002  28.1851425  11.0992661
   7.7118349  29.5068226  11.1212893  18.3328896  45.1392365  58.8818550
  17.4221725  44.8445816  58.8840981  18.3638325  45.8267250  59.5471649
  72.1805344  21.8673897  77.1234055  71.4972610  21.7346458  77.7804871
  71.7038956  22.0915127  76.3241425  27.6631546  12.6187620  67.8023300
  26.9159946  12.6091747  67.2040939  28.1354923  13.4218321  67.5827713
  72.5661087  15.2380533  70.6285248  72.3616867  15.3720341  71.5539932
  73.0409470  16.0283623  70.3712692  52.7146263  16.6536503  76.6746750
  52.9805756  17.5082607  76.3353500  52.0829048  16.3274937  76.0337524
  46.8685150  38.4615326  80.5534210  47.7259369  38.0360336  80.5497971
  47.0658379  39.3980789  80.5403061  14.2635221  47.6268158  45.0405579
  13.3713617  47.7687950  44.7241364  14.1560259  47.3890800  45.9615135
   4.5612054  30.6707554  47.8573303   5.0454750  31.1195965  47.1643257
   4.0960259  31.3702755  48.3161469  23.0450859  22.5039978  73.1879044
  23.1733341  22.1685905  72.3006134  22.0960865  22.5933781  73.2753296
  57.7750740  39.7702980  28.9665279  57.0223885  39.2433510  29.2348938
  58.4569054  39.1291924  28.7657299  39.5976448  43.9519997  35.0095139
  40.4494247  43.5553017  34.8269424  38.9715042  43.2365532  34.8985519
  18.1568909  68.6665802  48.2496223  17.2239590  68.8640060  48.1665802
  18.3975124  69.0051422  49.1120110  72.6317673  39.6972313  62.0717163
  72.0569000  40.1526413  61.4566040  73.2286530  39.1963577  61.5157585
  38.0551262   4.5749588  61.5757332  37.5938339   5.4036870  61.4466934
  38.0205078   4.1459246  60.7207680  78.7925873  52.9688683  84.9791794
  79.4807281  53.3918419  85.4927826  79.1712112  52.1299171  84.7164307
  15.5327415  69.7640915  48.9115219  15.0576496  69.4096069  48.1599503
  15.0030575  69.5149841  49.6688919  11.0221434  32.7758675  83.9080811
  10.7125759  31.8724594  83.9732895  11.9544868  32.7253723  84.1188354
  50.4593811  67.1994324  60.8138428  51.1345062  67.0481110  61.4753075
  49.6390800  67.2104568  61.3070107  71.1472168  47.7212715  76.1235504
  71.4628372  47.5023155  77.0002975  70.6161118  46.9680252  75.8651352
  41.4813118  63.4789886  52.8659897  42.0658112  64.2036133  53.0884972
  41.0364151  63.7663040  52.0686531  13.9027090  61.2300453   5.7348614
  13.5206890  61.4363441   4.8817887  13.7826080  60.2850723   5.8288655
  14.9771900   8.8549738  54.0239105  14.2728930   9.3903589  53.6584511
  15.5922623   8.7412882  53.2993469  32.4713402   5.1739564  80.7649384
  31.5605640   4.9825644  80.9887466  32.5760612   4.8342280  79.8762054
  68.5575638   4.7694783  24.9169426  68.0503235   5.2615643  24.2713509
  69.4026871   4.6190782  24.4934101  84.7566299  51.3818092   1.4217403
  85.3537369  50.9927483   2.0607438  85.3287201  51.8484955   0.8125232
  69.9070892   1.6821547  12.7666388  70.5792389   2.3399084  12.9449825
  69.4986343   1.9721570  11.9509840  54.4497566  66.2889481  70.6923370
  54.6667900  65.3638306  70.8076248  53.4934082  66.3079758  70.6568222
  10.4893389  62.2366295  10.1461439  11.0401735  62.7371597  10.7480431
  10.8111629  62.4711494   9.2757053  77.0572052  61.0803566  76.3015137
  76.2695007  61.4644089  75.9164658  77.7776871  61.5912895  75.9326096
  60.4587631  10.7025394  22.1697273  61.0257378  10.5206442  21.4202709
  59.5778351  10.4915514  21.8604050  26.9013863  35.3710556  15.2388382
  26.1244583  35.7219543  14.8035374  26.8171291  35.6588249  16.1478615
  19.3636379  46.3921204  38.0508080  19.3534966  46.6621819  38.9690628
  18.4451847  46.2232704  37.8406525  31.5958633  20.3992443  81.0183868
  32.3427963  20.5022545  81.6080551  31.7316380  19.5458393  80.6066895
  72.1042938  37.4758949  13.2467508  71.4005966  37.2378845  13.8504019
  72.6090012  36.6699333  13.1375351  42.2815247  64.2151718  13.8849535
  42.3257408  63.5967560  13.1556797  42.6313400  63.7297935  14.6321268
   1.9125534  58.6401634  79.1596680   2.0412118  59.1046257  78.3326492
   1.4520569  57.8376198  78.9145203  20.3327885  35.9555244  17.4146805
  20.0981770  35.0599060  17.1716671  19.9076023  36.0932121  18.2611389
   6.4974680  67.2664337  65.8069458   6.9625340  66.7951431  66.4981995
   6.9301105  68.1192780  65.7656784  43.6750374  54.7738457  37.1618767
  43.9555206  54.5929909  38.0590134  43.5455933  55.7219505  37.1379280
  59.5882607  30.0123615  43.7245522  60.0461807  30.8500290  43.7942123
  59.7541924  29.5783691  44.5614204  71.7372589  35.3307381  54.0241928
  70.8761597  35.2672539  54.4373703  71.8964462  36.2713318  53.9456139
  71.0457077  58.1042557  44.1610413  71.0927048  57.1482735  44.1501923
  70.9720306  58.3509140  43.2391052  78.2962418  49.9090958  11.1626616
  77.5125732  49.6179352  11.6288328  77.9813919  50.1482124  10.2909250
  55.4924316  53.5803757  41.5970764  54.9954300  52.7989006  41.3551712
  56.0278969  53.7715683  40.8270416  81.6657715  67.3254318  44.0412865
  81.0796585  66.5838928  44.1923828  81.5228271  67.5607834  43.1245499
   8.8658686  61.9050140  43.9459419   8.2536755  61.5841255  44.6081238
   9.0433846  62.8099785  44.2023735  15.1870184  28.4471436  68.1690750
  15.9560909  28.6298599  67.6292877  15.4879274  28.5810089  69.0678329
  79.2916565  21.7457466  11.9259577  78.7092056  21.5152626  12.6497393
  80.1344147  21.3595905  12.1644325  31.2251930  51.2427063  38.1863136
  30.6924667  51.4601555  38.9512672  30.5895157  51.0924759  37.4866180
  49.1180496  18.7370663  58.1575127  50.0161209  18.4537735  57.9859276
  48.5773468  17.9933472  57.8915176  62.8658943  27.8874416  26.7721024
  63.7697296  28.1382389  26.5812740  62.8939896  26.9341393  26.8536987
  64.3202667   3.3940279  60.1078987  63.3656158   3.4324577  60.1661758
  64.6191330   4.1924095  60.5432167  54.8499641  39.8515816  18.5815792
  55.2325211  40.6233444  18.9990292  54.6654701  40.1310120  17.6848564
  62.6269722  26.3133850  83.4299240  62.0763741  26.8731651  82.8824539
  62.3485069  26.5056362  84.3253174   3.6010709  45.2926292  20.0443954
   2.8348169  44.9014778  19.6247692   3.4500289  46.2360992  19.9871025
  21.6171017  46.2653885  78.5397339  21.2330837  46.8977165  79.1471252
  22.1244907  46.7986908  77.9278717  43.4827957  63.6800613  18.6231918
  43.9945183  64.3212280  19.1164284  42.7234650  63.5017014  19.1780224
   5.1581464  64.4845886  21.6989975   5.0024638  63.6214943  22.0824890
   4.3200922  64.7261429  21.3046036  21.9390030  41.1219902  84.2328949
  22.7932987  41.4847450  84.4670334  21.4115448  41.2205620  85.0255508
  66.1297150  47.5157242  21.8064537  65.9676285  47.0459099  22.6245193
  66.8211517  47.0137825  21.3749390  68.4476089  59.6383400  28.1437340
  68.1443253  58.7835846  28.4497490  69.2299042  59.8159447  28.6659431
   5.1604600  64.0964432  85.8106003   5.6970491  63.3189812  85.6561432
   5.7887330  64.8176651  85.8472672  85.1316528  29.2436256  12.1112852
  85.0549927  29.7654266  12.9100847  86.0713654  29.2183952  11.9309368
  12.9631939  66.9116974  60.2127419  13.8414803  67.2373428  60.4097137
  12.7249689  67.3456955  59.3935204  40.8442001  21.6609344  67.4574890
  41.5989037  22.1621361  67.1485443  40.3034477  22.3020840  67.9187393
  56.7014771  32.6442642  21.1102734  57.3944473  32.9087601  20.5052395
  56.1586914  32.0402908  20.6034908  62.0052910  59.6122437  67.1397095
  61.2016602  59.8513374  66.6779327  62.1224442  58.6813126  66.9502945
  24.1642513  63.5543060  74.9639053  24.4582634  63.9058456  75.8042679
  24.1867714  64.3042450  74.3694992  35.5157356  63.9108963  80.3342667
  34.8122978  63.3800201  80.7078705  35.0632401  64.6008759  79.8490753
  45.4593735  60.4865875  60.9967422  46.3182411  60.7000809  60.6320534
  45.6349678  60.2708359  61.9126282  18.3925724  30.1054192  73.5123749
  18.4994602  31.0066071  73.8167877  18.0263214  29.6403694  74.2645874
  44.4999847  43.8558350  24.4539375  45.1803093  43.3243561  24.0405140
  44.3151436  43.4083023  25.2796383  76.0984650  27.7133255  49.6965370
  75.7490158  28.4856148  49.2519188  76.5592728  27.2301178  49.0106773
  15.6350737  44.4366798  83.5594177  14.8830309  44.8083496  84.0204239
  15.2890882  44.1800041  82.7046432   0.7794688  43.3299675  44.5329018
  -0.0071875  42.9828835  44.1122627   0.7902107  42.9187126  45.3971863
  60.2196503  44.2615776  77.5112228  60.6503067  43.9378204  76.7200546
  60.1996994  43.5064697  78.0991440  50.4976082  24.0969543  23.8840084
  51.0944099  23.8390064  23.1814957  49.6339226  24.1106815  23.4715900
  11.9396305  42.0520782  78.0612259  11.6398659  41.3091469  78.5850830
  11.5736618  41.8946266  77.1908798  45.8568726  15.4164143  79.7621918
  46.6881218  15.4326429  80.2365265  45.1956215  15.2871523  80.4421005
  80.0679169  45.0436058  80.6258621  80.4455032  45.5148354  79.8831635
  80.5948868  45.3177910  81.3764267  80.4020081  43.3166580  71.9997101
  79.9878311  44.1401863  71.7418518  79.7301865  42.6523323  71.8462296
  65.8084412  29.6177406  20.8427658  66.0252838  29.3368702  19.9537659
  66.4855957  30.2571411  21.0638084   3.4794376  13.2760487  67.6264877
   3.5550563  14.1731100  67.3012238   3.0903459  13.3685999  68.4961243
  64.9752655  59.9339447  66.4066849  64.1728363  59.9814644  66.9263840
  65.6799240  59.9242783  67.0544434  47.1808205   5.5609946  83.8492889
  46.9440002   6.3718257  84.2995071  46.8650322   4.8656154  84.4263077
  43.4517403  36.4097824  88.3139877  43.6803780  36.6434364  87.4143372
  44.2097321  36.6808662  88.8318634   2.2697372  29.5338326  51.8179512
   3.1028707  30.0037556  51.8539085   2.2553163  29.1382160  50.9464493
  15.5359545  47.5969849  28.9310379  15.3069324  48.4772148  28.6327515
  16.2179508  47.3084412  28.3245258  43.7367172  71.1740875  65.1284943
  44.2789421  70.9412079  64.3748398  44.2328224  70.8630905  65.8857193
  53.8410149  39.0027084  81.2140884  53.8041611  38.1803856  80.7255707
  54.7165642  39.0125275  81.6008072  50.4036446  17.2372570  72.6561279
  49.6989555  17.8850536  72.6536560  50.6225319  17.1179352  71.7319641
  54.8408394  16.7454929  68.4903412  53.9916878  16.6214504  68.0663223
  55.1141396  15.8632727  68.7417908  70.2950745  12.5459538  13.1548595
  70.3566284  12.2233887  14.0539675  71.2016296  12.5780430  12.8493156
  60.0027809  30.7163620  72.3366165  59.7426567  30.2013607  71.5728455
  60.8953896  30.4279995  72.5272217  54.6389656  14.8389482  39.5442619
  55.1472816  15.3025045  40.2098160  54.4173927  15.5117226  38.9004364
  59.1620064  28.9701824  32.6729431  59.9378319  28.4100018  32.6958618
  58.6225395  28.6036358  31.9723377  21.0805531  54.0402908  78.7976074
  21.4769688  53.4423637  79.4313049  21.6857319  54.0389671  78.0559998
   3.6981540  61.1365013  62.8276291   3.2178607  60.8786507  62.0408249
   3.0203822  61.4295616  63.4367065   7.1607533  51.0538635  75.3813858
   7.6597848  50.8462563  76.1713791   6.8567152  51.9510002  75.5189972
  63.3889351  12.6879234   8.4288139  63.7887001  11.9272442   8.0071640
  64.1292953  13.2443666   8.6706161  66.0340805  58.9727821  68.9367142
  66.6076050  58.5833893  69.5967712  65.2143707  58.4845276  69.0135880
  74.4552765  65.6205444  82.2732925  74.1964417  64.7509308  81.9683075
  75.3750076  65.5238266  82.5202179  18.3770771   7.0559959  28.3904209
  19.1447124   6.7802324  28.8913441  17.8928261   6.2462468  28.2290554
   8.7685614  61.9076195  61.1744461   8.9953041  61.2761002  60.4918022
   8.1711349  61.4321442  61.7517128  41.8454170   5.3707986  24.2023830
  42.6087723   4.8482981  24.4483814  41.5095291   5.7095551  25.0322361
  14.1598988  44.4403191  88.3980560  14.5827637  45.1677475  87.9416962
  13.3851767  44.2448387  87.8709641   6.4454517  38.7060089  59.8523483
   5.6551147  38.4057770  59.4035034   6.9628377  37.9114532  59.9835815
  53.4481125  30.4202251  18.9346676  54.0363159  29.6877022  18.7512112
  52.9197006  30.1233482  19.6755295   5.4141703  61.5292816  44.6396713
   5.9777822  60.9561729  44.1199417   5.7318192  61.4280052  45.5369301
  81.3156052  17.0552921  35.9651451  80.8871002  17.8130875  36.3630905
  81.6652298  17.3851414  35.1373825  39.4562225  54.4691658  28.9815674
  40.0529671  53.8063431  28.6340122  39.9749298  55.2734718  28.9979305
  77.7503586  16.7866211  23.8988323  77.5291901  17.1896038  23.0592365
  77.1304092  16.0627556  23.9877663  22.5213680  17.3401375   4.0032501
  21.7610302  17.1827831   4.5630331  22.5923500  18.2936344   3.9581375
  58.7539902  28.8663769  80.1125488  58.5706596  29.8010845  80.2071228
  57.8906288  28.4533501  80.0969086  43.3605003  55.0860176  14.9540176
  44.0747795  54.4488525  14.9614811  42.8731461  54.9089165  15.7586002
   3.3468204  38.6460648  52.0254517   3.5479383  37.8190079  51.5875435
   2.3926284  38.7115059  51.9871559  68.8031921  51.0128670  78.6812897
  68.3757935  51.2738113  77.8655243  68.4812012  51.6377869  79.3309250
   9.9928455  65.7932816  84.9951630   9.1190319  65.7141953  84.6125107
  10.0677290  66.7176285  85.2322388  65.3160248  62.2189522  78.1635742
  64.6690140  62.6453819  78.7254944  64.8417130  61.4910316  77.7618332
  74.3396378  15.0609274   3.0673287  74.2982635  15.2158566   4.0110006
  75.0097504  14.3851719   2.9647064  80.5932617  62.7646828  54.6717682
  79.7375412  63.0788193  54.3797112  80.9697342  63.5040932  55.1490211
   8.4041309  32.3627892  66.4880142   7.6805139  31.9690533  66.9754410
   8.0325317  32.5650635  65.6293945  80.6504211  52.8850708  32.0333939
  80.1953812  52.1663513  32.4722710  79.9681625  53.5363007  31.8701134
  43.8631096  45.4789085  22.2172222  43.7173424  44.5826683  21.9143391
  44.1513557  45.3811378  23.1247368  80.0520630  39.6718407  71.7401810
  80.5436249  39.0554314  72.2829819  79.6848907  40.2992821  72.3628540
  69.1295013  40.1056900  49.7705078  68.9371948  40.7567558  50.4453125
  69.8584595  39.5985489  50.1278038  10.7742386  30.8412247  60.6945267
  10.8907537  29.9853573  61.1070137  10.8080111  30.6609192  59.7550697
  38.8619041  51.3373299  80.8938293  39.1046982  52.2510567  80.7442245
  39.5719147  50.8327713  80.4969177  18.3137474  60.5410500  19.0350857
  18.9651299  61.1250458  19.4235172  17.6546326  60.4281235  19.7199554
  10.2624006   1.6695238  54.1439857   9.7398167   1.1678772  54.7696762
  10.6395226   2.3803179  54.6624298  79.9633179  18.5104771  12.7482967
  79.1890793  18.5884514  12.1908903  79.6609039  18.7759743  13.6167946
  34.8913193  48.9151001  41.6652985  35.0498695  49.8534889  41.5627251
  34.2850876  48.6958733  40.9577293  14.0616627   2.9303010  27.8561211
  14.0126343   3.4661660  28.6477509  13.5291605   3.4009814  27.2149239
  63.1938362  20.4741020  41.7125359  63.9635124  20.1094055  42.1493797
  62.7836533  19.7231598  41.2835045  78.2594986  68.8377304  53.2269897
  78.4970932  68.9688187  52.3090591  78.5736160  69.6256256  53.6705742
  75.5785446  36.2167015  34.6879616  76.4202805  36.2671776  35.1409111
  75.7107925  35.5541687  34.0098801   2.4147468  26.5058842  36.5432854
   1.7031745  27.0215034  36.9228058   2.8398530  27.1018486  35.9265671
  51.8645210  39.1463699  30.0867405  51.4416580  38.9123878  30.9129791
  52.3248444  39.9639130  30.2763748  67.6834259  23.2412739  30.0090981
  67.2079468  23.4729042  30.8069115  68.2817307  22.5451145  30.2804279
  49.9977264  27.1830921  34.8074188  49.6301804  27.9991035  35.1469269
  49.9933281  26.5881748  35.5572777  41.3488007  45.1971321  27.0616894
  40.4091454  45.0159645  27.0403538  41.7487335  44.3603783  27.2986183
  60.3901558  68.9926300  18.2907200  60.2554092  69.3169785  19.1811543
  61.3373604  69.0374985  18.1602421   1.4890437  70.6387863  34.1231270
   0.5412977  70.7025299  34.2412186   1.6266950  69.7645950  33.7583389
  28.6377411  61.6745148  86.8425217  28.6277237  62.5234413  87.2846298
  28.1479206  61.8201866  86.0331421  72.4374084  20.8508110  13.0080767
  73.2497940  21.2060242  12.6473999  72.5875092  19.9064617  13.0517597
  75.1868057  44.2160072  30.9355698  75.9935303  43.9988899  31.4027805
  75.2041092  45.1699257  30.8582840  78.1126175  10.6165266  81.6950836
  78.6946335  10.2901735  81.0088043  77.2314224  10.4372520  81.3670807
  83.7392654  21.8492966  76.6315384  83.9969254  21.1997261  77.2856827
  82.7976761  21.7173595  76.5209351  30.7675800  11.8185081   0.7085303
  30.1572800  12.5461664   0.8280243  31.3842430  11.9011955   1.4359373
  30.0019207  51.5493889  27.4845181  29.4910583  52.3515472  27.5931282
  29.6775455  50.9643097  28.1691303  41.5330925  10.2341661  88.6508560
  41.0965004  10.7965651  88.0110703  42.4582901  10.4708538  88.5858994
  30.2975883  27.6567650  64.4145508  30.8507481  26.8915730  64.5717926
  29.6246910  27.3455219  63.8091049  81.2473145  70.0085144   0.0652860
  80.3298035  70.0917892  -0.1944728  81.4919205  70.8841858   0.3646068
  70.1941757  70.8292542  11.8880224  70.1193848  71.7000351  12.2783823
  69.8008423  70.2425842  12.5340414  10.3418055  16.2823753  11.0208263
  10.1672440  16.5119305  11.9335499  11.0220385  16.8968239  10.7452030
  62.5845108  69.3491058  76.6938705  63.3822861  69.8458252  76.8757095
  62.1408310  69.8505630  76.0098267  54.2579880  23.5379524  52.2752495
  54.5984955  23.9678364  51.4907227  53.6241379  24.1596203  52.6330109
  32.0265541  45.3568764  41.1865578  31.9210606  46.0988998  41.7819595
  31.2467384  45.3819885  40.6320381  62.0394287  30.4169712  57.3867378
  62.0719528  30.0330830  58.2629852  62.8319588  30.0972157  56.9555969
  51.5282860   1.3374063  71.6846619  52.4594040   1.4790723  71.5138397
  51.1835136   2.2105701  71.8716125  10.5458317  25.0989628  11.1298847
  10.2112446  25.9722462  11.3339901  11.4811220  25.2310085  10.9748755
  34.9428558  66.4661636  74.6127853  34.6314392  65.5908585  74.3823776
  35.8462715  66.4897079  74.2973251  11.7988949  18.1596165  78.0450134
  10.9362135  17.8100491  78.2682037  12.1584587  17.5294533  77.4206390
  66.0108566  19.8976994  65.9183731  65.7441254  19.4407120  65.1207199
  65.5563583  19.4354229  66.6226196  32.2874641  46.9472961  82.1390915
  31.3762074  46.7001610  81.9817123  32.7747002  46.1269150  82.0628967
  35.6813850  70.0363922  44.3346863  36.4459190  69.8797913  44.8889351
  35.1570778  69.2400360  44.4192657  61.9356232  65.8350601  32.8689041
  61.2339287  66.4578781  32.6792793  62.6082268  66.3576965  33.3055878
  56.0271225  38.3451118  73.3498383  56.6807632  39.0154724  73.5488434
  55.4400253  38.3511505  74.1058273  33.2706757  63.5459175  10.9795580
  34.1309357  63.1304092  10.9200420  32.6642532  62.8919373  10.6320028
  69.7333755   3.4118004  70.1241760  69.6968384   3.1855307  69.1948166
  69.5321579   2.5934112  70.5780258  34.9834671  22.9452934  67.9055862
  35.6725311  22.3805180  67.5556564  34.6942749  22.5036640  68.7040558
  43.5240173  60.9344330  74.1233368  43.9834747  60.1710548  73.7734909
  43.0905228  60.6117706  74.9133987  68.9320450  27.1837025  55.6345253
  68.6032715  26.3498688  55.2985802  69.8622894  27.1827431  55.4089432
   3.1254637   3.8112016  33.8209763   2.7117603   2.9627957  33.9799995
   3.8510826   3.6164265  33.2278709  80.9337692  53.5161934  55.5110321
  81.8216782  53.8087578  55.7165718  80.8176880  52.7202835  56.0299606
   2.4799895  55.8433304  77.0877533   1.9336905  55.7948608  77.8722534
   3.0306716  55.0615768  77.1306915  84.0074921  13.2325478  78.8963318
  84.1331711  14.1721601  79.0288696  83.5720520  12.9341660  79.6948242
  43.0932922  65.8775101  53.4733810  43.1189804  66.7153549  53.0112343
  43.9620247  65.7941055  53.8665504  78.2775040  49.8733902   7.9909759
  78.9679947  49.8397789   7.3289118  77.6369019  50.4907570   7.6378126
  73.4709473  24.1842060  52.3935852  72.9234085  24.1751175  53.1786613
  73.6279373  25.1126862  52.2218018  36.2461014  45.5901451  13.0486908
  35.5194740  44.9942017  12.8667498  35.8592491  46.4638481  12.9919710
  84.6567993  53.8600388   3.2337785  84.6411896  53.4846764   2.3533864
  84.9962769  53.1571808   3.7878361  50.4118767  67.0527649  87.3659973
  49.5613518  67.2707291  86.9847717  50.3739738  66.1074448  87.5114441
  21.2726707  46.4998055  70.9783554  21.0820160  45.9375801  71.7292175
  21.1389332  45.9357109  70.2166901   3.6817727  10.6224403  48.6370659
   4.2665234  10.3840952  47.9176979   2.8978639  10.0920324  48.4942856
  59.0549393  69.4473724  47.9998627  59.2053642  69.3193359  47.0632706
  58.2776985  68.9225998  48.1915512  26.2782593   4.2321458  72.3552246
  26.4867878   3.3214917  72.5636826  26.2829762   4.2660017  71.3986359
  52.9646111  20.6414948  66.6797943  52.7088852  21.3886604  67.2206955
  52.6146049  19.8800354  67.1422958  75.4176559   1.4889828  71.9434509
  74.4607239   1.4665391  71.9451828  75.6491699   1.8973163  72.7776566
  69.4909058  15.4670238   0.2895786  69.1127472  16.2768879   0.6321337
  70.3450012  15.4020443   0.7168113  12.3002224  68.5028458  57.4325676
  11.6358213  68.6855774  58.0969543  11.8577442  67.9358139  56.8009644
  12.1321602  64.6077271  49.7968330  12.5649796  64.9889374  49.0329132
  11.3412151  65.1344604  49.9116669   8.9478149  71.1188049  70.3147583
   9.2119951  71.1334000  69.3948517   8.6158848  70.2319565  70.4545898
  76.7898788  40.8351135  81.1889801  76.1136093  41.4236565  80.8535461
  77.2535629  40.5332069  80.4078979   7.9239941  44.5508041  58.1422081
   8.7817402  44.3562393  57.7645187   7.8072548  43.8897934  58.8246078
  27.6057243  44.9937782  64.2030563  28.5269814  44.8159981  64.0135574
  27.5616760  45.0368996  65.1582718  77.8335724  15.3655834  74.3341827
  77.8330078  16.2181473  73.8990250  77.1253357  14.8802223  73.9110336
  82.5686493   5.0634074  19.2124977  83.2617264   5.5858746  18.8088856
  82.3805161   4.3784852  18.5708447  56.1966400  43.2534676   1.3911134
  56.5974007  42.6590919   2.0254171  55.2763519  43.2959290   1.6509162
   6.8373442  37.5492630  64.0146866   7.6514764  37.2115517  63.6413651
   6.9236274  38.5007706  63.9562225  80.3743439  29.1871262  43.8669624
  80.4178162  28.7440262  44.7143135  79.6394272  28.7709599  43.4164772
  18.1372185  38.3593063  78.8158417  18.6611271  38.4583244  78.0208893
  17.9928246  39.2551155  79.1206512   1.8414026   7.9886894   2.2007532
   1.6472301   7.7321916   3.1022730   2.7880187   7.8736434   2.1176016
  84.8996429  16.8634701  44.0298080  84.3449936  16.4507236  44.6918030
  85.6916962  17.1157551  44.5044022  65.0355453  17.4124641  54.6640282
  64.9852600  18.1809044  55.2325401  65.9089355  17.4590034  54.2751083
  56.5369301  33.5437012  61.2691154  56.8953934  33.2392960  62.1028252
  55.6479225  33.1895638  61.2470627  72.3868484  28.6226578  84.4590302
  72.8763962  27.8221588  84.2698975  72.0317841  28.4844437  85.3371277
   7.7123847  28.1980286  73.9923782   7.9559093  28.7617741  74.7266235
   8.3114080  27.4538841  74.0528030  83.9933548  11.0136747  82.2880707
  83.8322220  11.8611917  81.8733597  84.1708450  11.2253618  83.2045441
  44.3358231  28.7488117  83.1809158  44.2701111  28.5929928  84.1230621
  45.2717819  28.8728867  83.0233765  23.5017719  21.1716042  58.4690247
  23.4515171  21.4457855  57.5533104  22.6607418  20.7471085  58.6384430
   0.7851024  13.5921392  47.4912109   0.0223258  14.1221409  47.2599068
   1.5148810  14.2115259  47.4950104  54.2850990   0.4691643  45.4801674
  54.7906761  -0.3362150  45.3706932  54.6813622   1.0862074  44.8649750
  67.8048935  56.0793571  55.5931816  67.9667816  55.1409264  55.4963799
  67.0146179  56.2405014  55.0776901  70.9572678  31.3070221  52.0203400
  71.7856750  31.7845669  52.0642471  70.4378891  31.6615601  52.7419930
  77.1834488  71.9125061  78.9114304  76.8392639  71.1800995  79.4226532
  78.0924835  71.6727142  78.7314606  53.7261124  45.7933693   0.7940344
  53.6992874  45.0833473   1.4354278  52.9372063  46.3058052   0.9708670
  45.7658043  21.2987156  61.5664635  45.0848122  21.4703522  60.9160576
  46.2877350  22.1009045  61.5841675  69.3021088  26.4299316  71.6472549
  68.9221878  25.8897095  72.3401108  69.2069092  27.3280296  71.9644165
  52.4188766  66.9689636  25.0758228  53.2524147  66.5139160  25.1957226
  51.8254471  66.5499878  25.6991501  34.4385681  55.1155396  79.6179428
  33.6133499  54.6305199  79.6195068  34.1787186  56.0306778  79.7239151
  54.8648148  63.1300583  34.1571236  54.4959412  62.2603455  34.3112946
  54.2515907  63.7292099  34.5828094  57.3413200  34.8207207  81.0821838
  57.0967522  35.4126816  81.7935181  56.6435165  34.1657333  81.0650330
  50.4950142   6.1325717  73.4241180  50.3868866   6.5259795  72.5582275
  49.6778259   6.3313050  73.8812256   5.2915740  68.8210297  83.3934860
   6.2229056  68.7219849  83.1958923   4.9718313  67.9246521  83.4959946
  43.1468391  69.3622208   1.9888233  43.1257782  69.9508438   1.2342962
  42.9330750  69.9219589   2.7353013  51.1472893  32.8226700  77.4634018
  50.8880615  32.2146111  78.1557159  51.5944633  32.2747116  76.8184128
  40.3449898   0.9282622  85.1397476  40.2812500   0.7449622  84.2024231
  39.5887947   1.4844451  85.3269958  72.5629044  21.6240292  59.7701988
  73.3652191  21.9332085  60.1908302  72.1859283  22.4069386  59.3687325
  79.9011154  71.0737076  55.0121231  80.0026474  71.7760925  54.3697929
  79.3710022  71.4609680  55.7087173  17.1843548   4.1911974  32.5250130
  16.4499664   4.2683206  33.1340790  17.1569595   3.2807298  32.2308540
  27.8008041   5.9874425  29.7088718  28.3107376   6.3966961  29.0097942
  27.1075573   6.6189418  29.9008312  68.4996796  24.0707970  68.2289581
  67.7760315  24.6749706  68.3949051  69.2657547  24.5062122  68.6028214
  82.5614166  41.4119568   3.4307723  81.9899750  42.1657791   3.2843347
  83.3580017  41.6165466   2.9410546  82.5667725  27.0714817   4.3892965
  83.2765884  26.4398804   4.2732096  82.8361816  27.8319168   3.8741357
  74.7392197  12.1326895  49.7129555  74.2482376  12.1786327  50.5333557
  74.2662735  11.4881210  49.1865616  41.5859146   3.6394899  75.9058533
  41.7217369   4.5495028  76.1697845  40.8010559   3.6634655  75.3584442
  60.4336815  17.3337364  70.7922592  61.1348724  16.7823009  71.1393585
  59.7008133  17.1952324  71.3922195  76.3519745  32.9526863  21.5182457
  76.7751007  33.7820091  21.2959347  75.4832306  33.2036324  21.8321590
  56.9237633  36.2525635  83.6979141  56.2408295  35.9148026  84.2773590
  56.5426407  37.0418091  83.3131180  85.2054825  12.6350222  56.4917412
  84.8897705  13.5385666  56.5045319  86.1509018  12.7098007  56.6214218
  34.7327881  60.7047119   4.3304524  35.0807304  61.4057465   4.8815570
  34.9204712  60.9879951   3.4356022  12.0601397  25.9900532  74.3061523
  11.7429962  25.4159508  75.0033340  11.5954943  25.6950436  73.5230179
  27.2456226  17.7098560  57.9172859  27.0004482  18.5589123  57.5495567
  27.2444592  17.8496227  58.8642235  11.5249863  60.4440613  34.8927574
  11.1837902  61.3293648  34.7660561  11.6179514  60.3566971  35.8414192
  46.3240891  32.4795189   5.6271272  47.1895294  32.6267204   6.0086761
  45.9403992  31.7861748   6.1640520   1.1874242   4.0686913  49.7075310
   2.0041430   4.2319784  49.2357903   0.5628014   4.6852608  49.3255348
   4.0038552  10.4214678  81.5603943   4.4518123  10.2255116  82.3833008
   3.3006334  11.0219688  81.8076019  46.0412140  15.1064520  76.9629517
  45.2953873  14.5143518  76.8660507  45.9965973  15.4009781  77.8726196
  64.8318863   0.1918212  20.8356304  64.1419830   0.8356987  20.6753769
  65.0723419   0.3217257  21.7529831  81.6644135  60.4964409  36.4155045
  81.6507721  60.7043495  37.3497543  81.9179306  59.5741425  36.3790588
  17.4780388  24.9788742   6.1419506  18.3070641  24.7113628   6.5386720
  16.8149872  24.7435799   6.7909727  68.7735977   8.5234661  22.0627480
  69.6603928   8.4772072  22.4200916  68.2731171   9.0002203  22.7249050
  64.7737961  48.2387848  58.4580917  65.0665588  48.4841537  59.3357697
  65.5199127  47.7753830  58.0775604   9.7626638   4.6043439  41.8446770
   9.4823990   5.2916207  42.4491043   9.0459871   3.9699066  41.8544617
  24.7565651  45.9284706  16.2042904  25.3346558  46.6873627  16.1260300
  25.0365219  45.3407440  15.5025549   5.6676760  24.0084705  66.5926819
   4.9066505  24.2236633  67.1319122   5.8674679  23.0985546  66.8126144
  57.1671753  15.6080170   2.2920146  57.1836166  15.0440693   3.0652699
  56.9762421  16.4806290   2.6359968  44.5135422  13.4305964  62.1100998
  44.0202103  12.7088985  61.7202187  44.8654861  13.9121294  61.3614388
  77.3266983  35.7577629  44.2033577  76.8548584  36.0022316  44.9994965
  78.2461472  35.9278526  44.4080887  40.0927429  60.3513680  88.2516708
  40.1968880  61.1456413  87.7277222  40.8621712  60.3373260  88.8208923
  20.0757370  67.9794617  84.1273499  19.9633026  67.4602661  84.9236145
  19.6156311  68.7989731  84.3088226   3.9118068  52.0469971   6.2101059
   3.6791184  51.6915741   5.3523397   4.8654447  51.9741707   6.2488637
  25.5916862  47.9834175  49.3654022  25.3425121  47.0742340  49.5313263
  25.3000069  48.4576187  50.1440468  20.2180424  26.9881306  60.8747139
  19.9402351  26.0806751  60.7499008  19.8751736  27.4508953  60.1101723
  57.6562233   8.3941460   9.4410791  56.8879128   7.9885569   9.0392981
  58.3508987   8.2871437   8.7913046  66.3611832  60.7751808  75.0793686
  67.0301819  60.1727982  75.4046478  65.5626297  60.5176735  75.5400543
  24.0898170  23.4569378   4.6061411  24.3602657  22.5614910   4.4030046
  24.6131516  24.0039196   4.0203395   1.7762700  44.3641548  52.2065201
   2.4113448  44.6929321  51.5702705   1.1220728  45.0597115  52.2732925
  38.7053337  69.2911453  41.7983932  39.6252785  69.5447006  41.7233009
  38.6915588  68.6464386  42.5057793   2.2261045  63.3535042   1.9500220
   2.9305201  63.7615814   2.4535139   1.6056710  64.0639191   1.7869173
  50.1225586  11.6788692  32.3782692  49.7557907  11.8390684  31.5087585
  49.4256287  11.9337730  32.9828720  17.2484818  38.3533974  16.4892750
  17.6392021  39.0156479  17.0593567  17.7921467  38.3645630  15.7015343
  68.4664993  29.4000587  53.1845284  68.5354233  28.4578419  53.0305519
  69.3715973  29.7113609  53.1736717  35.5713577   4.8017297  14.5911980
  35.1058426   4.3673377  15.3059225  34.8883972   5.0154195  13.9554815
  70.2394562  15.5228720  86.7408752  69.8060455  15.2395334  87.5459213
  69.7196274  16.2674942  86.4383087  83.6842194  68.6715698   2.3927853
  83.9757156  69.1307526   1.6051250  84.3100204  68.9334183   3.0680952
  17.0997410  71.0536194  28.3955574  17.3464527  71.2605362  27.4941425
  17.1625023  71.8889008  28.8588085  10.6374159  44.1297150  57.5555840
  10.5935783  44.6833534  56.7759743  11.0378256  43.3160248  57.2492981
  21.6422462  63.7008209  37.6920662  22.1121101  63.4532356  38.4884109
  22.1922474  63.3766479  36.9788742  77.1644592  23.6692619  86.3395920
  76.8091049  22.7961750  86.5059509  77.5439682  23.6103230  85.4628220
  21.6205158   7.1381993  24.6794739  20.9714756   7.5184627  25.2714024
  21.9687901   7.8858576  24.1937351  56.9128609  31.1879959  28.8478966
  56.6997795  31.8107109  29.5429173  57.8408279  31.3384762  28.6677113
  73.1923065  47.2871857   5.5523276  72.8090363  47.6935463   6.3296347
  72.8667450  47.8131905   4.8218751  54.6626167  64.8378143  13.7357721
  54.1626053  64.6775894  14.5361128  55.4840317  65.2239227  14.0397968
  65.7243576  42.1404915  40.5646133  65.5489197  42.1115227  41.5051537
  64.9699173  42.5986023  40.1942406  35.0924225   5.5240693  66.1228180
  35.0600166   6.1097517  66.8792267  34.9437943   4.6520681  66.4885406
  83.7674484  25.5378418  71.2198944  83.5721359  26.3656101  70.7807083
  84.2932434  25.7880268  71.9796219  10.0245037  52.6202049  28.2350845
  10.6384583  52.2795563  28.8856621   9.3341379  51.9588432  28.1878967
  27.2465439  40.2684669  59.5946693  27.6926079  40.5463562  58.7946472
  27.2104664  39.3141594  59.5296364   9.3460646  59.3496323  50.1049080
  10.0484133  59.9661293  49.8978577   8.7018328  59.8721352  50.5825996
  51.8856354  52.6904297  49.4077835  51.4833488  53.4824944  49.0513725
  52.6570015  52.5461273  48.8596916  56.0115242   5.7226295  25.6748562
  55.8974152   5.3818908  26.5620461  56.8171310   5.3111029  25.3620071
   2.9297290  26.8356724  12.9832611   2.8665235  27.6611538  13.4636984
   2.2211728  26.8774605  12.3410511  79.9321365  47.2924271  65.7305145
  79.9097366  46.3438416  65.8566666  79.5680466  47.6503868  66.5401688
   9.5645123  66.1720886  19.9099979   8.9996519  65.5556946  20.3760662
   9.5539227  66.9622040  20.4502220  45.9021530  48.9659309  32.2431335
  45.0730705  49.4294281  32.3615303  46.1644554  49.1697960  31.3454323
  77.8430099  29.1858692  83.1777496  77.4319916  29.4394131  82.3513031
  78.7156143  28.8819351  82.9279404  84.7301407  49.2635078  17.1631851
  84.0982895  49.9154892  16.8600178  84.3228226  48.4218674  16.9583263
   2.6491177  51.1980553  33.6516228   3.1701052  51.8930817  33.2494469
   3.0572917  50.3869591  33.3487282  19.8637466   3.6388009  24.5971775
  20.2490482   4.0536685  25.3689671  20.5278549   3.0149424  24.3039322
  61.7738228  18.5324402  10.5829535  62.1108627  18.9274101  11.3870907
  61.5853500  19.2766933  10.0112906   7.1361203  23.1251736  18.6572762
   6.4040551  23.7407074  18.6950836   7.0412760  22.5914574  19.4461880
  82.6514359  22.5036888  48.6049500  82.6894379  23.4463310  48.4430428
  82.1374969  22.1560097  47.8761024  60.7450867  41.8270912  23.5361118
  61.0591698  41.5218658  24.3872395  60.7481689  42.7815895  23.6079121
  81.1535645  65.2079315  56.1470985  82.0400085  65.5059814  56.3511086
  80.6797409  65.2808533  56.9755974  46.9582481  29.9845486  82.1793137
  47.0447350  29.8282146  81.2389374  47.8331375  29.8197994  82.5309601
  29.4145908  50.2294960  35.8918152  29.5650616  50.1324005  34.9515152
  28.7429867  50.9083138  35.9580650  27.0529041   1.0308480  38.3712234
  26.1006432   1.0410066  38.4678154  27.3714333   1.5909466  39.0790787
  76.5219803  39.9947395  22.1653366  77.0913849  40.0033913  22.9347095
  76.8879776  40.6655960  21.5889397  11.8902121  56.0480347  38.2074051
  11.0315056  56.3257256  38.5263748  11.7007961  55.5503502  37.4120026
  69.6124115   5.8666725  27.6959438  68.9989853   5.6242709  27.0022717
  69.6338577   5.1040201  28.2739868  76.9505615  68.9382553  56.0631752
  77.5769196  69.4874420  56.5346680  76.2439423  69.5361099  55.8192749
  37.5493774  47.5925980   4.6583085  37.7667465  48.5147362   4.5217662
  38.2377815  47.1134148   4.1970925  34.7237053  26.8275757  74.5053940
  34.4070702  27.6980476  74.7467499  35.6626091  26.9456654  74.3613510
   2.5254784  67.2226410  57.8591843   3.3481350  66.9363098  58.2560272
   1.9062872  67.2550201  58.5884209  68.3220520  30.1937923  78.6042480
  68.3063660  29.6419449  77.8222885  69.2517548  30.2905960  78.8104630
  39.5703049  46.5662003  34.2246590  38.8332062  47.0386086  34.6116295
  39.5629005  45.7133675  34.6592216  49.8813400  16.9667912  26.6970444
  49.8867188  16.6058617  25.8105164  50.5412025  17.6599216  26.6774616
  30.2386780  41.0362549  85.2466431  29.9101486  41.0174255  86.1455002
  30.7421570  41.8485489  85.1926193  82.2138901  70.5363007  35.5340576
  82.2362289  70.7285538  34.5966301  82.6696320  71.2733383  35.9406357
  64.0116425  25.2355824  85.5628204  63.9247169  24.9333744  84.6587448
  64.2572403  24.4520302  86.0547104   9.4374371  42.8749313  19.6194115
   8.5664682  42.6635551  19.2833080   9.2765856  43.5039139  20.3227863
  68.5598373  33.2524529  82.6630402  68.0277328  33.3728523  81.8765259
  67.9272308  33.2448807  83.3813553  72.8823700   7.0681486   0.9721525
  72.5505142   7.1691012   1.8642919  73.8198853   7.2475591   1.0436064
  44.2371445  37.2572594   3.1885889  44.9396820  37.1212387   3.8243341
  43.5285683  37.6534195   3.6957486  42.3592148  24.9659863  88.5192261
  42.7467155  25.0982533  87.6540222  42.6934738  25.6926632  89.0450058
  34.3813934   7.5171714  78.8369522  33.9409180   7.4388723  79.6831665
  33.7940025   8.0593872  78.3104477  40.8595772  42.8108711  86.7734299
  41.3285103  42.1492462  87.2819366  41.5148849  43.4857407  86.5963516
  66.6707153  19.6436443  88.0835953  66.5987091  20.5261173  88.4473114
  65.8552475  19.2121754  88.3386841  77.2675018  12.1237268  62.5133972
  76.8196793  12.8678360  62.9158745  76.7596588  11.9370832  61.7237854
  38.0223503  65.8667984  18.2835693  38.7618294  66.0516739  17.7045879
  37.9098396  66.6697998  18.7922516  62.9052048  55.2492828  29.1869125
  62.2291145  55.8327942  28.8424568  63.4239883  55.8023186  29.7710724
   4.6257558   4.3554969  70.6614304   5.0823393   4.5876160  71.4700623
   5.2410069   4.5844293  69.9648056  71.8630829  44.8564262  39.6702957
  72.6497345  45.3375587  39.4135208  72.1938553  44.0475311  40.0608177
  20.0275421  49.5634117   7.3149276  19.1180134  49.2662010   7.3405046
  20.1435089  50.0501328   8.1309443  18.1332455   1.8576645  68.1819153
  18.7363281   1.7680432  68.9198074  18.4228020   1.1956149  67.5541534
  37.9925613  46.1182213  62.1484947  37.7597885  45.9378548  63.0592690
  37.4634857  46.8801918  61.9124565   1.6641079  46.7126579  64.2960358
   1.5457004  47.3074532  65.0365906   1.1145736  47.0798759  63.6036530
   4.1564484   9.4320593  11.8404465   4.7688093   8.7702732  11.5190668
   4.5114594  10.2618322  11.5215807  30.2464714  62.8349724  55.9307213
  29.5480347  62.3723221  55.4677162  31.0170460  62.7246704  55.3736916
  65.2210159  50.4872665  14.9966373  65.9234619  51.1039238  14.7903814
  65.2481537  50.4033775  15.9497681  77.0937958  39.9762268   6.5732899
  77.2478867  40.3637161   7.4348803  77.5644760  39.1431046   6.5977077
  56.5109711  41.9895248   4.1826267  57.3640366  42.0592384   3.7540841
  56.3834763  42.8403587   4.6022191  51.0460548   5.6665192  69.0856934
  51.5049667   6.3444695  68.5896912  50.2978325   6.1194019  69.4746552
  60.5738525  64.3753357  27.8915272  60.1683578  65.1371689  27.4775009
  60.4404640  64.5130615  28.8293285  21.1550674  45.1006660  60.9416389
  21.2916317  44.8526573  61.8560104  21.4246521  46.0181503  60.8995018
  65.7030640  13.0375767  66.5331345  66.5748062  13.1059933  66.1437607
  65.2111282  12.4871197  65.9238434  85.1999283  64.7469177  23.7376728
  85.3064423  64.2673111  24.5591736  85.2932434  65.6672134  23.9837856
  56.0965462  18.7876492  25.0228405  56.9605484  18.3966942  25.1527691
  56.2584229  19.5447350  24.4599457  18.9843578  33.6054077  87.8505402
  19.2875404  34.0853119  87.0798187  18.7264080  34.2871094  88.4710007
  58.2828712  64.8955231  68.5862656  58.1586189  63.9727097  68.3644409
  58.4473076  64.8951569  69.5292358  59.3808098  18.0632839  59.2879219
  59.7259293  17.5887699  58.5316391  58.6398506  17.5348415  59.5844955
  15.5979395  40.3831329  65.7162399  15.3703413  40.6518974  64.8261871
  14.7830753  40.0332603  66.0765381  77.1315308   1.3615942  59.8995972
  77.9436340   0.9229891  60.1532631  77.4114151   2.0609660  59.3090248
  68.4481735  57.2429237  38.6179161  68.4900360  57.6242065  37.7409286
  69.2491989  56.7241783  38.6920357  66.5841064   8.6404448  24.3914280
  67.3367081   8.5694494  24.9786072  66.4439850   7.7487860  24.0727711
  72.1762009  20.1906948  68.4533157  71.8385773  20.2461281  69.3472748
  72.9300308  19.6043549  68.5179138  13.9410677  14.5769472  15.7424974
  13.1034250  14.1706133  15.9649363  14.1742773  15.0855618  16.5191288
  42.4675713  47.3270531  87.5121765  43.1943703  47.5980110  88.0730438
  41.7052116  47.7800980  87.8724442   2.6113694  35.3089981  15.1253099
   2.6229706  34.3542404  15.0579367   2.0557532  35.5935745  14.3996811
  16.2329483  40.0259552  48.4716187  16.0053310  39.1405602  48.1878967
  16.0635643  40.0265503  49.4137115  45.1633873  49.1903458   4.0927396
  45.7879105  49.7858200   4.5070090  45.6452904  48.8113251   3.3576577
  66.7679291  46.7423668  78.6800156  67.2718048  45.9442406  78.8391876
  67.3922272  47.4529877  78.8266525  41.4964676  36.2556076   6.5466037
  40.7871857  36.7803078   6.9178734  41.0641899  35.6820717   5.9138136
  22.7346058  10.7781200   2.6215658  22.6974030  11.6934271   2.8991644
  22.8982944  10.2896299   3.4282973  49.4135895  69.3854446  27.7355423
  49.5331154  68.4885178  27.4233494  49.0614204  69.8568954  26.9805946
  81.5278091   5.4138660  73.1465912  82.1200867   5.0011644  72.5180054
  81.6994247   4.9594293  73.9713745  43.5843163  54.1785278  19.0653763
  43.0908508  53.7049599  19.7350445  44.2414703  54.6719513  19.5562077
  53.4780388  46.0882721  86.5288925  53.7389870  46.2713242  87.4314651
  52.5742760  46.3986664  86.4732208  59.0805321  55.4733772  62.6441231
  59.9615135  55.4786415  62.2698517  59.2022514  55.1553955  63.5387192
  60.0551414  54.4237251  85.9190750  60.5453072  54.5896645  85.1138229
  59.5764046  55.2368469  86.0799332  76.1903687  26.8807545  68.6232452
  76.7343597  26.0935364  68.6476669  76.3713303  27.2704926  67.7679138
  22.0716934  71.3045044  26.3402309  21.3069859  70.8276749  26.6628590
  21.7809067  71.6935883  25.5154343  44.5833397  45.1684608  49.7136650
  44.9830513  44.3541031  49.4082527  43.6434402  44.9873314  49.7171860
  61.5948524  69.5093002  70.3737869  62.3933716  69.8437653  70.7821121
  61.0230598  69.2906265  71.1096268  47.0856743  68.5568771  83.5645676
  47.5799179  67.9487457  83.0149002  47.6038284  69.3616714  83.5571823
  58.7657738  30.6725159  67.1716614  57.8862534  30.4287205  66.8831558
  58.9193573  31.5295143  66.7739182  53.0605202  51.4338570  28.0711098
  52.2883873  51.0121574  27.6940002  53.5068436  50.7340050  28.5478020
  22.9171906  67.2158127  83.9464874  22.0127869  67.5164337  83.8575134
  23.3192596  67.8412323  84.5493393  54.7646866   0.3388941  49.1192055
  55.7095375   0.4744765  49.1906471  54.6081352   0.2334051  48.1808052
  33.3352852  70.0359650  21.4882679  33.4736748  69.1011200  21.6404190
  34.0954704  70.3102570  20.9753208  19.8915005  40.6265526  23.1842594
  19.7778606  40.7238388  24.1296959  20.4190388  39.8338165  23.0867519
  14.7317924  54.2651482  72.9785614  15.2853851  54.8183022  73.5297318
  15.3332081  53.8894234  72.3356247   2.2036316  27.1965599  84.4544373
   2.7418604  27.3744793  85.2257233   2.1951387  26.2420444  84.3833008
  55.3539581  23.9782677  44.2653503  54.6216125  23.5382118  44.6969185
  54.9508934  24.7065830  43.7927780   8.4327278  34.1179352  79.4147110
   9.0299015  34.1177940  80.1627884   8.5231609  34.9924622  79.0362167
  13.3867359  55.6142159   6.9374833  12.8955212  54.7930908   6.9111452
  14.2587461  55.3620224   7.2411771   8.9660034  61.1340752  88.9590759
   8.0250731  61.2473907  89.0933990   9.1328440  60.2206535  89.1915817
  21.0120144   0.4585278  34.0292969  21.1659832   0.9899210  33.2481766
  20.0653210   0.5001034  34.1644783  51.0380554  43.6983452  85.6870346
  50.2607422  43.2233276  85.9809265  50.6939621  44.4104271  85.1478043
  71.4214706  20.2648869  70.9920349  70.7766342  19.5991707  71.2312927
  71.0964279  21.0693798  71.3962250  40.0387230  40.0702057  77.8927612
  40.1000290  39.1222038  78.0100784  39.7467117  40.1811867  76.9879761
  61.8328590  58.8677826  19.0685654  61.8850441  57.9933090  19.4543152
  60.9412575  59.1601868  19.2577267  53.7933502   0.3110058  87.1779556
  53.2311096   0.3222432  87.9525452  53.7811699  -0.6006176  86.8863602
  30.4667835  38.9965706  75.4855347  30.2829800  38.2289200  76.0269775
  29.6092777  39.2718239  75.1612625  32.0427322  23.3269310  62.5073967
  32.2590370  22.3949261  62.4789543  31.0989380  23.3490505  62.6655121
  11.8799982  24.5134220  56.4842758  12.6772366  24.8290710  56.9097252
  11.2603083  25.2380123  56.5690422  53.2748985  46.6532707  56.6987534
  53.8958168  47.3812637  56.6719589  53.6343842  46.0092773  56.0886154
  35.9868164  56.0036316  50.4935608  36.1165886  55.2508316  49.9167747
  35.2477875  56.4752159  50.1092758  54.0744133  57.7610893  20.4944305
  54.2694817  57.5444260  21.4061527  54.4199333  58.6463127  20.3794155
  57.6140709  64.7171021  11.6705484  57.1916695  65.5224533  11.3718643
  58.2479935  65.0080414  12.3260889  49.4595909  48.6859703  69.4648666
  48.8347702  49.0433884  70.0958023  48.9193993  48.4018288  68.7275162
  64.1322708  23.7217369  14.8112240  63.3730698  23.1805573  14.5945024
  64.3666611  23.4599934  15.7016087  55.5181122   2.2463233   8.7284470
  56.0109901   2.9576528   9.1374846  55.6947441   2.3399234   7.7923522
  27.2513561  57.9370422  49.4552727  27.1760845  58.8866882  49.3618126
  26.4758682  57.6834183  49.9557991  60.1459579  16.6673870  44.8549576
  59.3627357  17.1441593  44.5802231  59.8248291  16.0216904  45.4843864
  67.6292343  43.3985710  45.9910545  67.5956345  44.3302155  46.2081757
  66.7352142  43.0872536  46.1326103  29.3982983  63.2919350  60.6465874
  30.0899200  63.5654030  61.2491722  29.8442554  63.1737595  59.8079071
   7.9454203  48.8590813  63.0769615   8.1764679  48.0378189  62.6429367
   8.3759594  49.5355949  62.5542793  39.7734261  49.7488022  36.0628891
  40.0558472  48.9720116  36.5456581  39.2017708  50.2151413  36.6727791
  83.1174774  21.9933739   2.3187115  83.2354813  21.0473652   2.4045725
  83.6355133  22.2305260   1.5495343   7.2933288  62.8246422  78.3999863
   6.5251217  62.2633400  78.2949600   7.6192865  62.6228638  79.2770691
  58.2871017  15.1888943  63.0388565  57.3551216  15.1055479  63.2405891
  58.4540749  16.1311092  63.0630569  39.1684570  35.3583641  53.4372826
  38.5056114  36.0451889  53.5089684  39.3590088  35.3062172  52.5006943
  44.7977066   2.0592909  24.0483036  44.4367218   1.1733050  24.0174809
  44.6624146   2.4038870  23.1655922  15.0750475  22.3687477  14.5518074
  14.6751995  23.1088829  14.0951300  15.7843218  22.0859966  13.9745607
  21.8479557  48.7899132  42.2098732  21.1234837  48.3114929  42.6129684
  21.6042385  49.7114677  42.2968597  80.0997620  64.2020111  29.1732101
  80.9808731  64.5754395  29.1937504  79.6267776  64.6660843  29.8639717
  61.3283539  21.5881176  47.6671944  60.9048653  20.7298355  47.6828079
  60.7179794  22.1476631  47.1870003  40.5919113  48.0093422  11.1355696
  41.3978310  48.2100601  11.6114216  40.8725967  47.4415359  10.4179039
  27.5309391  13.2408895  80.7953033  26.5898933  13.0684996  80.7645340
  27.8343925  13.0735455  79.9030380  52.2683563  32.3890076  32.2199898
  51.8066940  32.0280495  31.4631500  53.1073151  31.9282894  32.2308846
  62.8046074  18.3915672  16.0205784  63.0445251  17.8985767  15.2359562
  63.4536285  19.0933743  16.0702667  62.7195854  65.5719681  16.3058205
  62.6679001  64.6275253  16.1588783  63.6536560  65.7454147  16.4226780
  59.0219040  15.5188885  18.9067287  59.4394302  14.6586266  18.8636570
  59.2865067  15.9543810  18.0964413  46.3091240  67.0201035  65.0751038
  45.8388405  66.5517578  64.3853836  45.8035622  66.8475571  65.8693771
  81.2572784   5.3756623  34.0688324  80.6298599   4.7937098  34.4976768
  81.0819321   5.2696376  33.1338196  82.4786148  30.1657219  40.8429184
  81.6524582  30.6105480  41.0321960  83.1132050  30.8743401  40.7361794
  47.6211433   4.8755922  66.3435669  47.6946220   5.5825629  65.7024612
  48.1457405   4.1640000  65.9766006  85.8897400  70.4279404  59.1865082
  85.3245621  71.2003021  59.2027702  86.0889359  70.2574921  60.1071053
  32.6856155  36.2734337  68.6074066  32.6923141  35.3192291  68.5320282
  33.5626335  36.5415154  68.3331757  72.5695114  53.5264511  33.0992126
  71.7237091  53.4821854  32.6532440  72.3497391  53.7166443  34.0112190
  27.8013535  60.6564331  12.3565197  28.3867950  60.6301575  13.1133537
  27.9155598  59.8043327  11.9356728  64.8841629  54.9028625  63.2506447
  64.8519669  53.9583359  63.0987587  64.2293167  55.0584679  63.9312325
  63.6535416   5.9366012  36.6293526  63.3547974   6.8452439  36.6661339
  63.1152496   5.4811106  37.2766571  51.8990173  28.8107052  40.2362328
  51.2998238  28.4794788  39.5672913  52.6973572  29.0294247  39.7555542
  40.7527237   7.1072841  10.5072384  40.9435158   6.2549791  10.1155672
  41.2601395   7.7294068   9.9859676  69.0296249  11.8697405  39.6609573
  69.4283447  12.0240002  40.5173798  68.8367233  10.9322233  39.6519394
  43.5975761  63.2993240  28.5807934  44.1321259  64.0644989  28.3686810
  44.2161140  62.6707993  28.9530792   1.2420843  34.9980507  73.8970642
   0.3209025  35.0609322  74.1494522   1.3053119  35.5113411  73.0915985
  31.1589737  14.6849394  29.9489727  31.5669498  13.9543962  29.4841118
  30.7379932  15.2010994  29.2615242  52.2664337  54.9744453  22.5497475
  51.7767487  54.1521835  22.5316982  51.8766479  55.5007172  21.8516502
  62.4472771  18.5829945  45.0777283  61.9190445  17.7855358  45.1132355
  61.9593353  19.1678848  44.4980354  64.5197525  21.8811474  68.8474655
  65.4599304  21.7048664  68.8125305  64.1106415  21.0259533  68.7151642
  81.3949356  20.0360775  58.2907562  81.9391708  19.2520046  58.3633385
  80.6652527  19.8774261  58.8896065  59.2685165  22.8706360  60.3090973
  58.6970558  23.4961147  60.7545624  59.6165771  23.3551979  59.5605774
  72.8066254  57.9172745  80.9648361  73.0339737  58.4633369  81.7173996
  72.8706665  58.5065651  80.2132568  78.4131165  37.2976646  41.3736076
  79.1908112  37.2596397  40.8168488  78.6591721  37.8840752  42.0890198
  62.9085045   6.5527201  11.2646780  63.4467087   6.0535679  11.8790178
  63.1276398   7.4673438  11.4426489  23.5548248  20.5611610  78.1573181
  23.8669033  20.8006954  77.2847061  22.6395016  20.8409271  78.1694946
  41.6821136  48.9845276  15.0514774  40.8297005  48.8153992  14.6502008
  42.2625847  49.1673889  14.3126640  41.8513527  10.7329187  12.3753815
  41.6368408  10.4805508  13.2734499  42.7467194  11.0672693  12.4279222
  79.0467300  48.1469955  85.5524979  79.7882843  48.1282539  86.1574554
  78.5818939  48.9554176  85.7683716  55.4622078  11.9000864   5.8168459
  55.6016998  11.8099766   6.7595305  54.5179405  11.7921829   5.7030592
  77.6706009  44.9501419  54.6760941  77.6198578  44.9977531  53.7214279
  77.5628357  44.0201836  54.8755875  72.6576843  26.6479435  33.9837875
  73.5960541  26.6642017  33.7955933  72.4831543  25.7463799  34.2538872
  74.7046585   7.6590066  51.6995163  75.3277130   7.5924187  50.9759178
  74.8059158   6.8368816  52.1791916   6.0583420  24.2901001   1.2117826
   5.3643661  23.6883392   0.9424968   6.8173823  24.0290947   0.6902794
  26.8148861  67.0228271  61.3595772  27.5309124  66.6716690  60.8302155
  26.2886143  66.2568817  61.5889206   0.1987000   7.7625461  52.2730217
   0.4411322   8.6181602  52.6271172   0.8480619   7.1603155  52.6361732
  23.4577179  14.4550371  85.2396240  24.0014420  13.6783657  85.1078033
  23.7532902  14.8152256  86.0757675  34.7096138  50.7438545  61.1874504
  33.8495865  50.4789886  60.8612213  34.5281601  51.1617546  62.0292740
  69.6474915  33.1540794  66.0480652  70.1370392  32.3357735  65.9646988
  69.5980377  33.4956131  65.1552353  71.7667999  38.6644325  23.8170490
  71.3507614  37.8023796  23.8208008  71.7568893  38.9311600  22.8978157
  11.7367554  66.2958374  56.1351471  10.9019108  66.2150192  56.5963783
  12.0717897  65.4004517  56.0876083  67.2792816  33.2945366  67.7455673
  68.0788879  33.1923027  67.2294235  66.6404190  33.6524506  67.1291351
  75.0185089  39.6331367   4.4364486  75.5813751  39.9120712   5.1586738
  75.2771988  40.1901779   3.7022688  44.3084641  65.2579498  21.4305706
  43.3750496  65.0463867  21.4161587  44.3809929  65.9790039  22.0559158
  29.0497780  17.2606106  71.6753311  28.3309383  17.8898563  71.7349319
  28.6832962  16.5239334  71.1862259  12.4551077  45.4389992  53.3546295
  13.1663313  44.7993240  53.3198357  12.5501909  45.9469452  52.5489120
  22.5608959  59.8795738  35.7483788  23.3746433  59.9220619  35.2461433
  21.9741955  60.4931374  35.3061638  82.8403168  44.3364906  66.7130280
  82.2411194  45.0341492  66.4475784  82.2825699  43.6978302  67.1571655
  44.6330147  51.4248734   9.5561800  43.8153000  51.9174309   9.6266136
  45.2371941  51.8783836  10.1439943  75.4229279  49.4460564  28.4293728
  74.6900635  49.2386551  29.0091343  75.8298569  50.2172508  28.8242111
  58.9375191  64.6039352  85.6561584  59.0327530  64.5691528  84.7043457
  58.0066376  64.7762299  85.7975922  71.5996933  65.7375946  42.3303185
  71.3396301  65.6332703  41.4150467  71.5582123  64.8529053  42.6934242
  57.9962769  13.2181301  22.2458401  58.6535759  12.8736763  21.6412354
  57.5312004  13.8843889  21.7398415  41.7371712  44.8246880  13.0966015
  42.0102081  45.6876411  12.7851610  40.7819481  44.8397293  13.0369692
  68.1595764  29.0605698  71.9768753  67.8954620  29.7424164  71.3591690
  68.6295776  29.5304565  72.6657410  37.8285255  63.7900734  31.3628540
  37.6128807  64.7208023  31.4217415  38.0576668  63.6550179  30.4433517
  62.4366684  53.1235046  30.7749691  62.2908211  53.9346085  30.2880669
  62.7751694  53.4107780  31.6229801  85.8614044  40.4584351  66.9268341
  85.2271729  40.7912788  67.5618210  86.4267502  39.8769493  67.4352570
  12.4320612  58.5139275  32.9405098  12.1428041  58.6373367  32.0364456
  11.9550772  59.1785889  33.4374428  31.6941814  37.7171822  70.6586380
  31.2668514  37.0490227  71.1945343  32.0401382  37.2361107  69.9068985
  10.0098953  59.1778450  43.5159531   9.9836082  59.9090614  44.1330948
  10.1504021  58.4062347  44.0646896  29.4074059  23.2114563  83.1022720
  29.6513596  23.7479897  82.3480530  28.5621014  23.5624123  83.3824844
  29.8465519  67.3217773  53.1691551  29.2037010  67.7026749  52.5709114
  29.3246670  66.8108063  53.7878456   0.6575032  32.1400261  13.0108681
   1.4759308  32.5271225  13.3216171   0.7611050  32.0916367  12.0605221
  11.0946522  31.5006924  56.1689720  11.3859034  31.2839336  55.2832985
  10.3307066  30.9423027  56.3132668  12.8762789   7.0509100  67.4259338
  13.4991598   6.5507073  66.8986359  12.3619175   6.3860612  67.8837967
  82.8820114  65.5195312  49.6361885  83.2661819  66.0720215  48.9554596
  82.3458405  64.8874664  49.1573906  67.9577484  20.7118206  44.8020744
  68.4948883  19.9262085  44.9046745  67.2747040  20.4556904  44.1823387
  53.8530273  13.4684734   3.1642241  54.4607353  13.5206413   2.4265242
  53.6035652  12.5452166   3.2042091  54.4835396  48.8384247  22.0455685
  55.3865166  49.1555901  22.0620670  53.9769363  49.5756226  21.7047939
  79.7083435  17.7937412   6.6603284  80.1292114  18.6533966   6.6700253
  79.5069351  17.6360607   5.7379375   5.1113181  67.9813232  13.2010927
   4.2087092  67.6650009  13.2394199   5.4009337  67.9902344  14.1133833
  58.8925476  28.0641098  65.5713654  59.2422333  28.8043270  66.0673828
  58.7449760  27.3838348  66.2283936  84.6525879  61.9252625  46.0954742
  85.6075363  61.9610558  46.1504440  84.4583817  62.1121025  45.1769943
  27.9589348   0.4630679  22.6617069  28.7440662   0.0440202  23.0141239
  27.4309959   0.6696424  23.4329662   9.9550724  17.6403847  19.0487938
  10.6480103  17.7727146  18.4018345  10.2794867  18.0723400  19.8389835
  38.4319534   3.4393992  69.3273087  38.6814308   4.3225036  69.0550613
  39.1282082   2.8779790  68.9863281  73.5519943   3.2159657  24.3599567
  73.5163040   3.6522005  23.5086880  73.2826462   3.8887217  24.9853230
  18.8859997   8.1202021  59.3163528  19.3599777   8.9387703  59.1696472
  18.6612873   7.8128462  58.4381332  22.6421547  14.7096310  55.6983452
  21.7224751  14.6119404  55.9450798  22.7810841  14.0448494  55.0238113
  54.9099541  30.5733013   3.7466724  54.8346024  31.5272713   3.7244370
  55.8515701  30.4085064   3.7960567  13.5773907  15.9065275  13.2649097
  14.0106621  15.1884623  12.8035116  13.6789675  15.6913452  14.1920614
  32.4689903  10.5638666  79.3778381  32.8283958  10.3322554  78.5214386
  31.6085949  10.9357939  79.1838684  43.3124504  49.4885674  29.6340714
  43.1325150  48.5988197  29.3304195  44.2645683  49.5220757  29.7267036
   9.0202131  60.8035545  16.7407036   8.6815348  61.4073296  17.4017506
   8.2664185  60.6118584  16.1827812  53.4778023   2.0028615  60.9764900
  53.0076256   2.7855077  61.2639427  53.9685898   1.7212180  61.7485237
   9.2923794   1.5689698  12.8973293   8.8870268   0.9513189  13.5059576
   9.3178015   2.3966277  13.3775043  62.6441689  58.6939888  44.9536514
  62.4155350  58.0354347  44.2977028  63.5633240  58.5205612  45.1569061
   2.7694936  52.1343422  44.7632141   3.5371096  51.9108353  45.2895622
   2.6735175  51.4006119  44.1560402  13.7110739  71.0024414  57.2977257
  14.5752344  70.6449814  57.5018806  13.1535950  70.2323761  57.1861496
   6.2276273  36.6012917  53.3166008   5.3476701  36.5701332  52.9411888
   6.4466448  35.6857414  53.4899025  67.2348251  42.8914413  55.6172295
  67.7679901  42.3088875  55.0763016  67.5201187  42.7138596  56.5135040
  85.1836319  47.4391785  51.9880714  85.9718475  47.3400726  51.4541016
  85.1379013  46.6315460  52.4998055  86.2401199  70.7937164  61.8185921
  87.1939697  70.8727722  61.8307495  86.0676422  69.9206009  62.1709595
  65.9070816  15.7391415   1.8712927  66.1799469  16.0587502   2.7313087
  65.0802917  15.2856474   2.0355711  69.4293671  55.7479897  49.6259117
  69.8877563  55.5860214  48.8013611  69.3659668  54.8863487  50.0379601
   4.0135813  53.7684441  77.7044601   4.3604288  53.8477287  76.8158417
   4.7662606  53.5021896  78.2324905  57.4956627  28.0240860   1.1421123
  57.3202934  27.0832558   1.1243204  58.4113503  28.1021481   0.8744339
  79.9126816  37.9379234  12.1577730  80.6640244  38.0338860  11.5725298
  79.2191391  37.5839157  11.6010809  60.8028221  47.9098854  86.0354080
  61.0839844  47.9633446  86.9488220  61.4460869  48.4318810  85.5558548
  71.5617065   5.3102765  57.3622780  70.6089478   5.4019036  57.3716927
  71.7271957   4.4825783  57.8136749  16.6469078  22.9156876  77.8914413
  17.0499554  22.1694908  77.4476242  17.1379166  23.0021477  78.7085495
  24.6995296  67.7781448  77.2562180  24.5552406  66.9726410  77.7527771
  24.7718601  68.4609375  77.9231415  80.9880295  13.9109058  16.2034397
  80.4525528  14.2039461  15.4661360  81.8241043  14.3620501  16.0864773
  58.8911285  70.7246399  43.2546959  58.1497345  70.6211929  42.6581459
  58.4923668  70.9465866  44.0960999  59.7426758  70.6830215   4.0913525
  59.0669022  70.0950928   4.4288387  60.5656204  70.3050385   4.4013910
  79.8199768  38.5183868  68.9024506  78.9245071  38.4668846  68.5682297
  79.7233429  38.8450432  69.7969818  19.4515667  66.8485413  21.7403717
  19.5033741  67.6595078  21.2345276  20.3156872  66.7616806  22.1428413
  63.2821159  45.5545387  57.8757286  63.0709229  45.5578575  58.8093338
  63.9998016  46.1821213  57.7902832  80.9999695  29.4136753  68.9664764
  81.0804214  30.1469326  69.5764694  80.2915192  29.6699429  68.3760147
  43.3959618  65.9484940  78.6877899  43.9051285  65.7529068  77.9011917
  43.3204994  66.9027023  78.6931381   3.8733385  49.9259949   4.1593604
   3.5320046  49.6605568   5.0133309   4.6643658  49.3996162   4.0434580
  58.6279449  45.8583298  18.7521782  58.0335464  46.3657455  19.3048534
  58.7644501  46.4073792  17.9800758  71.6177139  32.7295876  79.8916168
  72.0014420  33.0543480  80.7061844  70.8947144  32.1694717  80.1740646
  68.9642868  42.7046127  67.8436508  68.9835587  41.7755356  67.6141357
  69.8636322  43.0033340  67.7088242  42.3076210  63.9818153  67.4410172
  43.1541786  63.6645050  67.7554703  42.1693878  63.5174484  66.6154938
  52.0209274  68.4970627  35.2745399  51.3450966  68.7075119  34.6301880
  51.5766373  68.5677567  36.1194267  49.7914581  66.3481903  56.1597137
  50.6780167  66.3965683  55.8020782  49.8983879  66.5388412  57.0916214
  86.3921738  70.0735092  79.5286713  85.5514069  70.1694641  79.9760361
  86.2472153  69.3714600  78.8943634  69.0440979  36.8801842  13.6708879
  68.5004959  37.6060791  13.3646135  68.7314224  36.1219635  13.1773682
  20.8410950  29.4705620  72.7051392  21.3662395  29.2828255  73.4830856
  19.9375954  29.4742165  73.0212173  67.5517883  34.2765007  63.7909889
  67.1414795  34.6068001  62.9917526  66.9758377  33.5691948  64.0812073
  48.6524734  29.4788055  41.6590004  48.1719017  30.2041035  42.0580330
  49.5311890  29.5387211  42.0338287  60.1830635  67.7125854   6.9390669
  60.5221252  67.4467010   6.0843296  60.8508072  68.3026276   7.2886319
   4.7781310  41.5382385  68.2931213   4.5140858  42.4279747  68.5273819
   4.3159623  40.9790077  68.9175339   4.5878654  14.4868574  44.9073334
   4.3563194  14.0829906  45.7437019   5.4679651  14.8368101  45.0458603
  53.8305092  66.6383820  78.1036301  53.9198990  67.3451538  77.4643173
  53.0654869  66.8821411  78.6247406  68.7037354  52.1458931  67.1851273
  68.4213715  51.8797569  66.3100967  67.8931503  52.2047157  67.6908112
  48.9382973  45.2133484  47.4988976  49.2322311  45.9639206  48.0151138
  48.9812546  44.4739990  48.1053200  59.8916321  34.6509132  61.3897095
  60.5983353  34.0237465  61.2365570  59.2486420  34.1656685  61.9067535
  54.9929161  45.1781654  72.1203766  54.5388107  45.4201508  71.3132477
  54.3205109  45.2336578  72.7993622  67.1043625   8.8572893  50.9194031
  66.3925476   8.5088739  50.3825989  67.1145020   8.2979298  51.6960907
  56.3614540   7.9446330  84.8335724  56.7564545   7.1448445  84.4863739
  55.4186172   7.7867970  84.7848206  52.8438034  50.4417953  68.0983658
  52.4026566  51.2442055  68.3772278  53.7627716  50.5820084  68.3265610
  71.9875870  51.4811821  30.6263008  72.5579147  51.0156174  31.2380276
  71.6878510  50.8062592  30.0173073  65.5891495  16.4568768  48.3868256
  64.8858414  16.8769951  48.8818855  66.0723267  17.1835499  47.9934883
   9.0723753  32.7841606  53.1942482   9.5919333  32.0585480  52.8481636
   9.6856728  33.2809410  53.7358284  56.6812019  69.5017624  54.4712677
  56.8526230  70.4081802  54.7267189  55.7712555  69.3491135  54.7260666
  39.5382462  10.7770882  69.3231735  39.5495377  11.6509686  68.9327393
  39.8763733  10.2032318  68.6357193  86.2509079  67.8145447  58.0439835
  86.1291733  68.7586975  58.1438789  86.6219788  67.5311584  58.8795853
  21.4623146  40.9083748  73.5130310  21.9147930  40.1571045  73.8965530
  22.1657600  41.4877281  73.2202072   0.9044905  44.1136894  12.5641584
   0.9893315  43.2683258  12.1232595   0.0452659  44.0793648  12.9846182
  28.2963753   1.2022294   0.6468517  28.5069332   0.2705728   0.7094065
  28.0593567   1.4546576   1.5392269  50.8277969  41.1916466  23.3854294
  50.7364082  40.2402878  23.4383430  50.9678993  41.3674202  22.4549961
  40.5262566  62.8576584  42.7070045  41.2290840  62.7078171  43.3393097
  39.8028259  62.3144989  43.0198288   0.5786215  42.6676903  49.8500214
  -0.3303086  42.9577599  49.9270821   0.8893546  42.6109505  50.7536011
  10.7057743  62.2950172  28.1419621  11.2253151  62.9423141  28.6187382
  11.3055773  61.5622253  28.0023804  52.0633354  52.8148193  33.2929192
  52.7836418  52.7328835  33.9179573  51.7531204  51.9182053  33.1660919
  44.2283707  13.4714642  30.5979156  43.6974411  13.9748163  31.2151527
  45.1038551  13.4649734  30.9848480  84.9171219  38.6607819  28.2753086
  85.3717957  38.4762650  27.4534454  85.5831833  38.5345840  28.9510765
  72.0234756  -0.1575314  75.1434021  72.8953171   0.0980593  75.4447174
  71.4239197   0.2681445  75.7562408  57.7514420  17.3231239  11.6653090
  57.0414734  17.8319874  12.0567589  58.5248909  17.5569592  12.1784668
  67.3194427  25.5377674  64.5075302  66.4121094  25.3509121  64.7484741
  67.2514038  26.1008492  63.7364693  84.0652771   0.3442534  37.0534973
  84.6258316   1.1092886  37.1828270  84.2234344  -0.2015257  37.8237839
  84.5840836  35.1366272  12.2795086  83.6302872  35.2045631  12.2360077
  84.8755646  36.0137177  12.5284615  25.2325859  48.2541008  67.1502991
  24.6005249  47.5402260  67.0659409  25.1784935  48.7216377  66.3168106
  44.2934303  62.8138313  16.1643410  44.0631142  63.2877541  16.9634552
  44.7647552  62.0397491  16.4723644  39.8983383  49.0046539  40.3000069
  40.0350914  49.9403419  40.1516228  39.1603584  48.9639511  40.9082489
  71.1269684   5.9957385  18.1923332  70.4483795   6.2630420  17.5724144
  71.4196167   6.8135891  18.5944672  56.4757347  14.5391350  16.2129345
  56.2487679  13.6893320  15.8353710  56.9180756  14.3257418  17.0345364
  38.5296021  61.6802368  10.9559078  38.7149048  61.0667305  10.2449217
  38.8803825  61.2537766  11.7377758  42.4430046  47.3785744  50.7655144
  43.0007439  47.9520683  50.2399101  42.7929802  46.5004616  50.6149597
  66.9366302  35.9364548  83.8321533  66.6881790  35.2900848  84.4929886
  67.8902664  35.8719597  83.7806854  73.7521286  47.2041397  36.3043785
  74.0741730  46.6143913  36.9860802  72.8593445  47.4183121  36.5751228
   8.9357691  43.0770226  48.8013306   8.8934364  42.1277885  48.9170761
   8.8789549  43.4293785  49.6895027  54.8305664  69.1329956  71.0610428
  54.7248688  69.0445175  70.1138229  54.9433746  68.2355804  71.3743210
  57.2257195  58.4289246   5.8253350  57.4783134  57.8755951   5.0862446
  57.2879143  57.8533974   6.5876570  50.4631271  31.2116108  52.2121773
  49.7594910  31.3067303  51.5702438  50.8116150  32.0967560  52.3184891
  75.1298828  28.2677269   4.3515553  75.2775879  28.2250366   3.4067848
  75.6745682  27.5674858   4.7110171  47.9408989  48.7823639  67.1168594
  48.1322708  49.6762161  66.8329010  46.9972000  48.6870193  66.9881134
  20.4312344   5.9455366  29.8600807  20.9033909   5.5849428  30.6105957
  21.1023884   6.3995461  29.3505135  70.8599319   5.1763101  76.8145981
  70.8482742   5.7253675  76.0306091  70.4912872   4.3409181  76.5274506
   3.0705700  69.1701355  67.2441101   3.2538371  69.8030853  66.5498352
   2.9308190  69.7052994  68.0253296  58.7173042  53.8962212  17.5899715
  59.0828247  53.1043816  17.1954842  57.8967972  53.6078262  17.9897537
  60.0801926  65.2854614  13.8570976  60.1635246  65.4441071  14.7973728
  59.8228188  66.1325378  13.4931612  29.9042778   2.9641814  23.4992485
  29.9375687   2.1158533  23.9413605  29.8183651   3.6008584  24.2088203
  44.4899406  23.3644085  13.8335428  44.7305412  22.4493217  13.6887598
  43.6275368  23.4524136  13.4276466   4.5890408  10.9171000  46.0433998
   5.4993458  10.6715221  45.8782654   4.3141451  11.3683681  45.2452621
  23.9576569  50.5100212  39.1348839  24.4835644  50.2761955  38.3700447
  24.5610313  50.4308128  39.8737335  14.3806572   5.2736111  65.9465256
  14.1685858   4.9920816  65.0565796  15.1892843   4.8075070  66.1588898
  62.5846214  20.2884655  26.2346840  62.8717651  19.6551781  25.5768642
  62.0652390  19.7735462  26.8522034  25.4388218  46.7631073  74.5115433
  25.9067097  45.9281235  74.5008698  26.0581455  47.3797264  74.9019852
  65.3593140  62.8134804  42.3982620  66.2114792  62.3796310  42.3555641
  64.8733902  62.4608383  41.6527710  61.6089935  55.5410576  62.2254066
  62.1287308  56.3039665  61.9722862  61.6329041  54.9696083  61.4578705
   8.8404837  13.2362967   0.1850870   9.7280073  13.5679817   0.0490092
   8.9487267  12.2886934   0.2660943  83.8521194  63.9565659  15.0766735
  84.2008667  64.4193268  14.3147955  83.1832275  63.3737106  14.7173796
  73.9240646   9.5572014  36.1029892  73.4927826  10.3890934  35.9075699
  74.1229858   9.6044035  37.0381012  70.5549240  16.3702526  11.1683807
  71.2521439  16.7671185  10.6462650  69.9273758  16.0455322  10.5226431
  14.3183050  23.6147232   5.4114413  14.6577120  22.9106178   4.8589272
  13.9073582  24.2237148   4.7978597  42.5856743  65.9392776  30.9446888
  41.6450081  65.8945770  31.1161118  42.8610573  66.7688751  31.3347721
  36.7360764  47.4450455  30.4393539  36.5468979  48.0362816  29.7107391
  37.4846230  47.8437233  30.8831635  66.7164383  56.8020706  22.0177193
  66.2856827  55.9490242  22.0724239  66.7533722  56.9920616  21.0802917
  73.6044083  44.9395981  11.9012270  74.1672974  44.3210411  11.4356327
  73.7200470  45.7670517  11.4341297  20.8120098  43.2926674  79.3898849
  21.0853653  44.2099190  79.4024124  21.3412170  42.8757286  80.0698395
  50.8081322  21.7523670  49.0254898  50.9539375  22.6888504  49.1595421
  50.6431847  21.4076138  49.9030838  86.9165878  32.0649223  36.7997093
  87.3121185  31.5477295  36.0980759  85.9739151  31.9844513  36.6543655
  71.4375000  17.9670963  53.0228424  71.0090408  18.2138386  53.8424568
  71.8803864  17.1424408  53.2229080  63.3761444   7.3377876  44.7965088
  63.0881233   7.8491735  44.0403595  64.0732574   7.8630495  45.1894073
  70.2473526  23.3279858  85.5005112  71.1537399  23.1484413  85.7504272
  69.7235718  22.8023033  86.1051102  53.9477005  33.5666618  73.2076035
  54.0110321  34.2239265  73.9005814  54.8489304  33.4466209  72.9082642
  63.9985847  35.5518227  49.0251617  63.3147125  35.4299164  48.3666077
  63.5794640  36.0693398  49.7127266  36.8780174  58.5967598  47.7362862
  37.0331802  57.6624260  47.8747635  36.1317253  58.6294937  47.1377792
   9.0758638   8.4476328   8.0566607   8.3516464   7.8645525   8.2841635
   8.7467442   9.3252916   8.2506390   7.5671616   9.4591551  73.0390091
   6.6875224   9.7901392  72.8575821   8.0221052   9.5149498  72.1986847
   8.2169991  48.0153122  22.0749569   7.5200372  48.6710243  22.0977306
   8.9678488  48.4767380  21.7014008  58.3451653  39.4384804  42.0544434
  58.3298836  40.3824768  42.2121391  58.4588127  39.3556290  41.1076317
  22.1232052  45.2562714  15.7427073  21.9583092  44.3133812  15.7430496
  22.9585495  45.3534966  16.1998501  35.2646637  51.1806793  78.5863724
  36.1975632  51.0365791  78.4277267  34.8268204  50.7363930  77.8603287
  75.8598251  50.9278221  53.4381218  75.9032059  50.6281090  54.3461533
  74.9786377  50.6904030  53.1493721  42.2857666   3.1084268  31.7013264
  42.0904541   2.4191744  31.0664902  43.1410942   3.4448726  31.4340286
  27.6346340  66.3592148  17.3127747  28.4824448  65.9607010  17.1162281
  26.9925232  65.7370605  16.9709511  60.8273315  47.4395332  10.9934015
  61.3492622  46.6995354  11.3035946  60.9957199  48.1347351  11.6294603
  85.8464584  53.7247963  77.1581726  85.8558121  53.1229744  77.9024582
  85.4601517  53.2171555  76.4445267  34.7491608   0.4401535  84.7108917
  34.6429520   1.1939831  85.2911377  34.1793213  -0.2319945  85.0846939
  60.8724480  36.8544655   5.1232767  61.7058144  36.4243126   4.9317017
  61.0397644  37.7831345   4.9626245  53.4966888  35.6282043  50.6189270
  53.9371452  35.5564651  49.7721176  52.7480164  35.0357246  50.5504379
   1.5604262  52.7042961  10.7496614   1.4145095  53.0387535  11.6345778
   0.7010136  52.7518959  10.3308830  44.4144592  26.7594662  70.7809067
  44.3945656  27.6697750  71.0761566  44.6637230  26.8123245  69.8582458
  52.0869255  55.6209831  85.0588608  51.9733353  55.7066422  86.0054245
  51.8403435  56.4773827  84.7095642   5.1994214  48.9985466  86.4109879
   5.4607258  49.2937469  87.2832336   5.4283209  49.7265511  85.8331909
   7.1679831   5.3410192  83.7015228   8.0189457   5.4213696  83.2706680
   6.6775274   6.1088858  83.4081573  45.2403488  39.7064133  31.3839111
  45.0161972  39.7706070  30.4555435  45.5625648  38.8114777  31.4911785
  15.3586254  67.8000641  51.9007912  15.7399940  67.5149231  52.7311401
  15.1390963  66.9867859  51.4462395  31.8478794   3.3693366   0.4814664
  32.0091019   3.5748825   1.4023302  32.2255402   4.1065922   0.0018216
  52.5461044  22.9620132  45.5842209  52.2493515  22.1166134  45.9210739
  51.7607460  23.5092297  45.5851097   0.7793095   8.3759937  70.3540039
   0.7987472   7.9272470  71.1992722   1.4531615   7.9375134  69.8344955
  20.7564545  14.9818935  84.8025970  21.6980438  14.8258572  84.7298203
  20.3692837  14.1066647  84.8200912  69.2808914   7.4904242  33.5168152
  69.5217972   6.5948739  33.2797813  69.6309662   7.6068163  34.4000664
  74.7121429   8.8295660  29.2431355  74.2836151   9.6592407  29.0328007
  75.3493118   9.0542336  29.9211998  12.8645744  28.1989403  13.6588964
  12.9731407  27.9218483  14.5686569  11.9166565  28.2431278  13.5334740
  57.5739746  12.0950451  73.6760101  57.6615143  11.5930595  72.8657150
  58.3990822  11.9488297  74.1386719  33.6363792  64.8219910   0.8277422
  34.2163849  64.4890900   0.1429085  33.8642349  65.7484512   0.9051279
  47.9381676  64.6522827  71.0994110  47.7408562  63.8802834  70.5690231
  48.8357086  64.5124817  71.4012604   2.0061712   2.0405056  87.1603088
   1.7087735   1.1715690  86.8906174   1.7831993   2.6093540  86.4234772
  48.1897812  63.3730965  61.9099998  48.2608681  64.3257980  61.8505096
  48.8305130  63.1262894  62.5769196  53.8863716  40.3531456  73.9058533
  54.2827950  40.1274071  73.0643539  53.1229744  40.8831024  73.6765060
  83.6625443  65.4030533  17.6017056  83.2282410  64.8642578  16.9404125
  83.2260666  65.1735001  18.4220848  64.8135071  24.2175369  39.2610016
  64.2239227  23.8182411  39.9006805  65.1166687  23.4849224  38.7247200
  45.2036400  65.0014648  41.7305412  45.0722351  64.0941086  42.0056114
  45.3296280  64.9486771  40.7831383  49.4131546  27.1769009   5.3467956
  49.0781937  28.0418816   5.1104889  49.6069145  27.2423477   6.2818923
  71.4853897  65.9237823  52.9443054  70.8875885  66.3764343  52.3493423
  71.0698090  65.9976730  53.8034134  85.6446838  57.5962296  47.6194191
  86.5224609  57.7156067  47.2568092  85.4907608  56.6528587  47.5684929
  78.4235611  46.5963211  78.2290878  77.9793930  47.1626320  77.5980225
  78.3492203  47.0616302  79.0622711   2.5913420  34.1143570  79.6332932
   2.3468099  34.9791374  79.3037643   3.0707240  34.2930832  80.4422989
  53.3026047  64.2300720  73.7145081  54.2445030  64.2272415  73.8849335
  53.0460167  65.1480179  73.8026199  53.0719109  49.9131660  24.8283920
  52.2812424  50.0645561  25.3462276  52.8416862  49.1894913  24.2457027
  31.8256931  47.1547203  53.4779930  30.9104061  47.2298775  53.7478714
  32.1363297  46.3560410  53.9044380  82.3382950  38.2982674  54.1580429
  82.6535110  37.8680344  53.3632088  82.1044769  37.5780640  54.7435913
  85.8147125  18.4236031  46.4541817  85.7567825  19.1051426  47.1237946
  85.9755630  18.9007187  45.6401062  65.9550476   6.4684401  18.0832062
  65.0855331   6.8221049  17.8958683  66.3442078   7.0983267  18.6898613
  53.1903954  36.9159508  79.5041199  53.2124100  36.0438347  79.1102219
  52.7511406  37.4621696  78.8522568  42.0095749  49.0550499  26.4200745
  42.1972733  48.2163658  26.8415108  42.8306465  49.5431709  26.4817791
  76.8391418  54.6874542  18.4273949  76.6718826  54.0792542  19.1473579
  77.4179840  54.2057610  17.8365116  78.9823227  31.2291279   2.2097573
  79.0536957  31.1885548   3.1634297  79.5221024  30.5026932   1.8980552
  77.5038757  55.9175148  39.9840355  77.7302780  55.5003281  40.8152542
  76.8671951  56.5921173  40.2202187  13.7210827  51.8761902   6.8062606
  13.8794994  52.5958748   6.1953683  13.1266432  51.2904930   6.3373971
   3.7567852  57.9910698  25.1536331   4.3702335  58.5849228  24.7209034
   3.6237447  58.3742294  26.0206528  84.1251373  28.9813366  59.2794647
  83.8231201  29.6603928  59.8827095  83.5517960  29.0655251  58.5176086
  23.0234985  31.1807556   9.7224150  23.9027691  31.5432110   9.6140490
  23.1404152  30.4439030  10.3220921  65.3652344  44.4366531  54.4672394
  66.1034088  44.0232658  54.9149437  64.7313385  43.7295151  54.3473930
  64.3306580  23.1828327  32.8521156  65.0596237  23.3499565  33.4495354
  64.7189636  22.6822243  32.1345940  56.1589394   0.7597883   3.9478431
  55.8199425   0.0214315   4.4539485  56.1640625   1.4911814   4.5653138
   0.7586259  32.8656883  33.4481583   1.4498158  33.0435715  34.0860023
   0.8476123  31.9329510  33.2524223  16.9769688  53.7101250  76.6406479
  16.8579922  54.5583687  76.2133789  16.4304276  53.1085281  76.1350708
   4.9406648   0.3325451  46.6863937   4.5574999   0.6610206  47.4997330
   4.2243190   0.3684989  46.0525284  48.7944832  52.6828918  71.6268539
  49.7106094  52.9451447  71.7172241  48.7172890  52.3914108  70.7183838
  66.9116211  45.0452919  59.0029488  66.9589615  45.7832947  59.6106796
  66.9057007  45.4495087  58.1353035  17.5075455  43.0336761  51.2523003
  17.0694523  42.1850243  51.1883087  16.8905697  43.6518555  50.8606033
  59.2134972  48.7651711  76.0501404  58.3204002  48.4520378  75.9067841
  59.6087112  48.1079063  76.6228867  75.2601624  58.8947754  64.5874481
  75.5341187  59.0129814  63.6779404  74.9696503  57.9838943  64.6336288
  16.5492516  63.0340157   2.1738024  15.6891193  63.3194618   2.4819038
  16.6722755  62.1721458   2.5716386  60.0813446   1.1087075  71.3730774
  59.8984413   2.0043924  71.6568527  61.0328140   1.0265352  71.4377975
  75.3428497  49.8077126  68.7513962  75.3480377  49.7412834  67.7965164
  76.1158981  50.3325539  68.9591827  75.8185120  28.9272842  17.8801003
  75.1269913  29.4292431  18.3114548  75.4979477  28.7956982  16.9878254
  12.4862623  16.1593094  65.4066162  13.2806349  16.6925507  65.4358673
  11.8393316  16.7168255  64.9743118   0.6073809  63.9311867  78.7609406
   1.5599977  63.9493256  78.6691589   0.3646749  64.8433380  78.9200211
  76.0421906  45.0473061  65.1436691  76.2587585  45.5520554  65.9276047
  76.8779602  44.9396629  64.6896439   2.7729027  63.2772026  17.9890900
   2.7956085  62.3283386  17.8651123   1.9566581  63.5537148  17.5725327
  48.3449135  69.3889542  67.6406784  47.6545906  69.8830948  67.1985168
  48.8450699  68.9877625  66.9299622  40.2169685  50.7991028   4.4207172
  39.3066635  50.5106316   4.4867287  40.2239838  51.6650467   4.8285408
  59.1478271  44.6828766  33.2074127  59.3685265  44.4316788  34.1043091
  58.1928596  44.6282730  33.1714935  38.0594597   3.3034825  66.4934082
  38.1878777   4.1181517  66.9792633  38.4766655   3.4613779  65.6465073
  39.3450508  48.2437897  25.4207115  40.1858063  48.6137886  25.6899014
  39.2527390  48.5012932  24.5034313  39.7394295  21.2209244  61.2874908
  39.6170807  22.1517467  61.1008606  39.9950905  21.1930923  62.2094955
  53.5881310  48.2751961  31.1866264  53.3291931  48.0429764  30.2948551
  53.8967476  49.1787376  31.1188145  21.6431656  58.9867439  50.9312096
  21.8960648  58.1966858  50.4536324  22.3121853  59.6310005  50.6997414
   6.6494107  51.8878746  31.2490234   7.4651237  51.5517654  31.6203403
   6.9300618  52.5189934  30.5863380  81.2790375  33.8678665  22.7854176
  81.6925430  34.1106110  23.6138573  81.5283432  32.9533539  22.6522064
  82.2431183  46.1751251  82.6266556  82.9583054  46.7463036  82.9068222
  81.7683716  45.9727669  83.4328156  58.3631401  34.0471115  66.4843674
  58.9240074  34.7940216  66.2751083  57.5902214  34.1659050  65.9323502
  63.7262077  46.5029716  50.2719383  63.1327248  46.0915413  49.6436577
  64.4515152  45.8841553  50.3569412  57.6171303  63.9702568   4.2042513
  57.9070930  64.0338058   5.1142597  56.7124519  63.6629372   4.2620444
  57.6335220  59.1625214  15.0852709  57.4922981  58.3226967  15.5222816
  57.3044281  59.0283623  14.1964903  18.9245110  70.1974945   6.3217492
  19.0012417  70.8878098   6.9803910  19.7766037  70.1866150   5.8858013
  68.1267242  39.5258102  78.8953629  67.5877762  39.7557640  78.1384735
  68.6276169  40.3196678  79.0827789  44.6427002  46.7469597  25.8852882
  45.0295982  47.3289833  25.2312336  44.7112465  45.8737221  25.4992962
  64.8074646   5.3598847  15.3817825  65.1413803   4.8459282  16.1170254
  64.5075531   6.1779723  15.7780380  27.0448437   3.9215126  33.0667152
  27.5695896   3.1250460  33.1474304  26.3338127   3.8047593  33.6968269
  20.0014763  46.9958344  27.3951035  19.3175030  47.0459671  26.7273464
  19.6249065  46.4469185  28.0829372  63.2406006  42.7642632  79.5085068
  62.5233307  42.4861336  80.0780640  63.0629044  43.6883965  79.3334808
  17.8838291   4.0563874  78.1318665  18.1771431   3.4463589  77.4550629
  16.9884815   3.7819104  78.3299789  22.1877880  61.7436562  15.3687115
  22.3592529  61.0147514  15.9649744  21.5330009  61.4047852  14.7582569
  59.1975746  33.5516777   4.8874660  58.6363640  32.8495407   4.5584116
  58.9355850  34.3230972   4.3849692  72.8022690  51.1405678  38.2627945
  71.8947678  51.2470894  38.5479774  73.1375809  52.0343208  38.1920738
  70.7885284   1.7872037   8.0337029  70.2144470   1.9846827   7.2936592
  71.2147446   0.9645303   7.7933331  17.4039555  45.7412033  54.3191490
  18.1998940  45.3141785  54.0023499  17.6644878  46.1521645  55.1434441
  23.8195057  47.8024406  62.7251167  24.3136883  48.0017052  63.5202942
  24.2944584  47.0745811  62.3240280  29.4450417  69.1425247  22.0590878
  28.6595192  69.2692795  22.5911751  29.3465405  68.2639847  21.6920891
  50.5114594  55.0893860  57.0293770  49.5694427  55.0765991  56.8600388
  50.7277374  54.1830635  57.2485390  62.7545738  48.6967468  74.6775360
  62.8097878  48.4259453  75.5939713  62.0628548  48.1485672  74.3070602
   5.7168818  38.9189873   7.8452382   5.0065765  39.5591469   7.8887701
   6.4707661  39.3716316   8.2233934  61.1123772  39.3668709  83.4198990
  61.8486824  38.7821579  83.2404633  60.3884583  38.7801666  83.6388702
  59.5354347  59.1704483  81.2655182  58.6625786  59.4705048  81.5191345
  60.0812225  59.3462563  82.0319672  54.6795769   7.1060100  68.3386688
  54.0037727   7.6879311  68.6863632  55.3835793   7.1427355  68.9861832
  37.3654289  43.0573502  64.7835846  36.9270439  42.3369598  64.3307190
  36.9981537  43.0434837  65.6674118  73.8903580  17.7223778  70.2327576
  73.9387817  18.3243179  69.4900894  74.6016846  17.9977589  70.8110352
  25.5416393   7.4840832  29.9199028  24.6384373   7.2899604  29.6693535
  25.4793530   7.7847624  30.8265133  12.7534437  15.1004000  85.9916916
  11.8362780  14.9300890  85.7771378  13.0439587  15.7223854  85.3246307
  10.8728828  30.7869701  70.5262451   9.9392662  30.5892639  70.4520569
  11.1164808  30.4698944  71.3959351  31.1026516  45.9937515  46.9187431
  31.8169746  46.4183540  46.4436798  30.3194695  46.4772072  46.6558189
  63.0633812   9.0132198   0.6907451  62.6618042   8.1719437   0.4734353
  63.2192307   9.4302273  -0.1566317  52.9369202  42.1066399  83.9720383
  52.2432251  42.4171257  84.5539474  53.2692871  41.3156052  84.3963394
  29.1946869  14.2240019   0.6484178  29.3164730  14.8409176  -0.0732572
  29.1366692  14.7760592   1.4282248  62.5244675  50.1319656  15.8438873
  62.7714348  49.9654961  16.7535725  63.3532104  50.1218071  15.3650160
  76.1044464  61.9435577  23.8072777  75.4650040  62.6438255  23.9375210
  75.6031113  61.1365967  23.9243450  50.0548706   1.9232457   7.0999007
  49.5552711   2.6068797   6.6534982  49.7527275   1.9596850   8.0074320
  83.7378387  70.8565750  77.6402283  83.7659073  70.5580063  78.5492325
  83.9239120  70.0719223  77.1245422  42.1210060  20.1032791   0.0720547
  41.3009720  20.1717796   0.5610197  42.4581566  19.2344227   0.2903377
   0.1710138   7.0832944  27.9663410   0.0240379   6.1951404  27.6410522
   0.9909427   7.3564534  27.5548401  81.9246368  67.0030212  31.2642879
  81.4153595  67.5532913  30.6692505  81.3346863  66.8349838  31.9991055
   8.8667774  59.5192184   8.1887741   9.1155005  58.7978630   7.6108327
   7.9179945  59.4344749   8.2829132  48.7686195  70.1398468  57.3675079
  49.6163712  70.4881821  57.0914421  48.3122635  69.9438400  56.5492477
  52.5926552  44.9363823  80.0069504  52.4163628  44.3149834  80.7133636
  53.0692635  45.6507492  80.4297485  70.4004364  40.7280502  39.4251747
  69.5582962  41.1735725  39.5175819  70.8784714  41.2506218  38.7812538
  13.9783478  40.6134872  33.7735748  14.6818380  40.2457428  33.2386932
  14.3754911  40.7442474  34.6346245  81.9029999   9.3240719  52.1391144
  82.2487411  10.1499853  51.8006439  81.9187164   9.4297323  53.0903358
  19.1112041  49.4921761  41.1387520  19.3539906  50.2512360  41.6689529
  19.5369053  49.6434288  40.2948723  38.7245407  25.2630768  85.1239166
  38.8789444  25.0929031  84.1947021  39.4548492  24.8347168  85.5704422
  53.5685081   2.7879088  75.9353104  53.9120903   3.3565753  75.2462540
  53.0563583   3.3719335  76.4946365  80.1823273   4.3833938  38.0576897
  80.6710129   3.6529832  37.6783218  79.2997742   4.2935152  37.6981812
   0.3323745   0.6280655  25.3184204   1.2313144   0.8069746  25.5943394
  -0.2107221   1.0275058  25.9979248  43.5997658  15.4411297  28.3894730
  43.9583664  14.7794638  28.9809418  43.9155388  16.2733803  28.7414360
  23.5512753   6.9749069  81.7813187  22.9591217   6.6398354  81.1080322
  23.8260269   7.8313923  81.4539413  66.3738556  50.2808762  86.6243134
  66.1197662  49.7232971  87.3596878  65.5836716  50.7801933  86.4181137
  42.3898392   0.7423993  20.7404919  41.6504631   0.2972952  21.1545429
  43.0318756   0.0490421  20.5879230  69.4069366  32.5755882  58.8133354
  69.3137970  32.0324821  59.5960197  70.3302612  32.4947815  58.5742226
  14.7885370  38.7881622  62.0267067  14.5213413  38.3018570  61.2467422
  14.3303747  38.3556213  62.7472839  15.8797703  11.6601601  68.0993881
  15.0032291  12.0346432  68.1869583  16.1874542  11.5575361  68.9999542
  36.8920593  71.0460587   8.7734785  37.0775108  70.1802521   9.1371031
  37.0459290  71.6492081   9.5006409  34.4782753  24.2534733   7.3570676
  34.8261719  24.7544193   8.0948038  33.6080170  23.9771385   7.6443348
  19.6594868  42.5919533   7.2142754  20.1945934  42.9985886   6.5327029
  20.1417923  42.7528229   8.0252838  41.5275192   4.1200843  88.6905899
  42.0709496   4.7978525  88.2886658  42.1540947   3.4835253  89.0347290
  85.3649521  65.2880325  45.9651070  85.6353760  65.4440079  45.0602455
  84.5174103  65.7264175  46.0407448   5.1657615   0.4097785  11.9758949
   5.3010345   1.3570081  11.9496460   4.9697556   0.2211687  12.8936310
  52.2736053  60.9455795  20.8987617  53.1133041  60.9318886  20.4394722
  52.5068779  60.8973274  21.8258476  29.5736485  64.4848175  67.8658600
  29.4428692  65.2028122  67.2464981  30.0181866  63.8071480  67.3565674
  52.4138756   5.4858646   7.0118346  52.2909775   5.8813910   7.8747864
  53.3134232   5.1589117   7.0241323  78.6825867  62.5895042  85.0229645
  79.4247513  63.1299629  85.2937469  79.0045853  62.1034966  84.2637939
  70.9170303  55.0822296  47.4546204  71.2118149  54.3154449  46.9633217
  70.3778839  55.5719070  46.8335152   6.4617367  47.1850433  84.7640076
   6.4470582  47.5737305  85.6386108   5.5395575  47.0470772  84.5477142
  63.3449898  57.5768127  61.4989586  62.9591827  58.2811813  60.9781380
  64.2165604  57.8988075  61.7289848  78.1234741   0.0957380   4.2070370
  78.8531265   0.7152713   4.2105584  78.1152420  -0.2595672   3.3182611
  12.6024866   7.3332844   0.8819684  12.1233873   8.0798283   1.2416462
  12.9907503   6.9071970   1.6461229  11.3305140  46.7149277  48.8767700
  11.2456217  47.0584793  47.9873924  10.9933290  45.8207970  48.8213425
  79.3768158  30.2275848  66.9859467  80.0151138  30.5222092  66.3363266
  78.5984192  30.7575912  66.8144150  22.5580139  60.6921501  62.5513573
  21.9149151  60.1198235  62.1329079  22.1657448  60.9165726  63.3951530
  72.0691223   0.8475649  14.4739265  72.0652084   1.3127135  15.3104982
  71.1521912   0.6177856  14.3233490  43.7006035  48.3819122  21.4242363
  42.8308411  48.2592125  21.0438576  43.5330925  48.5845146  22.3446312
  17.6670895  67.7048340   6.8114309  18.1042194  68.5071945   6.5261889
  17.4521446  67.2472458   5.9986281   4.2011232  45.3205528  85.1475143
   4.1912723  45.0982018  84.2165451   3.2828646  45.2761726  85.4140854
   9.2148609  62.3076668  41.2011948   9.0388193  63.2465401  41.2625275
   9.0223179  61.9702301  42.0760078  47.4818230  36.4157448  60.6962776
  47.7190285  36.0152664  61.5326843  48.0454178  35.9828186  60.0550537
   4.4156103  47.0618668  13.3603878   5.0659294  47.3734512  12.7309179
   3.7485418  46.6339378  12.8236132  10.6986618  22.7451591  59.7315712
  10.1788282  22.2335873  59.1116562  10.3272467  22.5330410  60.5878944
  62.4943123  51.1951599  28.8389015  61.5702744  51.0696678  28.6229477
  62.5080986  51.9814339  29.3846302  77.1673889  64.8260345  14.9703970
  77.6458206  65.1150970  14.1933680  76.8887329  65.6370773  15.3955936
   4.4483590  21.6016293  19.5399399   4.7783012  20.7079391  19.4467430
   5.1385665  22.0633297  20.0160484  18.8825989  11.0864878  74.1175919
  19.8179111  11.2356720  74.2560272  18.7485867  10.1690788  74.3555679
   6.2917614  52.2057610  88.5859375   6.6409841  51.3503494  88.8360214
   6.5898504  52.7974472  89.2767944  77.3815384   2.5453558  43.0596161
  77.5030289   2.8405430  43.9620247  76.4584656   2.2967274  43.0111618
   2.6030750   0.5981756  73.6435242   2.3381500  -0.2514765  73.9958572
   1.9107809   1.1985592  73.9201126  55.1795120  50.6798515  30.6533604
  55.7865791  50.7244072  29.9146328  55.4349709  51.4096107  31.2176514
  55.8610077  17.5535297  64.0212021  56.6629601  17.4542027  63.5081406
  55.3016014  16.8321266  63.7333221  36.0796661   4.5304942  26.0749531
  36.1320801   4.8961334  25.1918945  36.4280853   3.6432209  25.9878693
  15.5343342  66.2933807   8.8768682  16.0003128  66.8123627   9.5324230
  15.9481773  66.5289154   8.0465145   1.5678507  44.6083374  86.0398331
   1.1565876  43.9666786  85.4607315   1.6016568  44.1745033  86.8924103
  83.8014984  15.8038282  48.8898163  83.8812637  16.5800877  49.4441566
  84.3684158  15.1538057  49.3049126  57.9620285  41.6416626  60.4437485
  57.2619705  40.9974251  60.5491676  57.6708221  42.3974342  60.9538803
  45.3151627  52.3740845  21.8545055  45.0028992  51.8248596  21.1354275
  44.5228386  52.7769089  22.2097301  23.0536919  63.9139214  86.8977814
  23.0091114  64.8362427  87.1499100  22.1853619  63.5672989  87.1029358
  47.0978622  36.4910240  56.4481583  46.1939430  36.4348106  56.7580032
  47.0322189  36.9187012  55.5943298  80.8031998  47.4201775  53.2884140
  80.6560822  48.1461868  52.6822014  79.9847565  47.3486900  53.7796097
   5.7328210  53.4494553  19.1346226   6.2402129  53.1350250  18.3863468
   5.7355762  52.7168846  19.7507095  38.3999100   8.9615431  73.9615936
  38.9491768   9.5913143  73.4947662  37.5185890   9.3322296  73.9158173
  17.6472702  46.8456879  60.9483261  16.7112637  47.0074654  60.8302002
  17.9991264  47.6836548  61.2487259  55.8642387  33.5433807   2.7573533
  55.8140564  34.4862175   2.5999577  54.9590988  33.2796936   2.9229450
  15.5732079  13.3279886  61.6521797  14.7648954  12.9467745  61.9950218
  16.2707806  12.8019781  62.0432510  63.5427055  37.4753647  75.3847961
  63.2782516  37.2976189  76.2874069  64.3699493  37.9499245  75.4666290
  80.1894989  53.7971382  78.6280823  80.5475235  52.9152145  78.7293625
  79.7251968  53.7725220  77.7913895  71.8277817  57.8002281  14.3911419
  71.8967819  56.9282379  14.7798681  72.1832809  58.3883209  15.0574741
  18.5669212  26.8884468  64.3312378  17.7629833  26.5477161  64.7234268
  18.9610462  27.4239521  65.0198135  54.5025368  52.4452438  60.0958519
  55.4290962  52.3754883  59.8659401  54.3640518  51.7549629  60.7443581
  66.5968323  67.4125824  40.1054726  66.7809830  68.1345520  39.5045700
  67.3250504  67.4262314  40.7265587  12.7840223  69.1292267  39.1066513
  12.9999790  68.4132156  38.5092201  12.1425171  68.7530746  39.7093239
  59.1590042  70.6067123  32.3131104  58.9936523  71.5295029  32.5063591
  59.8914871  70.3703537  32.8821754  76.3729706  28.1742268  45.4369049
  76.1109924  28.0522175  44.5243759  76.7705078  29.0447254  45.4576225
  76.9370956  49.1772156  65.6145248  76.4955292  49.3122711  64.7760696
  77.7057953  49.7462120  65.5747757   5.3455911  32.9122849  23.7039127
   4.5672340  32.4680710  23.3676567   5.9000731  32.2059288  24.0353432
   4.1261444  26.7514629  50.7358818   3.6005960  27.3649921  50.2224503
   4.9857612  27.1676407  50.7998199  10.5198202  43.3018417  30.6667995
  11.2069035  43.2212524  30.0052452  10.9598579  43.1066475  31.4941444
  26.3315086  60.7119637  69.9195557  26.8821640  61.2645607  70.4742203
  26.0863419  59.9770851  70.4817657  82.0665894  41.8103333  24.9424610
  81.7010422  41.0550423  25.4030533  82.8169556  42.0751534  25.4744892
  38.4610443   5.9688382  68.1584625  38.6032181   6.6166825  68.8486176
  38.9536133   6.3046598  67.4095764  80.7066803  41.3374252  27.8328094
  80.6722031  40.6869659  28.5341969  79.7904205  41.4874420  27.6000252
  49.0050087  64.9411469  29.9027443  49.3825951  64.1597672  29.4988785
  48.1571541  65.0477600  29.4714565  44.8700867  10.4338779  84.0594330
  44.5457001  11.3238964  84.1968079  44.4698219  10.1576548  83.2349777
  33.4800835  42.1412354  31.1550636  33.5120163  42.1717720  32.1112442
  33.4259071  43.0587692  30.8878040  26.9513302  64.2851028  31.9638405
  27.6697159  64.6138916  31.4234219  26.2338791  64.8992844  31.8080120
  43.3016434  -0.1619388  46.1292572  42.8589249   0.6119124  46.4776649
  43.8963394  -0.4328629  46.8286629  85.4564972   2.3003349  26.9629021
  84.9217148   3.0620143  26.7390995  85.3693771   2.2171931  27.9124966
  48.6061096  17.6553326  15.0241289  48.3705292  18.1305962  14.2273502
  48.6100769  18.3236809  15.7093487  56.8118439  22.4954128  68.7732773
  56.4056015  21.7335434  68.3600540  57.7511787  22.3669605  68.6414490
  42.1146011  40.4572830  88.4888077  41.8170662  39.6254196  88.8571930
  42.1594887  41.0493164  89.2396240  73.2579041  15.4479303  76.3936157
  73.4989624  15.9979858  75.6482544  74.0798645  15.3079500  76.8637314
  51.8713760  57.5129509  32.1465340  51.7523766  56.5658646  32.0751076
  52.7853622  57.6585960  31.9023132  53.1608009  54.0775261  39.0381508
  53.0641747  53.6823387  39.9045944  53.7842255  54.7919922  39.1689453
  76.6870422  70.6076813  66.7539368  76.9232864  70.0730743  65.9958954
  75.7303848  70.6359482  66.7382889  11.1488895  70.7769012  15.6593990
  11.5373840  70.7318420  14.7857428  11.8722143  71.0364456  16.2300739
  62.9225616  31.9263306  78.9358673  63.1915474  32.3062973  78.0995026
  62.0110817  32.1991501  79.0407791   5.7665663   3.6153431  27.2949123
   5.1477590   3.0074077  27.6995392   5.2752571   4.4317360  27.2035370
  64.9561234  26.3400307  30.9122829  64.2566376  26.7588634  30.4107552
  64.8780670  25.4096413  30.7013035  66.5898438  45.5643578  34.6542473
  65.9531021  46.2134399  34.3550949  67.0134354  45.9742737  35.4084129
  59.1202850  51.0064697  48.8114204  59.4205894  51.7296791  48.2609520
  59.8756180  50.4215813  48.8715363  26.6308270  34.1199112  72.2301407
  26.3106918  33.2433395  72.4431381  25.9250240  34.7057228  72.5038147
  52.0237579   8.8803310  38.4379768  52.4998055   8.1946630  38.9064560
  52.6821785   9.2868738  37.8745613  68.0504074  37.8428802  19.4291706
  67.4607162  38.5345840  19.1290989  68.8581772  37.9861259  18.9359989
  19.1179256   2.9099085  60.1015854  19.5165310   2.4542634  60.8430252
  18.4129906   3.4281390  60.4898300  84.0310745  11.8040981  36.5836868
  84.4876785  12.1243553  35.8057518  83.1508484  12.1736326  36.5138779
  39.4178810  44.9575043  10.5959787  39.3544693  45.3325768  11.4743471
  39.0957184  45.6481514  10.0167990  48.1873055  64.7601089  37.3401108
  47.3150864  64.4068375  37.5152016  48.5305176  64.9896927  38.2036705
  63.6806183  11.1738119  50.7881126  64.1590500  11.3636246  51.5951500
  64.0350342  10.3357372  50.4910431   6.9669476  54.6866798  12.9059248
   6.3735213  55.1063576  12.2830715   7.8016553  55.1388855  12.7834320
  80.3377991  10.6566257  31.2223053  81.1589508  10.2491846  30.9467449
  80.2264404  11.3976679  30.6267490  72.0945663  38.0427513  86.4166870
  72.5251465  38.4515152  85.6658554  72.6441116  38.2768707  87.1646347
  71.8243790  42.2892609  64.5622177  72.0561523  42.6634521  63.7122192
  72.6407166  41.9097366  64.8874588  39.0393257   1.9158484  74.7140350
  39.7364807   1.3688425  75.0759659  39.0905952   1.7748096  73.7686768
  35.1567612   0.9233620  55.5482368  34.6278229   0.3673190  54.9761620
  35.5552063   1.5634090  54.9584808  17.4721279  68.2920837  68.2743683
  17.9599113  67.4736404  68.3662796  18.0073471  68.9422836  68.7293549
  61.5962334  22.9444046   1.7574657  62.0843925  22.7807503   2.5644045
  61.4944344  22.0797882   1.3595849  11.5842819  38.4552040  20.9986305
  11.6237907  38.3306923  20.0503864  12.3227777  39.0314827  21.1955051
  63.9598351  10.5334139  87.6532822  64.8910675  10.6028433  87.4430161
  63.5275726  10.4539318  86.8029480   0.4942134  56.8115120  17.5204487
  -0.3592989  56.3889923  17.6165028   1.1203442  56.1620369  17.8404045
  61.3567810  69.2215424  38.5074921  62.1432114  68.6967545  38.3579674
  61.5110245  70.0291824  38.0174370  76.7023468  21.5202847  77.7735138
  75.9801254  22.1482544  77.7902451  76.3143845  20.7008266  78.0804367
  43.1957779  62.0465431  61.1868401  43.2295303  62.4647522  60.3264961
  44.0113907  61.5487366  61.2433319  40.6169624  41.6747932  59.0013504
  41.1666374  41.1163750  59.5511322  39.8131065  41.7924232  59.5075264
  24.6014233  57.4728966   2.6495740  23.7308273  57.7455101   2.3597879
  25.1675758  58.2151909   2.4381447  21.0528450  70.2611389  86.4599152
  20.7764111  70.8898773  87.1266251  21.0100327  70.7494812  85.6377716
  82.1239395  61.9931526   4.0731282  81.1926727  61.7967911   4.1752481
  82.3086853  61.8058853   3.1527855  20.4973812  58.6740341  24.7134876
  21.1378574  59.0193710  24.0915852  20.8459625  58.9112129  25.5728283
   5.4072380   7.9864583  70.5908737   6.0505013   7.4360142  71.0374756
   4.7406697   8.1627045  71.2548447  27.3633347  61.2175026   8.2515163
  27.8807125  62.0226593   8.2680387  27.9236794  60.5641060   8.6702290
  73.1412506  25.0000420  37.0583153  72.7721481  25.8728313  36.9232674
  73.7827988  25.1170902  37.7589874  77.8709335  25.8729534  13.5339594
  78.4600296  26.3650360  14.1058445  77.6794281  26.4734917  12.8136034
  76.2352905  45.3350563  25.8599987  75.9241867  44.4651642  26.1104717
  75.7179031  45.9375114  26.3944111  43.5972977  36.1161461  51.3402672
  43.3155212  35.6858368  50.5330086  43.7753105  35.3964729  51.9457550
  45.8524094   8.4825287  19.4504757  44.9212608   8.6978769  19.3973999
  45.8767776   7.5256886  19.4602013  70.1265411  57.1880875  81.7822647
  71.0655365  57.3733673  81.7958603  69.7640228  57.7368965  82.4776993
  48.1991692  61.1910553  72.3732910  48.7861557  61.7194748  72.9140778
  48.1496506  60.3490524  72.8258514  23.1973228   0.1429650  19.8372955
  23.6419983   0.1980165  18.9914436  23.8748512   0.3575731  20.4784908
  25.9677525  68.1423874  73.3393021  26.5481186  67.8026581  74.0204697
  25.0871506  67.9226532  73.6434250  35.5011139  28.8468876   0.9993072
  35.8706398  29.6555843   0.6447746  36.2577438  28.2757740   1.1318722
  31.8437252  29.9614906  63.6506577  32.0333710  30.3505344  64.5044174
  31.6717606  29.0392189  63.8405876  65.2399597  16.3486500  79.4999313
  65.9380035  16.4185410  78.8487091  64.4716339  16.0748043  78.9990234
   7.7201481  60.4816704  34.4758301   7.3390536  61.2706604  34.0904808
   6.9886050  60.0562019  34.9231033   4.0357814  16.4047432  10.9283524
   4.0934362  16.1821842  11.8575315   4.9434123  16.4007435  10.6243420
  35.9125862  59.5563011  41.1208458  35.7749443  58.6702576  41.4558258
  36.5679893  59.4524307  40.4309959  11.7219419  10.1226377  85.2705765
  12.5802469  10.1716852  85.6914520  11.7154665  10.8545752  84.6537628
  77.8491135  20.6424274  72.3756943  78.5918350  21.0948830  71.9758530
  77.3124237  21.3434830  72.7454453  70.7944565   9.1052532   5.9823956
  71.5159302   9.0470343   5.3560414  70.6305389  10.0440130   6.0723538
  41.9560509  20.9877853   3.1546364  41.5711327  20.1113968   3.1576838
  42.7918282  20.8838806   3.6095171   7.4826231   0.8233066  46.6232147
   6.5367227   0.7122734  46.7190056   7.6636953   0.5656981  45.7192879
  24.7963848  39.0869484  66.9660721  24.2317047  39.8271065  66.7435074
  24.4600716  38.3621407  66.4390182  77.5346985  38.3684464  46.5946846
  77.0119629  37.6789970  47.0041237  78.2086868  37.8984070  46.1037369
  41.3152161  60.9128799  30.5994930  41.6648941  60.0757141  30.9046345
  40.8319321  61.2584267  31.3500042  10.1800604  44.2133064  67.4257278
   9.9222660  44.3121452  68.3422470  11.1305599  44.1040268  67.4547195
  45.8293152  26.1333351  80.8584824  45.8116684  25.2273312  80.5501404
  46.5030899  26.1418819  81.5383301  21.8369122  22.3522472  30.6603508
  20.9616032  22.4782505  30.2940331  22.2390575  21.6905079  30.0976677
  50.2752571  10.4783936   7.9867287  49.8615112   9.6252995   7.8552890
  51.2090263  10.2824192   8.0635834   1.3555187  17.3814697  52.8473625
   1.9075506  16.7183552  52.4329109   1.5275799  18.1811504  52.3502350
  64.5947266  40.6639023  55.3559570  64.9970932  41.3681068  55.8643188
  65.3160019  40.2934265  54.8472939   5.1061263  32.6573563  76.4517136
   5.6908498  32.2949333  75.7861481   5.0782580  33.5949745  76.2611313
  61.7248459   7.9540658  27.2693977  62.0637932   8.3590374  26.4710579
  60.7733383   7.9974937  27.1746197  43.0880966  61.4983521  34.0917091
  43.4792099  61.6363068  33.2290192  43.0396843  62.3738937  34.4755249
  48.3442879  23.7868176  66.0152054  47.4544678  24.0789566  66.2129593
  48.7728920  23.7294693  66.8691559  26.3011932  18.3649406  71.4685822
  26.2794456  19.0690498  72.1166534  25.8144302  17.6488018  71.8765564
  43.8131905  69.1607895  14.3672180  44.5922470  69.6224976  14.6772747
  43.6185570  69.5615768  13.5200348  69.0005493  48.6012688  82.2999191
  68.6076584  48.8495483  83.1367111  69.5009155  47.8091469  82.4958954
  50.6525841  68.3307800  37.6817017  50.4645958  67.4195404  37.9064903
  49.8011551  68.7667313  37.7170029   1.6603951  42.6740303  69.1501617
   2.3649952  43.1439514  68.7041245   1.0065724  42.5193748  68.4683762
  72.8573532  50.8588982  80.7242813  72.5803528  51.1794853  79.8659515
  73.7052002  51.2771873  80.8739929  74.3945923  13.0020542  13.8582916
  73.7540436  12.7301531  13.2010260  74.2198868  13.9336300  13.9919901
  66.4730377   2.8218646  52.4354401  65.9101715   3.1521032  51.7351837
  65.8976822   2.2697339  52.9649200  61.8153534  54.6561661   7.0572410
  61.0953407  54.8930473   7.6417913  61.8812332  53.7041664   7.1319704
  50.7212868  38.6170959   2.1009037  51.0475883  37.7842865   2.4417636
  51.0177078  39.2686310   2.7364130   8.5922031  49.5018425  25.2903233
   7.9769015  48.7876701  25.4564304   8.3655834  49.8143845  24.4144268
  79.0726929  27.1445656  67.2925491  78.3386612  27.6878967  67.0058212
  79.8058853  27.4237576  66.7441788  85.6803360   3.3245494  86.8318024
  86.3236542   4.0138531  86.6667633  84.9589005   3.5222640  86.2345810
  53.6146126  22.2910957  15.7121496  53.5870209  21.3521252  15.8960056
  52.9139328  22.6610088  16.2492180   3.6123557  66.6767197  61.0522499
   4.3225555  66.9425049  61.6363831   4.0501809  66.4431610  60.2337227
  13.7971401  40.0949974  20.2814865  13.0329599  40.3906784  19.7866802
  14.3597250  40.8673897  20.3375187  82.0768814  65.0178833   5.0152841
  81.5707321  65.0053482   4.2029462  82.2463531  64.0953445   5.2061496
  69.6926727  30.6514435  67.9857178  70.5003433  31.1003017  68.2355728
  68.9991989  31.1444073  68.4242554  54.8034134  56.0394020  22.4651928
  55.4322395  55.3772736  22.7522411  53.9474106  55.6417542  22.6244869
  41.4183731  13.7171001  60.8386650  40.4611740  13.7163200  60.8394279
  41.6585655  13.7862778  61.7626495  71.0857162  12.6954031  31.4861736
  70.8690186  12.7311344  32.4178391  71.7757874  13.3494568  31.3755188
  14.1133642  30.5321350  10.2952967  13.7449884  29.9099636   9.6680536
  13.7422600  30.2707462  11.1380243  19.2569904  48.7829437  67.1901855
  18.3242035  48.7010689  66.9916000  19.3214684  49.5827827  67.7120361
  46.8603630  60.9402695  35.0402184  46.7418404  60.7099686  34.1187286
  47.6035271  61.5435410  35.0426521  66.6187057  69.1120605  79.9433594
  66.0197220  68.3713303  79.8497391  66.8541794  69.1138992  80.8711395
  12.3442926   5.7082520  73.6248779  12.5838661   5.1561232  72.8805771
  12.9403419   6.4552546  73.5706253  29.0662804  42.6668129  45.9807625
  28.4325981  42.2227287  45.4173164  29.2797184  43.4735069  45.5118065
  16.8960781  60.7434464  13.9296598  16.8687572  61.3989525  13.2326679
  16.7885628  59.9072571  13.4763851  15.6865540  25.7441559  67.7069855
  16.4760399  26.0803623  68.1311417  14.9649868  26.1374054  68.1978302
  59.6515312  43.7868080  81.0236435  58.9205170  43.2803726  81.3777313
  59.4650345  43.8539581  80.0871887  30.2462349  37.5664177  68.0584564
  30.5521832  38.4704742  67.9855576  31.0476360  37.0435066  68.0819092
  72.8263626  45.0537453  43.3657188  73.4328842  44.9472694  44.0985374
  72.3163986  44.2437439  43.3572578  74.9681091  24.7581902  48.1993370
  74.6791992  23.8466797  48.2430725  75.0517960  25.0270767  49.1141739
  77.3696518  14.4608727  79.9639816  78.0546188  14.3862801  80.6284332
  77.6188889  13.8275518  79.2909164  47.2950592  48.0950928  39.3510933
  46.4290695  47.8672180  39.6892776  47.1174469  48.5805092  38.5454521
   8.4208174  34.9276962  67.6382599   8.3428707  34.1621742  67.0689316
   8.7509680  34.5780487  68.4658890  78.1997757  10.6328030  88.7796707
  78.0217285   9.6951380  88.7067719  77.7285385  11.0239782  88.0440445
  10.4900084  30.4162445  85.1424561  10.2809982  30.6835022  86.0375137
   9.6405287  30.2242336  84.7452850  45.4761238  57.5050125  81.4433975
  45.0995750  56.8516769  80.8538284  45.8109818  58.1876488  80.8619232
  53.8582497   8.3406515   3.7500210  53.6780777   8.0920801   4.6566529
  53.6076927   7.5725255   3.2367609   5.3076534  47.3438721  63.5261421
   5.9327178  47.6410561  62.8649254   5.8518958  47.0717583  64.2650528
  77.4076843   7.5634818   5.7611647  77.0562668   7.5550437   4.8708472
  76.6706238   7.8373947   6.3070016  49.4583015  33.3575668  79.9781952
  48.9305267  33.8448219  80.6108627  50.2998962  33.2301216  80.4160461
  78.1866302  18.7778072  89.0999451  78.2811279  17.9945240  89.6419525
  77.6596909  18.4908600  88.3541412   6.0385160  45.3612747  18.8806973
   5.8911629  46.2670288  18.6084423   5.2086658  45.0913963  19.2740784
  60.3444862  36.0076904  65.4858017  60.9044838  35.6248093  64.8104935
  60.9473953  36.2464638  66.1898727  44.9683876   2.0745349  11.4440441
  44.5013657   2.3688426  12.2260332  45.4794083   2.8359263  11.1695051
  69.7357025  27.0871143  78.1152496  69.7222137  26.2740993  77.6102219
  69.0987701  27.6517067  77.6773224  29.4341850  60.0133171  55.7925262
  29.1733112  59.3999062  55.1055756  28.6141682  60.2513199  56.2251472
  35.3761520  47.3154831  82.4844971  35.3660698  48.2535362  82.2942657
  34.4845772  47.1199570  82.7727585   4.9555197  68.0692978  40.8382378
   5.3901324  67.8961334  40.0031586   4.9467163  67.2221985  41.2838516
   0.1521282  21.1476021   5.8941965  -0.4858673  21.4805279   6.5253491
   0.9911206  21.1985798   6.3521538  15.6923676  22.5364742   2.9457457
  16.1271820  23.3675518   3.1367478  15.1364069  22.7252331   2.1897638
  27.0102253  59.7165565  88.2376633  27.5154896  60.4127235  87.8177948
  27.5706444  58.9430542  88.1755829   1.4316519  56.4558144  12.9611740
   2.0759928  57.1424026  13.1333876   1.4174900  55.9339523  13.7634783
  75.2501831  69.9298325  59.6495514  75.4145203  69.4006500  60.4300575
  75.8428268  70.6763763  59.7371826  84.5053101  10.8591728  15.4003391
  83.6995697  10.5467548  15.8119335  84.6353836  10.2741985  14.6539354
  73.2489624  35.7570305  41.4914513  74.0684738  36.1773109  41.7521973
  73.0819778  35.1112213  42.1779480  18.0348358  64.0749817  81.6580048
  17.6176395  64.3052063  82.4881744  18.6350536  64.7996674  81.4825058
  50.0077705   8.4482384  81.1027451  50.0839577   8.5106192  82.0548630
  49.3922386   9.1419210  80.8657608  74.5726318  45.1754189  62.5797501
  73.9054565  45.8617859  62.5816689  75.0254211  45.2791824  63.4166794
  19.4195461  58.8361626  77.0070114  19.6572971  58.0063057  77.4205856
  20.0304451  58.9227371  76.2752075   8.9538250   3.9984796  14.0067186
   9.5671806   4.3601093  14.6464453   8.9053335   4.6628103  13.3192997
  79.2837753  68.1342545  59.9579048  79.9565811  68.3938599  60.5873222
  78.7199478  67.5328674  60.4444008  81.2391510  38.6798172  33.9865227
  80.2867661  38.7756805  33.9865112  81.4014206  37.9002876  33.4552689
  21.6465759  19.9056072   8.6089058  21.6971416  20.8499947   8.7565870
  20.7133770  19.7026844   8.6736736  71.4996262  58.7318420  23.9941444
  70.7503738  59.0680313  24.4859104  71.4650040  57.7840118  24.1231728
  80.9254150  40.6025810  54.6420441  81.4989471  39.8676376  54.4248962
  80.0550995  40.2120132  54.7210312   8.4619789  51.6206703   4.5300217
   7.8092194  52.0979691   5.0421958   8.2418547  50.6984215   4.6613021
  64.7226181  59.6461563   8.0103264  64.3225632  60.4476776   7.6730566
  64.0958862  58.9559860   7.7932887  77.7424088  27.6048450  86.4995117
  77.8123016  28.5461483  86.3404694  77.3230591  27.2592793  85.7115021
  22.4624329   4.3961692  84.1931610  22.1718254   3.7433732  84.8300552
  21.6822281   4.9215403  84.0156860  41.8023834  33.4271965  59.8181381
  42.1645889  33.9452744  60.5369110  40.9969978  33.0526886  60.1749687
  51.9301033   3.1958761  33.4668427  51.6089325   2.2968228  33.5360107
  51.6855698   3.4702401  32.5830116  73.9428940  51.9733810  23.5316467
  73.9131012  52.3553352  22.6544628  73.8078613  51.0364571  23.3896236
  81.0283737  54.8479996   4.4541988  81.7244415  55.0891228   5.0654054
  80.4092331  54.3445473   4.9828210  53.2862854  49.2178802  61.4530182
  53.8389702  49.5769463  62.1471710  53.2438049  48.2803841  61.6415100
  14.5633307  12.8541527  19.6629047  13.6905622  12.4624128  19.6952667
  15.1585331  12.1076536  19.5943089  85.8714142  50.1626701   7.0546355
  86.3464813  49.5268173   6.5196276  85.7428055  49.7208939   7.8939967
   6.4266028   2.7308295  12.7585573   7.2329550   2.5044520  13.2220020
   5.8993573   3.1956820  13.4082928  51.3330727  18.1749020  16.0187588
  50.8780518  18.0322018  15.1888046  50.6324539  18.2430401  16.6673889
   8.9765263  40.2187500  47.4701538   8.2382393  40.7708778  47.2126274
   9.6181402  40.3345833  46.7693367  58.6791267  46.1397438  60.8983536
  59.5969467  45.8694496  60.9262962  58.5934868  46.7709923  61.6127930
  49.6048698  44.2164574  62.2267570  49.7246704  45.0294113  61.7358551
  50.3984833  43.7111130  62.0505867  51.9441528  46.0963631  62.8074455
  52.4011841  45.3719063  62.3802185  52.5836334  46.4524841  63.4242744
   0.3776343  36.9339943  59.9162216   0.8514733  36.4508514  59.2392578
   0.4413236  37.8499718  59.6457367   1.0165300  50.5046387  63.7437668
   1.4524004  50.1153870  64.5018768   0.6055763  51.2987747  64.0853806
  66.6103821   2.9176428  33.1277275  66.0651550   3.2101743  32.3973999
  66.5099640   3.6010695  33.7903557  62.8872643  48.7824402   2.9478548
  63.0866699  49.5139389   2.3635769  61.9400291  48.6670837   2.8725359
   0.8474889   0.5596125  80.7810440   0.3412960  -0.0980871  80.3041458
   0.4400848   1.3929737  80.5449066  42.0012398  55.6424599  17.4007626
  42.4072418  55.2092438  18.1515732  41.2409592  55.0992432  17.1930981
  48.5274086  56.2594604  71.3791580  48.1368561  56.3399239  70.5089645
  47.7980995  56.0104904  71.9469147  40.2375679  68.3226929  11.9206514
  40.8759499  67.9319916  12.5173521  39.8821144  69.0680389  12.4047480
  59.6588631  59.4121017  71.3730011  59.7190208  58.5305939  71.0048218
  59.7694130  59.9938393  70.6209412  51.9924698  22.0277462  21.8673706
  52.4848518  21.3893700  21.3513622  52.5882797  22.2747250  22.5746517
  72.2392731   8.8312693  32.2784233  72.1946869   8.8476763  31.3224030
  72.3039703   7.9021444  32.4992676   2.1199417  44.3346329  55.4688606
   1.6753763  44.4436874  54.6282082   1.8415877  43.4721565  55.7768936
  60.6206131   2.0638611  54.5623932  60.2346001   2.7226450  55.1396561
  60.0660744   2.0745182  53.7822609  11.8741217  68.7852554  17.9870300
  11.2036076  68.5491867  18.6280556  11.9995985  67.9907913  17.4680672
  38.1464767  47.7456284  83.8225555  38.3831749  47.5993347  84.7384186
  37.2186584  47.5151062  83.7752075  33.1855011  61.9997673  13.3706989
  33.8450851  62.6743698  13.2091770  33.5173111  61.2263260  12.9147120
   7.5770435  14.8356800  77.8154144   8.4165955  14.6669760  78.2431107
   7.0768147  15.3372688  78.4591675  47.0009270   5.0627723  55.9935570
  46.2448311   4.6664658  56.4265594  47.7548218   4.5939245  56.3514061
   3.0533626  60.1935539   1.1665971   3.0753322  60.9595032   1.7402399
   2.4281311  60.4262466   0.4801790  73.1061935  16.0284424  41.9242096
  73.3377151  15.3199959  42.5248222  72.7344589  16.7076683  42.4869690
  55.7807274  41.3464050  27.2004910  56.4495163  40.8480339  27.6701469
  55.2226028  40.6799049  26.7998600   7.6247635   9.4067240  21.2151604
   6.8577318   9.9210930  21.4667912   7.2625332   8.5990868  20.8508205
  46.9061012  54.7722397  50.5297623  47.8342972  54.6404266  50.7229118
  46.8673248  55.6356583  50.1183739  33.8674469  16.2608166   2.6211622
  33.3514366  15.5524302   3.0060749  33.9325943  16.9150200   3.3168671
  36.4133415  64.7821274  63.7005005  35.6091385  64.9777451  63.2196388
  36.1737022  64.0635910  64.2857437  38.2171097  57.7883682  32.5549583
  38.9625206  57.4797668  33.0700951  38.6049881  58.1090050  31.7407265
  37.8873215  68.1228714  55.1713524  37.9503136  67.5795059  55.9568596
  37.6027908  68.9780197  55.4938469  70.3679581  49.0896721  40.0221481
  69.4413986  48.8648338  40.1067543  70.3718109  49.9044342  39.5197716
  20.6331425  27.2552147  85.9542084  19.8895378  27.8562126  85.9085312
  20.9179115  27.2954807  86.8671799  73.7499161  53.0516853  42.7984314
  73.9919968  52.1985855  43.1587791  72.9224319  52.8936539  42.3439789
  54.9913750  67.0466385   3.9211826  54.9648514  66.3958130   3.2197902
  54.7726326  66.5548096   4.7126918  22.1344604  21.0538902  53.2655449
  21.4262428  21.6385574  53.5354042  21.8452301  20.6995144  52.4247131
  86.3000107   6.6368990  15.4606543  85.8967133   5.7962356  15.2441607
  86.6335526   6.5204978  16.3502769  48.6533623  63.1110229  27.2607746
  49.3637848  62.4826622  27.1315689  48.2104454  62.8118362  28.0548439
  61.5388489  25.3544788   5.7454491  61.1734657  24.4714661   5.8003731
  60.7875443  25.9124947   5.5444708  69.8428345  49.3452606  74.4179230
  70.1177521  48.8931198  75.2155609  70.1237183  50.2511482  74.5471954
   4.2652917  22.3654423  85.1899185   5.0334873  21.7961502  85.1450348
   3.8122663  22.0939045  85.9882126  19.8751431  45.2813263  73.7385483
  20.8224487  45.2837868  73.8757935  19.6128864  44.3740616  73.8945160
   9.8713942  26.2987671  62.4705009   9.5151529  25.8526726  63.2388268
  10.0108347  25.6001778  61.8311577  11.8879290  42.1299782   9.6594696
  12.0195732  42.1624794  10.6070175  12.1438532  41.2413216   9.4124432
  34.1372261  52.7260742   2.3090219  35.0126915  52.9727287   2.6072712
  33.6416893  53.5449753   2.3176675  58.6780586  49.0740318  88.1610565
  59.0417213  48.2128334  88.3667679  57.7327042  48.9305115  88.1169815
  50.6747742  25.2035217  26.2173557  51.1274490  26.0463486  26.1864109
  50.6716957  24.8998318  25.3096142  54.4706688  60.1537094  41.5995712
  54.3088646  61.0229416  41.2328453  55.2461128  59.8384399  41.1353264
  68.1516113  24.3710308  59.1200409  67.9204712  24.5653114  58.2117119
  67.7069092  23.5447006  59.3088608  73.0666885  30.1428661  45.1175346
  72.8499527  29.7097931  45.9431877  72.5659943  30.9584599  45.1362305
  78.9587021  41.8247871  11.2919025  79.3822174  41.3022575  10.6108494
  79.6253891  42.4584351  11.5569506  25.1605206  56.0104294  83.0445099
  24.6335564  55.9990654  82.2455063  25.3809872  55.0918808  83.1991043
  16.1273518  69.7240906  76.9694748  16.0859661  69.8155899  76.0175629
  16.5183125  68.8618164  77.1104355  40.8781395  40.8426895  12.9070969
  40.4908295  41.5398827  12.3778114  41.8168793  41.0296135  12.8995371
  36.0646629  68.5874939  31.1421890  36.8146935  69.0840912  31.4694042
  35.3661308  68.7659836  31.7718143  26.7129440  70.6551056  56.8655090
  26.6062298  71.5675735  57.1342850  25.8787861  70.4272003  56.4550552
  36.9742317  41.7907104   6.0532322  37.2768211  42.1990509   6.8643627
  36.1897354  42.2845459   5.8146367  74.4992828   2.7831423  29.1951485
  73.8498993   3.4140079  28.8844357  74.0527725   1.9376931  29.1496220
  78.5187912  10.7389936  25.7443275  78.2899551  10.7094402  26.6732998
  79.4749985  10.7814608  25.7344398  11.3427143  52.1630669  25.5534420
  11.7459183  53.0174522  25.3995514  10.7770462  52.2986069  26.3136253
  51.2187157  38.4908295  58.0527611  50.6010208  39.2134209  57.9407272
  52.0083084  38.7773590  57.5937653  59.3364143  53.7009468  35.6714516
  59.3823967  54.6568680  35.6533661  60.1725082  53.4280434  36.0492134
  44.5590553   3.4851110  54.5355453  43.7500687   3.7362924  54.0898132
  45.2229843   4.0738730  54.1766739  85.8969421  33.0555573  79.5597305
  86.0696259  33.5018425  78.7307281  85.1256943  33.4982185  79.9139328
  31.8496933  27.8676186  42.3271561  32.2793503  27.0243607  42.1838264
  32.5243950  28.4149799  42.7289124  64.4469910  10.4463806   6.8707681
  64.0188446  11.0997477   6.3175640  65.3759537  10.5186329   6.6515698
  17.4636078  64.8038788  51.3106155  17.9851780  64.6901321  50.5160980
  16.6657658  64.3008347  51.1474342  63.2655716  10.8360081  84.9602509
  63.6381760  11.1825838  84.1495209  62.3244438  10.7912893  84.7913818
  60.7090187   6.3760514  20.6022968  60.6674461   7.0389848  19.9130764
  60.1643562   5.6588550  20.2779427  24.5246811  68.2017441  60.2062607
  23.7191391  68.3763657  60.6929245  25.0203571  67.6069412  60.7690582
  36.9223328  65.9792252  22.9829750  36.7572021  65.6042099  22.1179161
  36.1057396  66.4233704  23.2113323  35.8565063  60.0774651  30.5811424
  36.7663536  59.7838631  30.6281052  35.5552864  59.7871590  29.7201996
  22.5266361  24.4081059  87.8061676  21.7803612  24.2519531  87.2274475
  22.7073555  23.5544281  88.1996231  84.6461868  63.8454933  62.5629997
  84.4361496  64.6683655  63.0045891  84.0857620  63.8402596  61.7870293
  79.4159012  25.7170868  81.1589737  79.0613098  24.9765625  81.6510315
  78.9793472  25.6705360  80.3083954  84.6470947  19.5060902  70.2165833
  84.8513107  18.6655846  70.6265564  83.8423691  19.7936630  70.6477966
  38.9802284  60.5263176   2.6028180  38.9219284  59.8532143   1.9247568
  39.2019577  60.0448265   3.3998346  46.6516228  23.6803741  86.3529358
  46.4371910  24.4178562  86.9242249  46.2268486  23.8902798  85.5212250
  32.6633034   3.5306268  83.6976700  31.8516560   3.8150954  83.2775040
  33.3569641   3.8586373  83.1254120  54.7343407   1.3733518  20.6158638
  55.0984573   0.4894644  20.6647835  54.9627914   1.6782416  19.7377510
  67.4026947  24.6301079  56.6230888  66.7967072  24.8102398  55.9043655
  67.8596268  23.8322582  56.3568459  13.6050577  64.5796280  21.5668869
  13.6827211  65.4985123  21.8234921  12.6900377  64.3588943  21.7408047
  74.8769989  17.0329418  63.5176239  74.8393784  17.8048515  64.0823975
  75.7497864  17.0650883  63.1258965  80.6319275  10.9040356  74.8132172
  81.1829834  11.5946274  74.4449005  80.7881622  10.1465893  74.2492142
  62.4605713  22.9817200  26.0262661  61.7316856  22.9983501  26.6464901
  62.6625137  22.0522499  25.9188671  20.5488682  63.7094536  85.5063934
  21.1225586  63.5132713  84.7657013  19.9245300  62.9841194  85.5244598
  40.2596016  34.7202148  74.1298523  40.6632805  35.5130119  73.7766571
  40.8947411  34.0272141  73.9493408  41.6250648  52.9502487  64.8229752
  40.9185829  52.5720406  64.2994537  41.7307816  53.8367615  64.4777908
  22.2039070  42.2495995  76.9156799  22.0417461  42.4942131  77.8267746
  22.8668919  42.8711891  76.6151657  38.0963135  59.5394020  65.4821320
  38.4251938  60.2866211  64.9823990  38.6451759  59.5152283  66.2659683
  21.9363880  62.4146347  27.0104523  22.2539711  62.7088852  27.8641453
  21.6907959  63.2202454  26.5555840  59.3648109   9.9903679  11.9141607
  59.6135674   9.8782883  10.9966698  60.1404457   9.7226200  12.4070435
  66.1610336  57.5616074  15.5879450  66.3638153  58.2434425  14.9474678
  66.9967728  57.1208458  15.7412739  48.5425606  55.6141777  45.9458122
  49.3383713  55.3588371  46.4124184  47.8470764  55.1048965  46.3619499
  82.8905106   1.7596779  54.8151932  82.9965591   1.2324654  55.6070480
  81.9487762   1.9218018  54.7597275  12.6844406   3.4717350   3.1563966
  12.5083952   2.8860455   3.8927441  11.8245621   3.6337471   2.7683332
  22.0846519  11.0816326  44.5716591  22.1616077  12.0123529  44.3617287
  21.1448803  10.9041224  44.5322533  31.2160511   0.4029064  79.4432526
  31.9250488   0.8646647  79.8908386  31.6611633  -0.1935730  78.8413239
  39.1328545  32.5856171  80.9348907  39.5159569  32.4628143  81.8034363
  39.0398064  31.6988983  80.5866013  37.6600647  55.9393425  18.8388042
  37.1955605  55.2351570  18.3864841  38.5527267  55.6096611  18.9422092
  51.1246414  71.1751785  66.9742432  50.6584969  71.7246323  67.6043549
  51.7967262  71.7493134  66.6069565  32.6399651  54.9479370  33.5417442
  33.4255447  54.4897919  33.2430725  32.3780251  54.4816704  34.3356056
  44.5380516  37.9073982  26.9859657  43.8359375  37.7162895  26.3640766
  44.9985847  37.0748100  27.0905304  59.6359329  27.1654110  25.9985695
  60.1379852  27.9055862  25.6575165  59.6824608  26.5053959  25.3068714
  62.4686012  50.2925453  31.6799469  63.3350945  50.0587158  32.0127373
  62.6425209  50.7354050  30.8493710   6.5249019  18.3266830  26.0433502
   6.8053765  17.5466805  25.5646420   6.2491522  18.9396935  25.3618736
  42.0015144  71.2961044  31.5868320  41.1234016  71.5192261  31.8956490
  41.9135780  71.2394104  30.6353664  73.8000336  41.1089668  33.9473877
  74.1822205  40.3269920  34.3457260  74.1554642  41.8361588  34.4583588
  58.3654060   6.7973204  47.3380470  58.0745811   7.3320770  46.5993385
  59.2648811   6.5544829  47.1184921  15.5970335   2.4115250  43.1603317
  15.7877178   2.1058912  42.2735062  15.7805424   1.6560141  43.7186852
  30.9246941  46.9087982  85.8252640  30.5797462  47.2162476  86.6635437
  31.8307323  47.2172394  85.8114777   2.1688268  68.7649994  50.8601685
   2.8314188  69.1608200  50.2940178   1.4052821  68.6537552  50.2937279
  31.4974937  49.1686821   3.2658942  32.0086746  49.7782555   3.7981963
  32.1244392  48.8204193   2.6319489  42.5488892  68.7710190  10.6604538
  41.6094742  68.7646027  10.8440104  42.9196243  69.3470917  11.3289814
  65.8055038  37.1693573   5.9396453  65.7135468  37.6112823   5.0955610
  65.7178574  37.8689270   6.5870657  28.1183605  70.7837219  33.9040375
  28.6384583  70.1847610  34.4397430  28.1166172  70.3861923  33.0332947
  48.4802399  18.3541679   4.7981634  48.8497047  18.4709854   5.6734238
  48.9657822  17.6160793   4.4297814  56.0877533  30.4401875  15.8862038
  56.8850861  30.8555565  15.5576286  55.4692039  30.4996490  15.1581268
  62.9212303  54.1942635  76.2871933  62.1073952  53.9245071  75.8615875
  63.2676697  53.3898125  76.6732864  68.5204163  54.1095581  58.5188828
  68.4883881  54.3561592  59.4432182  68.7253342  54.9245186  58.0605354
  32.1429253  65.3044357  51.3948479  32.7657394  65.7732697  50.8393898
  32.5006828  65.3874283  52.2787857  77.5778198  33.0628548  10.0852633
  78.4335861  32.6340370  10.0822039  77.2793808  32.9954491  10.9922495
  15.7666788  43.8404198  59.1920280  15.0709076  44.4796448  59.3454208
  15.9346724  43.4579544  60.0532646  33.6819115  54.0255547  76.6826248
  33.0042839  54.3185005  76.0733337  33.5632591  54.5769844  77.4559784
  78.0149765  51.2103920  72.8675995  77.9614105  51.8484497  73.5791092
  77.4818115  51.5870132  72.1675110  15.6698084  43.4653244  30.2015133
  14.7637835  43.4330673  30.5086136  15.6414404  43.0708351  29.3298454
  19.9545135  70.8285828  77.8863525  19.9409084  71.0705948  78.8123550
  20.0141563  71.6632080  77.4215164   0.8939828  11.3077564  70.3906021
   1.1315302  10.3805075  70.3870926  -0.0578313  11.3107805  70.4919586
  11.0674362  56.4213867   9.1693258  11.2456503  57.3278885   9.4197779
  11.5114326  56.3135796   8.3282099  70.8597336  20.2213402  40.7521362
  70.5304108  20.8626556  41.3818130  71.5562820  20.6814175  40.2837563
  20.5622272  46.6795540  13.8844824  21.1363621  46.1506691  14.4384480
  20.2663403  46.0770607  13.2020721  15.1637602  51.4864693  67.8526611
  15.1238441  51.1496353  66.9575806  16.0565701  51.2961617  68.1405945
  11.1997118  71.2246170  36.6353607  10.5888252  71.9536667  36.7427635
  11.3818951  70.9312820  37.5281067  39.6669960  68.8043289  36.5186386
  39.6343422  68.2296982  37.2834663  38.8671188  68.6025543  36.0331345
  83.6511459  47.0720901  87.2580261  83.6653824  46.6826630  86.3837433
  83.7417908  48.0122833  87.1029434  73.9119339  11.6760759   4.8833566
  74.6076126  12.2245464   4.5208101  74.3666229  11.0635014   5.4614925
  21.1003838  36.3858452   1.6547920  21.1144676  35.8991661   0.8306692
  21.1345196  37.3052368   1.3906245  80.0693970  13.1931534  71.9872055
  79.4689178  12.4621544  72.1331329  79.5786591  13.7990646  71.4319839
  29.0340977  26.6523342  79.5722351  28.5137844  26.1139870  78.9758377
  29.7130680  27.0364666  79.0175476  81.1146164  71.0416031  43.2973289
  80.7393570  71.6451035  42.6560822  81.6173248  70.4177704  42.7735481
   4.7243228  47.6896286  49.8404655   4.8186817  48.4194679  50.4525681
   4.6307588  48.1061325  48.9837265  60.3698540   9.5101070  63.9678726
  60.1235886   8.5852337  63.9539757  59.5615807   9.9697971  64.1950531
  -0.0630451  50.1796608   3.2012136   0.8234470  49.8666039   3.0213277
  -0.5282248  49.4084549   3.5253813  43.5074844  49.6825256  62.5157661
  44.3599472  49.6532249  62.0813942  43.4050827  50.5965462  62.7809448
  82.2097321  38.6539612  48.4959526  82.0513306  37.7547836  48.2085152
  82.6126404  39.0798302  47.7392998  71.7257843  33.7179756  29.9920406
  71.4298019  32.9436111  29.5135174  70.9199295  34.1828156  30.2173538
  19.3193073  54.7815056   4.0955491  19.2940159  54.0045395   3.5370555
  20.2518444  54.9677811   4.2046809  16.8307095  31.5018883   6.1428328
  17.7849541  31.4569855   6.2030873  16.6609440  31.8013325   5.2496672
  56.9817009  26.4354630  80.3175507  56.9339905  25.4794979  80.3083191
  57.5754280  26.6386757  81.0403366  81.6771393  68.0471191  48.2171860
  81.3315277  67.8292465  49.0828171  81.7232666  69.0031891  48.2113876
  64.0381927  63.9196205  32.9584732  63.7425079  64.8221817  33.0775871
  63.3402557  63.3866882  33.3393860  81.3677826  53.9099121  59.6842194
  81.5066605  54.6316566  59.0710068  80.7833557  54.2710266  60.3507538
  69.8933716  23.3560314  47.7482681  70.1799393  23.3890495  48.6609650
  68.9409485  23.2751312  47.7990456  69.7172699   4.9047313   0.6299634
  69.0832901   4.3904281   1.1297559  70.3332138   4.2574987   0.2865379
  59.6067924  54.2827492   8.6240902  58.8033981  54.7096977   8.9215794
  59.4819870  53.3590775   8.8420153  27.8551407  46.5893250  60.1725235
  27.5358047  46.1402435  60.9552002  27.2157593  46.3721199  59.4941101
  82.6273727  12.1145096  51.8809090  82.2443314  12.9888430  51.9519997
  83.3037033  12.0935411  52.5579414  69.6699448  61.7692719  68.9782562
  68.9153137  61.5025406  69.5032578  69.6367874  62.7258949  68.9799347
  18.3552761   7.4944453  24.1465626  18.8046551   7.7012725  24.9660225
  19.0497704   7.4867172  23.4878902  60.5308914  15.6779280  88.1785660
  61.3675461  15.3787098  87.8226089  60.6267052  16.6276760  88.2494812
  52.0183411   0.1466480   9.3118029  52.5219650   0.8718385   9.6815224
  51.6654778  -0.3128904  10.0737381  32.6646118  11.4553213  64.9610214
  32.0197296  11.5592756  64.2613449  33.2326431  10.7462177  64.6597900
  73.3011475  24.2997150  28.5201015  72.8974533  24.0920124  27.6774120
  72.8299789  23.7563877  29.1517887  58.0717621  11.6672602  27.3117714
  57.9554825  10.7201672  27.3874378  57.4813728  11.9252558  26.6038799
  15.6273298  44.7199593  49.8640823  16.0332260  45.4560394  50.3219719
  16.1383095  44.6268921  49.0600471  11.1010666  14.0443220  17.1272335
  10.2483997  13.8463564  17.5145340  11.6864262  13.3751831  17.4819717
   4.7498817  67.1038437  37.5746956   4.2485428  66.7849884  38.3251762
   5.6505151  66.8357468  37.7569504  59.9228592  64.8789062  55.3857460
  59.6806335  65.7925491  55.5368156  60.4026299  64.8921127  54.5575676
  47.5648613  10.3648243   9.4015102  48.4644089  10.1758795   9.6686172
  47.4264107  11.2774048   9.6550055  74.0702744  14.2200289  44.2276649
  74.0877151  13.2657452  44.3002663  73.5101700  14.5049667  44.9496918
  64.6115189  70.2890091  16.3951416  64.0827255  70.5553741  15.6430416
  64.1687241  69.5118790  16.7360668  12.9017887  43.8366318  29.4406319
  12.9167442  43.9025726  28.4858227  13.1453485  44.7108803  29.7449360
  86.0513077  15.4059572  71.8241196  85.3075027  14.8959694  71.5033340
  86.2844086  15.9762936  71.0915756  44.7907524  51.5616913  28.2415638
  44.7816658  50.7904625  27.6746826  45.5482903  51.4308357  28.8118668
  81.9973602  14.4310532  75.4786301  82.3231812  15.1936827  75.9566193
  81.3978348  14.7948904  74.8271561   5.6696725  46.6644135  79.9030533
   6.0905566  45.9627838  80.3998489   6.1260004  47.4596291  80.1780624
  75.3824692  34.4408836  62.5795937  75.9249268  34.1390648  61.8509865
  74.6164398  33.8672066  62.5615692  34.7294159  14.2601767   7.0321226
  34.9751015  14.2715931   6.1070595  35.0310593  15.1032457   7.3704700
  16.4713821  62.4641571  74.9395828  16.7456245  63.0826302  74.2624435
  17.2892456  62.0919952  75.2694702   7.6099534  38.9142494  52.5781097
   7.2779522  38.0923119  52.9392586   7.0027699  39.1270294  51.8693924
  74.9358978  27.9638004  38.8493958  74.1908188  28.2497158  39.3779221
  75.5541916  28.6932316  38.8926506  82.8642120   2.2057421  39.4115143
  82.7479935   2.3618214  38.4743004  83.8099899   2.2612476  39.5480957
  26.7047768  14.2283821  56.1238747  27.3051758  14.8783913  55.7588539
  26.2127934  13.9060383  55.3687057  57.4784927  70.3559723  62.8871346
  58.0912781  70.6404953  62.2090721  56.6132736  70.5031433  62.5050812
  52.2541618  40.4213715  48.7403564  52.7811470  40.5485611  47.9514694
  51.4362068  40.8843689  48.5592155  57.3272285  21.7925072  34.5013542
  57.3742943  22.3763161  35.2584419  56.8408203  22.2907639  33.8445587
  29.1470680   4.2013426  62.9733734  28.9924850   5.1433787  63.0433998
  30.0106144   4.0705614  63.3650551  45.1288757   9.4554214   5.1403670
  44.4881477   8.7586393   5.2824750  45.1419182   9.9407053   5.9653282
  79.1356812  52.9364243   5.5097351  79.8508148  52.3942299   5.8426666
  78.5558319  52.3199158   5.0626159   3.8910453  37.9815063  68.0311737
   4.5360832  37.3897438  67.6439056   3.6075802  38.5357780  67.3040848
  15.1065989  67.4943390  27.3717613  14.4698763  67.9127502  26.7923222
  14.6683960  66.6990738  27.6746922  23.4857368  12.5909548  62.0688438
  24.1369724  11.9542742  62.3633957  23.0541744  12.8813553  62.8723679
  18.0421085  45.8307495  87.4205475  18.2755222  45.2595711  88.1523285
  18.7339096  46.4920578  87.4027710  51.6600151  69.8862000  24.4305668
  52.2447662  69.7135773  25.1684685  51.8198318  69.1631088  23.8240738
   6.9954233  18.1242771  49.8342857   6.5594707  17.2721958  49.8459663
   7.2593684  18.2707462  50.7426414  53.7073936  64.8501282  20.3919544
  53.8024521  63.9631042  20.0449924  53.8552704  64.7563400  21.3330002
  23.3613167  61.4569283  24.6820812  22.6684265  61.4564857  25.3424873
  23.4877129  62.3813210  24.4681664  48.8833160  58.0455971  16.7976627
  48.8066711  58.9076729  17.2065487  48.2094269  58.0421638  16.1178856
  22.1436329  42.1226501  81.3948364  21.5559731  41.4734802  81.7814407
  22.9874535  41.6750374  81.3328629  78.9038544  26.8525257  55.3641548
  79.4398041  26.4558945  56.0509377  78.7464371  26.1417332  54.7426834
  47.6394043  24.8379745   8.1584263  47.4180107  25.6687241   7.7376266
  46.8270226  24.5597153   8.5813150  27.2627907  55.4517097  26.5733242
  26.6159096  56.1545563  26.5118351  27.4486885  55.3785133  27.5094433
  28.8617153   0.8118974  83.4342117  28.6314964   0.5210024  82.5518265
  29.7936573   0.6099373  83.5174637   9.4719524   0.9110149   4.2006688
   9.4878349   1.8225716   3.9090459   9.9763775   0.9109756   5.0141721
  36.1717644  45.2188873   9.7877913  35.8561935  46.1214027   9.7417622
  35.6321411  44.8107147  10.4648676  70.5316086   5.8401442  50.9010391
  71.4322586   6.0765500  50.6792946  70.4716034   4.9070015  50.6964035
  37.5620003  51.7882614  40.2921257  37.3965721  51.3187752  41.1097107
  37.7136269  52.6938934  40.5624390  45.8829918  23.7927361  33.8267784
  45.8903313  24.6587200  34.2345123  46.6664009  23.7802505  33.2769203
  78.3273926  26.2849236  20.5038204  78.5413895  26.0423527  21.4047050
  77.6235199  26.9279041  20.5896645  85.0383759   6.4761596  56.4173698
  85.9298248   6.1329918  56.3557854  85.0035400   6.8998241  57.2749977
  71.9150085  10.6699018  23.9723148  72.4574203  10.3630238  24.6988449
  72.5373764  11.0518713  23.3534527  84.1136246   4.9827099  26.7914658
  84.1212540   5.8795371  26.4569893  84.0958405   5.0822225  27.7433128
  37.1491241  22.9224281   9.3531628  37.5396156  23.6781940   8.9143429
  37.6712112  22.8106060  10.1476135  57.0583839  47.8863297  56.1013145
  57.3869514  47.0268707  55.8374901  57.1175385  48.4191246  55.3083076
   4.0111384  62.8132668  66.6723480   3.6010377  63.5460510  66.2129135
   4.3948169  63.2065506  67.4561462  59.2234383  50.8956261  45.4914131
  58.9256897  50.2382545  46.1202545  58.4699020  51.0376205  44.9184799
   2.6659217  23.7969990  40.6038322   2.2326851  24.4758949  40.0864944
   3.3096752  23.4153442  40.0070457  52.2605133   6.0579371   3.1060624
  51.7419777   5.5913620   2.4505775  52.8557129   5.3953123   3.4566319
  12.8037949   1.3854815  52.9212494  13.0782585   0.4704871  52.8605309
  11.9634619   1.3536311  53.3784752   7.5457931  29.1566505  28.8165913
   7.6193633  30.0482960  29.1568661   7.5075855  28.6046162  29.5976353
  17.0843925  47.5057526   4.4951563  16.2179184  47.1884880   4.2406030
  17.6392574  47.3209801   3.7373860  58.7393303  15.0553780   7.5274472
  57.9023819  15.2738342   7.1175380  58.5702057  15.1214447   8.4672680
  64.7819366  62.6124878  47.8642082  64.7142105  63.3047447  48.5217972
  63.9055367  62.2292061  47.8287964  40.1170158  56.4213142  35.8787727
  40.4216042  57.2889099  36.1447258  40.2452240  56.4027748  34.9303780
  77.9245605  50.6298714  86.1285782  77.9847107  51.5845604  86.1629257
  77.7559509  50.3677902  87.0336304  65.4210205  49.7873154  77.0994644
  65.7729950  48.8975868  77.0724411  66.0569458  50.3113518  76.6124115
  46.8137398  68.9305191   9.7444859  47.5321045  68.7697678   9.1326475
  46.5626488  69.8403854   9.5853338  24.0392628   0.1102709  76.8411484
  23.7408619   0.4086363  75.9819794  24.9631462   0.3585384  76.8733292
  35.8703918  48.1909866  61.4808960  35.7925110  49.1325989  61.3274956
  35.1033440  47.8138733  61.0500221  15.9200792  48.2648888  25.1296005
  16.5152168  48.7706680  25.6829796  15.3823271  48.9242096  24.6910267
  84.2101440  41.1324463  38.7229996  84.4572830  40.3908691  38.1705360
  83.2676163  41.2289658  38.5867805  45.9164772  61.3984795  57.6094894
  46.0421219  60.7259750  56.9400291  45.7414169  62.1990623  57.1148682
   2.4545701   8.6676035  21.4591637   2.8045352   7.7766819  21.4551945
   1.6356672   8.6054478  20.9674664  19.8047104  12.9785252  12.0136452
  18.9343071  13.3523893  11.8763256  20.3893070  13.7360096  12.0400248
  64.1102753  56.6949654  89.0926514  64.4536819  56.3411179  88.2722244
  64.6721649  56.3181458  89.7697983  10.4272223  68.8695221  59.1992760
  10.2860279  69.6898499  59.6718788   9.8849030  68.2304077  59.6615067
  36.7381821  41.0887756  81.4673462  37.5538940  41.4471436  81.1174622
  36.2374496  41.8569374  81.7419815  66.8917770  43.6832161  65.2086105
  67.2446213  44.5390968  65.4519272  67.6648712  43.1444206  65.0405197
   1.5662259  51.9304199  52.3755760   1.2456735  51.5517464  51.5569916
   1.2699941  51.3223991  53.0529175  79.8678513   9.9526873   9.3351994
  80.0549316  10.4869747  10.1070614  79.1090164  10.3733416   8.9309158
  70.6102448  70.5715179  20.1042156  71.4247589  70.2911606  19.6868420
  70.8223114  70.6174774  21.0364952   4.4999142  57.9390182   1.0682821
   5.2694349  57.7885094   1.6172957   4.3872414  58.8895645   1.0692110
  27.4991188  55.8184090  40.9961281  27.5829659  56.5701256  40.4095039
  28.3492794  55.7586594  41.4318886   4.5235534   8.0500937   2.0445125
   4.6767063   8.5710707   1.2562495   5.3498864   8.0949421   2.5255463
  67.0583649  39.0991402  45.9799805  66.8314133  39.7699738  46.6239548
  67.7444611  38.5831108  46.4033241  62.5549011  61.5295067  20.3458328
  63.1615753  61.1005173  19.7423820  61.7506714  61.0141716  20.2835712
  32.4772148  23.1117325  85.4795303  31.5299702  23.0149002  85.3816452
  32.6446609  24.0345764  85.2883453  31.4316826  69.6993179   0.5936339
  31.0984745  70.2386856   1.3107711  31.3191566  70.2422104  -0.1866504
  79.0906296  37.9285774  63.3462524  79.6082764  37.6611900  64.1057129
  78.3015671  37.3886642  63.3921127  77.0774384  58.5905113  25.2814102
  76.5934448  58.0474663  24.6592484  77.9980698  58.4128723  25.0887718
  75.2307434  57.9408188  37.1532211  75.6762085  57.0945892  37.1121483
  75.7813339  58.4737320  37.7268829  79.7778625  65.2553940  18.6761837
  78.8679352  65.5390549  18.7644958  79.9189301  65.1938324  17.7314396
  59.2476883  39.1892548   3.2515554  59.0207863  39.0240479   4.1666803
  60.2047653  39.1996460   3.2402110   8.0955353  23.0168858  89.0589752
   8.9364758  23.1740990  88.6296310   7.6918335  22.3168697  88.5459137
  39.1896210  53.9260254  71.3561554  38.3394852  54.0930023  70.9491959
  39.8054657  53.9034004  70.6237259  79.1752014  57.4182663  67.2635117
  79.0105820  57.1250420  66.3673248  78.7523346  58.2753525  67.3165741
   8.4658966  33.2251053  85.2821350   7.7265811  32.7623062  84.8878479
   9.1618109  33.1664619  84.6275406  59.7598419  36.5676117  80.4610825
  59.5751648  36.5387840  79.5223083  58.9158630  36.3910904  80.8767395
  30.1387253  56.8083611  86.6179276  31.0174351  56.6005707  86.3002396
  29.8583412  57.5486755  86.0798264  49.1854897  60.0882568  24.1945229
  49.7932663  60.0991402  24.9339314  49.3163376  60.9333382  23.7644711
   2.8896935  17.7767200   6.5826068   3.0995471  16.8432713   6.5531545
   2.4408488  17.8950062   7.4197321  62.7449379  26.3728676  23.5837460
  63.4006081  27.0158787  23.3138142  62.0407143  26.4650249  22.9420204
  19.5103741  70.5796738  41.8083916  19.0284233  71.0850449  41.1537552
  20.3097954  71.0840073  41.9594040  54.7939911   9.0270672  22.1110020
  54.5685272   8.2309875  22.5923080  55.5091743   8.7626553  21.5323563
  28.9923744  31.4476795  70.8853836  28.9382553  32.3502007  70.5711288
  28.0806541  31.1733093  70.9839630  56.2606125  55.0066490  71.3689194
  55.8909111  54.5643120  70.6047897  55.5788956  55.6197586  71.6438522
  71.7118530  20.9932880   3.1769514  71.2727051  20.2251320   2.8118196
  72.6451111  20.7957439   3.0979891  84.4639893  26.2518158  73.7933502
  85.3732071  26.1284523  74.0660095  84.0604019  26.7327023  74.5159149
  79.7824936  60.1854210  52.9136543  79.9503632  61.1178169  52.7769318
  78.9656982  60.1596794  53.4120712  57.0528946  21.4388828  82.6033249
  57.3193092  20.6431026  82.1429062  57.2733459  21.2707081  83.5194855
   5.0824223  49.1312065  42.4829140   5.7566471  49.3740044  43.1175003
   5.3478556  49.5668068  41.6729584  10.3868990  65.0032959  40.3655624
   9.7040911  64.6695175  39.7836723  11.2070847  64.7753143  39.9278946
   7.0001001   8.0656090  75.5912552   7.4889522   8.7738771  76.0103149
   7.1120052   8.2197027  74.6531906   8.2449131  52.6335640  10.7559938
   8.9026737  53.3148918  10.8951740   7.4606252  53.1098862  10.4835262
   7.7391090  25.6883392  29.2596760   7.4123764  24.8373203  29.5516453
   7.2276802  26.3252792  29.7586555  58.9635506  35.0329361  29.9145622
  59.8615150  34.7727585  29.7091331  58.7779961  34.6112251  30.7535877
  73.3907089  24.6857777  17.7663116  73.6292648  25.0776024  16.9261951
  74.2131958  24.6463280  18.2543545  21.0121536  28.6776695   5.6438594
  21.9405155  28.4483948   5.6013565  20.6880054  28.5297928   4.7554379
  43.6135979  45.4138489  35.6360016  43.4737244  46.1829758  35.0836334
  43.3756447  44.6725655  35.0791321  85.8919830  31.4529839  81.6789093
  85.8408813  31.9435024  80.8585434  86.5470581  30.7752228  81.5123138
   1.7654746  24.1982498   5.6403193   2.6427650  24.5317421   5.4522338
   1.9046115  23.2839108   5.8870120  21.4971657  44.0923233  83.5416489
  21.9649258  43.6621628  82.8258286  20.7901478  43.4865646  83.7639389
  51.2428703  53.4752502  78.0757065  51.8095512  53.1244011  78.7627335
  50.5129967  53.8753815  78.5483704  57.5521355  67.1050644  55.7919617
  56.9258156  66.9211197  56.4920464  57.3719521  68.0111313  55.5413475
  79.7856979  20.4887295  43.1752815  79.2501373  20.5392952  42.3835449
  79.8145142  19.5553970  43.3857422  54.8557053  32.7727356  57.7651787
  54.4720154  31.8961926  57.7913513  55.7885895  32.6307259  57.9258003
  71.2046280  55.8906708  63.5974121  70.5048599  55.4972382  64.1187286
  72.0107956  55.5349617  63.9713058  51.3446770  42.1782875  61.8364639
  51.2035446  41.5119286  62.5089836  51.5229454  41.6797600  61.0390167
  71.0724792   5.5093174  23.4331799  71.1787491   4.8388882  22.7582989
  71.7768326   5.3346047  24.0573559  85.1578445  24.4843864  77.0468140
  85.1476440  24.5612621  78.0008621  84.5467148  23.7724476  76.8573456
  23.8728695  59.7994041  48.4376068  24.7402000  59.4331894  48.2648239
  23.3168144  59.0357094  48.5918770  12.3810501  13.2121239  69.7978897
  11.9644918  13.4701147  68.9756012  12.8047190  14.0106735  70.1126175
  72.0357056  34.7925186  74.9730301  72.2348251  34.4501877  75.8444672
  72.4764557  35.6416740  74.9428177  56.3596497  69.9201355  35.5207291
  57.2210426  69.7294006  35.8920135  55.7811813  69.2629929  35.9077301
  16.7002220  67.4894485  58.5972366  16.4738407  67.7802963  59.4806366
  17.3601513  66.8090973  58.7308273   7.2902937  27.4881325   0.8558349
   8.0058460  26.8729649   1.0164163   6.5911179  27.2008324   1.4430690
  24.9128971  41.3813324  74.9969254  24.5939465  41.9932404  74.3335419
  24.8182716  40.5189285  74.5925217  10.9320536  58.4572144  53.1153564
  10.3218012  57.8174248  53.4820900  10.8963928  59.1970825  53.7216187
  83.3970032  56.7968674  65.0355911  83.5858841  57.7280617  64.9197159
  83.7149124  56.3861275  64.2315674  84.4918594  67.4584732  21.0331707
  85.1134186  66.8598557  20.6189880  83.6618729  67.2876816  20.5879860
  25.6167011  19.9285069  60.0729218  24.9688225  20.3029461  59.4760284
  25.7476006  20.6038055  60.7385559  28.6139736  44.5959473  15.0114679
  28.9997883  44.0744820  14.3075838  27.6859684  44.6553459  14.7845087
  11.9004889   2.6774032  21.2756596  12.4637480   3.0672190  20.6070690
  12.4692183   2.0627551  21.7393265  42.8392220  31.7160339  15.7092361
  43.7058716  32.0878677  15.5452652  42.8620834  31.4517574  16.6289482
  26.6058006  59.8501358  54.6701775  26.3291245  59.5233078  53.8141022
  26.3746605  59.1495934  55.2801323  56.1316948  24.9989605  30.4280319
  55.8952637  24.1795387  30.8626366  55.3655472  25.5610313  30.5434723
  39.1407814  30.5366631  84.0550003  39.2367706  29.5850296  84.0174255
  38.1948967  30.6811504  84.0806961  25.7840023   7.8480105  63.3375359
  25.8588810   8.6237669  62.7818146  24.8416481   7.7263622  63.4532928
   8.0440493  40.2069778  42.9735489   8.7791805  40.1052589  43.5780869
   7.2665939  40.1226959  43.5255394  62.6987801   9.7973785  29.1948795
  62.5287209   9.1800232  28.4834137  62.5141411   9.3008327  29.9921131
  27.9358807  16.5644855   8.8970861  28.4381218  17.1322536   9.4815741
  28.4502163  15.7588663   8.8454561   2.9660950  41.3771095  82.6415176
   3.4375956  40.6731300  83.0868683   2.1356049  40.9802971  82.3787308
  16.3341217  60.6110687  20.7839279  15.6320305  60.9390526  21.3458252
  16.9443989  60.1860504  21.3865471  32.0858841  25.9026566  64.9202118
  32.9001350  25.5037727  64.6134262  31.7416573  25.2812786  65.5617981
  52.5259247   4.3337302  43.0593109  53.0777626   4.2968812  43.8405609
  52.5021896   5.2618580  42.8264008  31.9254608  24.2823601  10.2871962
  31.6528015  23.7790623  11.0543871  31.2513103  24.9548912  10.1899681
  51.0300102  30.1328011   6.3826046  51.2966042  29.2136230   6.3989892
  51.3538895  30.4612064   5.5438657  38.6366882  35.9905663   1.1740483
  38.5643311  36.7814865   1.7083141  39.5198250  35.6645088   1.3472300
  40.5705452   9.5912647  60.9439316  39.9481049   9.7442074  61.6548538
  40.5392914   8.6458521  60.7974739  77.7195740  34.0427818  87.2327423
  77.4853134  33.3217010  86.6484528  77.6683807  33.6656723  88.1110382
  11.3015003  16.0896339  60.6002464  10.4612827  15.7911711  60.9483643
  11.9544744  15.6885548  61.1738243  45.7199364  59.9981346  63.6830444
  46.1158752  60.3213539  64.4923630  45.5034447  59.0847664  63.8704529
  50.5128059  29.7671051  65.6403046  50.2809868  30.6932163  65.7096481
  50.8392982  29.6682491  64.7459488  70.6635742   7.5710354  58.8628387
  70.8053818   6.6246910  58.8863907  69.7640381   7.6861253  59.1691551
   1.4813582  59.5986595  20.2797947   1.9817650  59.3633194  19.4984894
   1.3197818  58.7646866  20.7209473  54.7497215   8.4212217  18.9846134
  54.7183037   7.9658995  18.1432304  55.3702698   7.9143052  19.5082436
  54.8556099  58.1793823   2.8844485  54.5230293  57.3294830   2.5958424
  55.7601280  58.0065079   3.1455762  16.4867668  59.3363495  78.2744827
  16.2825260  60.2710342  78.2447662  15.8437452  58.9698563  78.8814774
  58.1862831  51.7342339   0.3540114  58.7382889  50.9756279   0.1641850
  57.6299057  51.4501190   1.0792412  14.8819618  67.5343018   4.8941169
  14.0719643  67.7248688   4.4210186  15.2045221  68.3916702   5.1717992
   2.5471222  60.3815498  66.8705978   2.9809651  61.2196312  67.0306931
   2.2026629  60.1230125  67.7254257  61.9202042  19.9171581  87.1872177
  60.9877129  19.7407227  87.3119659  62.1521797  20.5010815  87.9093399
   6.4895825   7.9250598  25.0078144   6.4835548   8.4949875  25.7768250
   6.7566223   7.0701022  25.3454075  42.4590836  20.5520115  61.6253014
  42.9807167  20.7479248  60.8470001  41.5545197  20.5468254  61.3123055
   0.1441686  57.7817726  38.9545364   0.4129932  57.4673882  38.0913315
   0.8551632  58.3599625  39.2309723  26.4601364  30.7536755  71.2383347
  25.8379402  31.1076164  71.8738174  26.0305481  29.9711971  70.8927765
   0.3485723  65.0876999  65.5639038   0.7637830  65.8332520  65.1303329
   0.5877544  65.1831131  66.4858093  53.2650223  59.6959610  63.6494904
  54.0620270  59.2617378  63.9535713  52.6795425  58.9788780  63.4061089
  60.5109100   9.2388268  79.6149139  61.0680237   9.2585106  78.8367920
  60.7374229   8.4173651  80.0509415   3.0702736  61.4504051  73.6488724
   2.5545597  61.5140991  72.8449936   3.8609462  61.9583588  73.4670639
  50.6851845  69.3050690  47.3676262  50.0593414  70.0018921  47.1701622
  51.1972237  69.6440201  48.1019020  76.2447662  30.8957310  71.5061722
  76.5635681  30.0620899  71.8520584  76.8538742  31.1105747  70.7997360
  13.1280775  47.3442230  80.3436813  13.5090265  48.1261444  79.9440460
  13.1620684  46.6817627  79.6535950  39.0689354  45.5422630  37.9998055
  38.3400993  45.0259933  38.3440399  39.0374565  45.3999863  37.0537643
  56.9741096  40.0065651  76.1487808  57.1297188  40.0550003  75.2055588
  56.4618912  39.2065239  76.2662582  71.8042374  70.6924591  70.5902252
  71.3665237  70.6514206  71.4404984  71.9047623  71.6285706  70.4175339
  23.2055740   6.2829361  11.6318169  22.6735287   6.4777193  10.8603115
  23.2892723   5.3294034  11.6305161  28.1343727  55.7515450  10.4065876
  27.7311039  56.4459648  10.9275331  28.5570374  56.2111244   9.6810722
  70.4997482  40.8395004  19.2267303  71.3415527  41.1022186  18.8544674
  69.8718109  41.4638367  18.8632298  83.1868439  29.2581959  10.3815632
  83.8838577  29.1681900  11.0314188  82.6252441  28.4965706  10.5256433
  13.5510302  45.8778954  15.1913357  13.6291790  44.9249344  15.1467457
  13.4117985  46.0636024  16.1199684  73.3828659  56.2146721  77.6432571
  74.1977158  56.4459763  78.0890656  73.2465286  56.9209595  77.0117493
  47.4547844   3.7831969  26.9893532  47.4997597   3.0669565  26.3559437
  47.7562447   4.5512834  26.5041790  11.5091190  53.7948875  35.7095108
  11.4056044  53.2456894  34.9324036  12.0682554  54.5160103  35.4204178
  33.3889046  47.9350510  86.0879745  32.9125595  48.6939240  86.4247818
  34.0963974  48.3098602  85.5633774  79.4520493  42.5825882   4.3930302
  78.5021820  42.5239334   4.2903605  79.6024017  42.4248276   5.3250909
  49.8996048  36.1275749  29.3649883  49.3696594  36.8402138  29.0078621
  50.6972198  36.5552139  29.6767025  57.3133202  71.3666840  79.6775131
  58.1734428  70.9549255  79.7604294  57.2326393  71.9124527  80.4597244
  71.7416153  48.8755112  86.2180023  71.7387314  49.7680206  85.8721008
  71.2412415  48.9324989  87.0320129  55.0869064  30.0435925  52.3788795
  54.7332916  30.8435936  52.7677078  55.5975800  30.3474674  51.6284790
  48.9233284  26.7439384  87.0995865  49.6590195  27.3368301  86.9463806
  49.1986885  25.9146214  86.7088852  50.6572876  24.8973751   4.8614712
  50.2640495  25.7626743   4.7481027  51.5902328  25.0725403   4.9846148
  76.3776550  70.1620483  17.4023762  75.5952835  70.5068741  16.9720001
  76.9598770  70.9176254  17.4820442  86.4296799   6.3206382  64.7155533
  86.8859177   6.9761653  64.1879501  86.5400009   6.6203775  65.6178970
  69.0703812  71.8081589  58.5914764  68.6218338  70.9944305  58.8214455
  69.6064377  71.5797958  57.8320541   6.2989302   6.2623944  56.4064255
   7.1544781   6.4887629  56.7711525   6.3461823   5.3188109  56.2526398
  48.3153076  43.6635361   9.4817619  48.1269531  43.7966080   8.5527592
  49.0459480  43.0452385   9.4918394  85.5109634  42.5253181  71.7172394
  84.5880966  42.6343765  71.9467010  85.7405472  43.3329544  71.2576218
  37.0877762  38.6493950   2.2092307  36.8336487  38.4437790   3.1088824
  38.0171051  38.8711548   2.2675915  14.3819551  56.5280914  54.6552162
  13.5236549  56.5204353  55.0788841  14.9417858  57.0185623  55.2570992
  13.2577267   1.1798078   1.3940997  12.6358299   1.9003129   1.4958276
  13.0902205   0.6109452   2.1454778  35.8766785  46.0709114  18.1995564
  35.5182266  46.4274406  19.0123482  35.4235268  45.2357292  18.0839977
  65.8968582  21.5567780  38.7616577  65.7170639  20.6463356  38.9961777
  66.3294067  21.5036411  37.9094200  43.2761383  69.3302078  54.9002609
  42.4579201  69.1102142  54.4548874  43.2908401  68.7605743  55.6693726
  15.9354496  40.2587509  51.1523018  16.5890846  39.8246574  51.7005310
  15.5089626  40.8843384  51.7379456   2.2560720  64.1301880  23.9666500
   3.0784490  64.5933075  23.8071232   2.2195609  63.4636688  23.2806072
  39.3519783  36.9826851  84.3427124  39.8005180  37.0699654  85.1837997
  40.0032768  36.5863914  83.7639236  10.4118547  69.7248917  23.0334339
  10.7320366  70.5976334  23.2615490  11.2000837  69.2334061  22.8024101
  82.4675140  23.9654293  79.2549057  83.3726807  23.6551552  79.2802277
  81.9476547  23.2101631  79.5297623  26.7393990  63.6163864  59.3663712
  26.0314999  63.2950974  59.9248352  27.4954224  63.6788597  59.9501152
  28.9904232  12.8446894  11.1731062  28.2732239  12.3623209  11.5844173
  29.1262493  13.6027393  11.7415638  54.7368660  68.9701004   8.3556700
  55.1537056  69.5710297   8.9732132  53.9383812  68.6855545   8.8002901
  39.2629242  58.1516495  43.7765312  39.8423157  57.9303818  44.5056229
  39.5675468  57.6032257  43.0535698  29.7107258  59.5559921  34.6086349
  28.7831478  59.7894402  34.6451797  29.9631252  59.4335442  35.5238037
  63.9529610   7.8252153  70.7304382  63.3154793   8.5315142  70.6256180
  64.6483154   8.0357323  70.1072235   8.0766735   9.3336372  86.1574402
   7.5557265   9.9911137  85.6963882   8.6191721   9.8392115  86.7626877
   1.5151651  11.5586548  14.2999430   2.4041111  11.6276960  14.6481380
   1.0139818  11.1454000  15.0029840   7.2118173  31.3895569  11.6452713
   7.8334970  31.9852867  12.0634241   6.3550553  31.7835541  11.8094568
  61.2032356  16.5351658   6.8565292  60.3915863  16.1776829   7.2166219
  61.3458900  16.0400333   6.0498543  61.2815056  52.6650124   1.1791837
  61.5180588  53.1424942   0.3840207  60.9714661  53.3413544   1.7814028
  71.4714966  52.9982071  65.3904114  71.5878677  53.3495750  66.2731476
  70.7872314  53.5443802  65.0035019  28.1154175  55.9375916  35.5209579
  28.5687504  56.2969208  36.2835846  28.7418747  55.3241005  35.1370125
  13.7712736  35.9261360  65.5300827  13.3632364  35.7831001  66.3840637
  14.6549263  35.5704346  65.6242599  65.0689392  66.7416382  79.3307190
  64.1274338  66.6620026  79.1775818  65.2978821  65.9567032  79.8284149
  11.5937891  47.9964104  70.0088272  12.4361067  48.4200287  69.8436661
  11.5052671  47.3560104  69.3029327   2.0238917  23.8266850  58.7485886
   2.3276834  24.0587482  57.8710403   1.5069095  24.5813522  59.0304375
  59.5423431  58.9857063  31.1607113  59.7987595  59.2590942  30.2799473
  59.1982079  59.7808342  31.5676250  66.7602386  14.6468811  37.7493744
  67.0802460  15.5488625  37.7654686  67.5522079  14.1128349  37.6876450
  79.3938065  25.9574223   7.0625167  79.2184906  26.0267982   6.1240692
  80.3470840  26.0083504   7.1324916  24.6080723  53.2208633  26.6814404
  24.3561268  53.1135826  25.7642460  23.8674145  53.6764526  27.0815620
  60.0839806  66.4875336  46.6495705  60.0807953  66.0799026  45.7835121
  60.2578430  67.4130478  46.4780312  70.8987503  50.4853516  11.1366348
  71.6835709  50.9539948  10.8526278  70.2898102  51.1753998  11.3998070
  68.9742508  38.6137695   1.4677773  68.0923767  38.3065872   1.6779354
  68.9120178  38.9197044   0.5629228   3.8681221  49.2756119  68.5342865
   3.1511481  49.8330765  68.8366318   3.5834370  48.3856201  68.7418900
  29.8357906  61.3109894  48.0456657  29.6694031  62.1225891  47.5662346
  29.0465298  60.7866478  47.9101448  51.2950287  14.1219330   3.2198739
  52.2346573  14.0887413   3.3993835  51.0169220  13.2060709   3.2291024
  36.9177055   5.6559424  63.9301262  36.5928841   5.0778651  63.2397995
  36.3393173   5.4888673  64.6742935  37.4873314  70.8375015  84.9093399
  37.6544876  70.7386932  85.8466415  36.6480560  71.2954025  84.8626938
   4.2003932  19.7865524  21.8784199   4.5358768  20.5708408  21.4441662
   4.7112679  19.0686455  21.5044556  49.0277672  53.2417145  19.5160465
  49.5898628  53.6647072  18.8669224  48.1382942  53.4783096  19.2531853
   8.1751509  33.0494423  88.1613770   7.3818150  32.5215492  88.2518082
   8.3006001  33.1332893  87.2161484  67.4819794  60.0305862  78.7428818
  67.1792068  59.1342468  78.8882523  66.6786194  60.5428276  78.6509705
  25.0399837  57.2099724  87.3395691  24.2920113  57.7774239  87.5260315
  25.7823620  57.8094292  87.2637024  53.2811356  57.9552841  16.1137047
  53.0469017  58.8833199  16.1030159  52.8088760  57.5804863  15.3702450
  85.1603317  69.9250183  31.4318085  85.5032120  70.7776566  31.6995163
  84.2909698  70.1162491  31.0798512  71.2066727  61.5543518  53.8239136
  70.8269501  62.0516739  54.5482864  70.5809784  60.8477020  53.6645813
  82.7605972  18.0043716  67.3260345  82.7874832  17.3142052  66.6633301
  82.1712112  18.6642761  66.9608154   6.6358204   2.6256406  83.1319046
   6.8804564   3.5268884  83.3419952   6.8529019   2.1284947  83.9205475
  59.9360809  39.8461266  70.8642578  59.1327095  39.3341560  70.9575958
  60.6392326  39.1979065  70.9045334  65.1166840  70.4544830  77.8996506
  65.6794205  70.0000839  78.5266037  65.5862885  70.3929062  77.0678406
  81.5257111   5.7727494  77.5291595  82.2675476   5.8044682  78.1332321
  81.5838623   6.5906281  77.0352707  69.5761948  19.4104347  84.1728897
  70.1862869  18.9401627  84.7411041  68.7979813  19.5425491  84.7143250
  82.9378357  28.3601208  47.0696907  83.3159027  29.1879063  47.3664513
  83.6887131  27.7740078  46.9754372  23.3371773  58.2713051  19.9569244
  23.0292091  58.8114853  20.6846561  24.2496796  58.5328941  19.8338776
  26.9837151  28.1585827  80.5027466  27.1819420  29.0086899  80.1099930
  27.7398281  27.6128025  80.2867584   9.0602255  61.5138474   4.9844408
   9.1253157  61.7987709   4.0729513   9.5421524  60.6872749   5.0119987
  83.5887756   0.5324787   6.8500419  83.7434082   0.4259584   5.9114389
  84.2661667   1.1451763   7.1363606  47.3561707   7.5075908  32.4510765
  47.1771278   6.9298425  31.7091999  46.8064575   8.2754564  32.2947845
  51.7420807  69.0556793  83.0290527  52.3371735  68.9412537  82.2881088
  52.1281624  69.7681503  83.5385208  22.7364750  66.6567688  34.6416512
  21.9250774  66.5310974  35.1336632  23.0443077  67.5240555  34.9048691
  68.2056885  61.3197784  33.9739838  67.6230392  60.5828552  33.7904205
  67.8349304  62.0481415  33.4757271  77.2592239  10.7183170  28.2635593
  77.1853943  11.5028782  28.8069229  77.0417862   9.9968367  28.8538284
  69.6503601  62.5020676  10.5365620  70.5481415  62.6238594  10.8453913
  69.7075882  62.6062012   9.5867662  44.2560539  50.7290535  19.8811283
  44.3110313  50.0165977  20.5180073  43.6625214  50.4011269  19.2055435
   8.0528069  48.6938820  29.5178566   7.8423786  47.7759018  29.3467731
   8.9590111  48.6785164  29.8257370  21.2520370  64.9616394  26.5220318
  21.4598885  65.6147614  27.1902103  20.5336933  65.3500671  26.0226974
  19.5340080  42.6089439  76.0957794  20.4460144  42.3510017  75.9618378
  19.5839691  43.3835678  76.6558609  29.1502399  43.8156052   4.9416585
  28.7147942  42.9704361   4.8307004  29.0608845  44.2446251   4.0906653
   8.7021809  32.7969055  13.4727049   8.1307802  33.5291748  13.7040386
   9.2608738  32.6771736  14.2406616  49.3913536  17.6767197  11.9979610
  50.1472473  17.0905437  11.9625244  49.7514992  18.5435772  11.8106546
   0.8981577  55.8591957  60.7413101   0.6281751  55.0896873  61.2425041
   1.8414452  55.9234619  60.8906746  43.2676582  34.7121925  73.0167847
  43.3037720  34.5739250  73.9632568  43.3641815  35.6584053  72.9091034
  84.6677246  47.5846405  78.4738007  84.5638885  48.3118935  77.8601608
  84.4878082  46.8029671  77.9514465  24.8149796  43.6912308  80.9662018
  24.4627571  44.1753540  80.2193451  24.7600155  44.3061562  81.6976929
  40.5740089  39.9689217  63.9384651  41.4581680  40.2169533  64.2086029
  40.3602333  40.5771980  63.2309799  61.6700592  32.6736679   4.3017249
  60.9038658  33.0394669   4.7437277  62.1485252  32.2148056   4.9921947
  72.2301788  45.1565628  65.3266068  72.4048233  44.2687759  65.0142593
  71.4427261  45.4262047  64.8539047  38.0423355  30.5105228   0.6883920
  38.1115570  31.2557507   0.0916695  38.8642387  30.0337811   0.5725492
  43.3731728  58.5252571  54.0388832  44.0897369  59.1572990  54.0962486
  43.4465904  58.0065804  54.8400192  76.8395157  16.1055508  59.7749443
  77.4683456  16.5850391  59.2355957  77.0433502  15.1835670  59.6180115
   7.9556055  20.0524139  69.7151489   7.2617207  20.4368000  70.2508774
   7.8526125  19.1079102  69.8314972  17.7864799  50.4379692  50.9495544
  17.6624870  49.6650543  51.5004272  16.9707260  50.9303856  51.0406609
   1.0639720  50.5687943  83.8133850   0.6900758  50.7098541  84.6831741
   0.8047759  51.3424721  83.3129120  45.4917908  46.9876060  83.7434311
  45.7328758  47.9032593  83.8837509  44.5776291  47.0211029  83.4616241
   7.7902722  18.7070198  17.0307541   8.2984686  18.9463959  16.2557259
   8.4325104  18.3273239  17.6304131  54.4651375  38.2308197  69.8820801
  54.2498894  38.6726303  70.7034836  53.6482048  38.2411652  69.3833313
  15.9602528  47.6607399  41.3751221  16.1413956  48.4872169  41.8227310
  15.7786503  47.9134026  40.4699059  75.0723572  70.5428772  52.1950493
  75.0504532  69.9059219  51.4808807  74.3652344  70.2711029  52.7801476
  30.6169281  56.6362457   4.7755351  29.8295956  56.1102486   4.9157720
  31.3404903  56.0423660   4.9755239  53.3628769  65.2541428  45.2985153
  52.8790398  64.4284668  45.3183250  52.8872681  65.7953873  44.6683693
  33.8453865  62.7472305  49.1229744  34.2645073  62.2384071  48.4289551
  33.0331230  62.2759399  49.3083115  24.9813843  57.4009514  29.7838974
  24.7496319  58.0237656  30.4728298  25.9322262  57.3131332  29.8503723
  49.6942787  24.3100739  85.9940948  48.7465477  24.1895657  86.0533524
  49.9401016  23.8771954  85.1765213  55.6467743  28.8269291  23.9939137
  55.1787834  28.6333008  23.1816788  56.3162804  29.4617920  23.7390747
  22.8105335  25.1656017  73.7511368  22.8957291  25.5810719  72.8930283
  23.0572605  24.2530212  73.6009598  71.8443069  24.2816734  61.5144348
  70.9102325  24.4898319  61.5345802  72.1800079  24.7600822  60.7563705
  63.2082291  42.7730865  38.8183975  63.0485649  43.3849106  39.5370178
  62.3386383  42.4524651  38.5791359  58.6816216  24.7251568  16.0640888
  58.1598396  25.5254765  16.1229172  59.0451431  24.7407780  15.1787395
  27.8013840  50.9225121  49.4343758  28.2370453  50.0723343  49.3741302
  26.9846992  50.8081093  48.9484024  84.4445114  36.2620621  84.7124481
  84.2727966  37.0551262  85.2201843  84.7844696  35.6367989  85.3525314
  12.9101019  19.6907310  22.1951561  13.0804482  20.0604668  21.3288364
  13.7794142  19.5277920  22.5611877  28.5017967   6.6052160  23.5684433
  28.9513474   6.2116876  24.3162861  27.6137524   6.7728205  23.8839073
  79.3929291  66.8780518  35.7812462  78.4514771  67.0359421  35.8517570
  79.7957230  67.6514893  36.1759377  64.3126984  51.3993607  83.5188065
  64.1679764  50.6320801  84.0724945  65.0371933  51.1480980  82.9459152
  52.3580246  57.0834999   4.0586152  52.3051186  57.8811226   3.5320907
  52.9883919  56.5319977   3.5952399  85.9419785  51.2143745  24.1337433
  86.0344238  50.3053894  23.8483810  85.9524231  51.1675301  25.0897388
  76.3952789   7.5139394  49.6827660  77.0085754   8.2452936  49.6104813
  76.2920151   7.1983333  48.7850113  35.9924545   4.9376245  87.9687881
  36.8383408   4.5346928  87.7729492  35.4847031   4.8316655  87.1643066
  50.3910561   0.2902046  49.3760071  51.1466942   0.3388827  49.9615631
  49.9814224  -0.5498068  49.5829277  34.9709625  41.6808357  15.5449133
  34.3751450  41.9055443  14.8302507  35.3262329  40.8261909  15.3007956
  51.3876991   3.8984411  14.3734608  52.2358551   4.1806445  14.7158422
  51.5830650   3.5581422  13.5003843  40.7071266  51.0728645  21.7748871
  40.9357376  50.1549301  21.6287136  39.7545815  51.0997810  21.6845093
  61.9892960  21.9270821  60.2487869  61.1588745  22.3499813  60.0301819
  62.6556511  22.5747452  60.0191422  52.0074310  21.3284740  64.1183777
  52.6874199  20.9402466  63.5678062  52.3213120  21.1994743  65.0134048
  16.5326862  58.2530251  29.9464092  17.0737915  57.5483437  29.5902348
  17.1359119  58.9888802  30.0506420  52.4919167  42.9627876  55.0054741
  52.9506149  43.7984734  54.9191093  53.1729774  42.3017731  54.8812027
  31.3796921  27.2805023  78.0431900  31.4943466  27.9288464  77.3483963
  32.1487274  26.7149963  77.9723663   0.8596937  41.8614120  75.4776764
   1.0864670  42.7689667  75.2748337   1.5834266  41.3477936  75.1190186
  86.0604172  34.1226883  29.0741291  86.5596924  34.9386787  29.0407238
  85.8361588  34.0167885  29.9986439  16.3821468  10.8248873  63.5613022
  17.0530281  10.8895054  64.2409897  15.8922796  10.0329304  63.7828102
  69.8621521  63.2583046  38.9134026  69.5567017  62.9367409  38.0651550
  69.3881378  64.0797348  39.0429764  57.7080269  51.6092834  29.1827965
  58.3859863  51.8236198  29.8236237  58.1060600  50.9381065  28.6284294
  21.8311882  43.8139725   9.1135569  21.4752045  44.2212944   9.9032383
  22.6927471  43.4914436   9.3779850   9.8329678  53.1755104  69.3979645
  10.2332582  53.5050011  68.5933304  10.0120268  53.8534355  70.0495682
  72.7972565  22.0625935   8.8783150  72.5167618  21.2308559   9.2601109
  73.0714035  21.8376560   7.9892268  53.6812553   6.9489651  84.6019669
  53.0659866   7.4206429  85.1633911  53.4947052   6.0245299  84.7658234
   5.2159224  18.6287727  40.8958931   5.5338249  19.5138321  41.0743332
   4.2703753  18.7311649  40.7877769  37.3083572  52.2672844  43.4660339
  37.8709145  52.9843712  43.7585144  36.4515610  52.6733246  43.3346367
  52.2103462  66.7392960  54.6791534  52.9100800  66.4738617  55.2759361
  52.6607590  67.2025299  53.9729156  15.9702244  54.5620117   5.9120936
  16.2415657  53.6460991   5.9729624  16.6451168  55.0440216   6.3900266
   7.6254706  10.2647686  55.8275261   8.4361229   9.7577953  55.7822189
   7.8569708  11.1196089  55.4643631  55.2990227  62.1246872  66.4654236
  55.7708511  61.2971611  66.3715744  54.5450897  61.9095840  67.0145645
  73.3693848  60.3276787   5.6177711  74.0165100  61.0183067   5.4746017
  73.7880249  59.5342484   5.2839494  85.4023209  57.3624649  57.3377342
  86.1582184  57.5257263  56.7736473  85.5766296  57.8761215  58.1264076
  33.1845665  41.7614670   9.7540874  32.9251900  41.8068695   8.8338184
  32.3584633  41.6923180  10.2326336  32.6434822  37.6628799   8.0374498
  32.8208427  36.7955589   8.4014931  33.5091324  38.0519180   7.9128175
  75.0550308  30.7739143  43.3984413  75.1890945  29.8604584  43.1457405
  74.5449829  30.7263527  44.2070274  45.2627411  59.2296791  49.2069054
  44.3372650  59.3783226  49.0128975  45.2733803  58.9471550  50.1213989
   0.3693092   7.4290257  61.3502121   0.5439588   6.4944224  61.4608765
  -0.0055970   7.5003285  60.4723778  30.1353283  26.3395576   9.8952436
  29.7558270  27.0423698   9.3677349  29.3827801  25.9198723  10.3120975
  22.2294598  50.5877838  51.6568794  21.6415901  51.1953049  52.1058311
  21.9295521  49.7200623  51.9277153  85.7268753  67.6225967  50.3525772
  85.2327347  67.0132904  50.9010277  85.4774857  68.4894485  50.6729012
  31.6900845  64.7756195  38.9777908  32.0703392  65.3967972  38.3566818
  30.9035168  65.2134094  39.3031921  59.6799545  22.7861423  45.7733459
  58.9507790  23.3501797  45.5156784  60.2808838  22.8164692  45.0289001
   2.3970642  43.1579971  22.6805649   2.4646678  42.2300949  22.4554844
   2.5153782  43.1833687  23.6300869  48.9302635  32.5223923   5.6963444
  48.6678200  31.8623962   5.0546584  49.5013046  32.0521088   6.3037772
  54.7347031  38.7079697  87.6584778  55.6203194  39.0242348  87.8370743
  54.1896820  39.1366425  88.3183441   9.6491251  45.0318756  39.5396385
   9.0794992  44.7191925  40.2424812  10.5237036  44.7338295  39.7896614
  15.4901514  46.5565720  86.6634445  15.3841152  47.4907341  86.8432465
  16.3757000  46.3536530  86.9648666  46.0251884  46.8124161  54.5576248
  45.8394051  46.6398239  53.6346283  46.8525238  47.2937508  54.5494766
  67.2359314  25.4878483  39.6894875  66.3779831  25.1207561  39.4764328
  67.4854050  25.0553474  40.5061493  64.7570953  20.2278690  60.1599007
  64.6372147  21.0318222  59.6544113  63.8873520  19.8289509  60.1852493
  40.0075188  63.0940475   6.0977325  40.7225304  63.6304970   5.7553725
  39.4722404  62.8906212   5.3307085   2.9058745  27.6523228  58.2544556
   3.1045158  27.8670444  59.1658669   1.9555866  27.7459393  58.1879692
  59.1593933  47.8845406  27.2567348  59.1611328  47.8767776  26.2995682
  59.4603195  47.0101357  27.5038948  80.4337997  42.2903481  80.0309677
  80.3813629  43.2209930  80.2486496  81.0220718  41.9228592  80.6906052
  66.7689743  31.3478432  33.2024460  66.4415283  30.4589615  33.3399391
  67.7064285  31.2889233  33.3866577  30.3430290   1.7281638  58.6027603
  30.6899014   0.9417946  58.1814079  30.1022167   1.4414647  59.4836922
  77.6611176  23.7104588  53.5089417  77.7725220  22.8804932  53.0452843
  76.7133102  23.8392296  53.5451660  36.3810120  20.2314968  80.9702225
  36.1937027  19.6581593  80.2269669  37.2029076  19.8972511  81.3293839
   7.8665433  36.2583618  72.0669708   8.0986519  37.0112038  72.6106491
   7.2896004  35.7320137  72.6204376   0.5142143  38.8401833  37.6768570
   1.2989089  38.5955772  37.1862946  -0.0076865  39.3484421  37.0559502
  46.9344368  34.6495094  19.2064857  47.5384331  35.1574326  18.6647873
  47.2580147  33.7505875  19.1476307  78.6298752  54.1213799  67.6400146
  79.1441650  54.8747787  67.3499680  79.0614777  53.8319168  68.4438553
  19.0566673  58.3845787   7.0057678  19.8126183  58.2865486   7.5846987
  19.4356976  58.5612411   6.1447468  46.2188225  67.2919846  77.3707275
  45.7509422  68.0781937  77.6521301  46.7561455  67.5837479  76.6342545
  57.5874901  54.0719070  39.9585915  57.1557083  53.8685989  39.1288567
  58.4609451  54.3718224  39.7068787  42.1303177   5.6990495  83.1929092
  41.6422958   5.4204350  82.4180298  41.7092896   5.2392740  83.9192581
   0.1986022   5.1377025  11.2279549   0.9600414   4.5951490  11.4330835
  -0.5390719   4.5277724  11.2353344  65.8715439  49.6608925  29.7983761
  65.4136963  50.1647224  29.1254978  66.2213669  48.9014587  29.3324203
  45.0651512  71.6792221  58.9385223  45.7784271  71.1285706  59.2614059
  44.8225060  71.2889175  58.0988693  19.5307674  16.9347401  83.2145996
  19.5843372  16.6611252  82.2989044  19.8093891  16.1653156  83.7111740
  56.3555145  71.0513916  58.2404442  57.1557465  71.2775269  57.7663879
  56.3952675  70.0999374  58.3373032  38.8590012   7.8335085   6.7375693
  38.8106308   7.3082514   7.5363164  39.5107422   7.3874846   6.1967077
  24.8039684   8.6860933  70.6842880  25.7065792   8.9052362  70.9155960
  24.8861427   8.0683289  69.9577560  73.0545120  69.9362106  38.8037109
  73.3174515  70.8422241  38.6417313  73.3876038  69.4514847  38.0485153
  32.0787811  47.1645660  72.3232422  32.1926346  46.7582550  73.1824188
  32.1331673  46.4360924  71.7046967  61.1534386  14.9159861  42.9025154
  60.8611221  15.2997150  43.7292747  61.3626175  15.6689072  42.3497162
   5.8389263  24.6642208  64.0442123   5.5115037  24.5156422  64.9313126
   5.5488782  25.5502071  63.8271065   2.1643617  64.5402222  20.6735306
   2.2111957  64.2664642  19.7575111   2.1911299  63.7220840  21.1696854
  38.9284515  58.6824074  23.8824711  39.6543007  58.7387238  24.5039215
  38.9901161  57.7979507  23.5216846  41.0708961  52.5089111  18.2800598
  40.5483437  51.7346535  18.0710354  41.9780884  52.2163506  18.1926327
  30.0985394  26.8958149  74.0945740  30.5183239  27.7494659  74.2008286
  30.7951393  26.2629642  74.2691650  17.7496910  65.1422806  67.6867065
  17.5217514  64.2528992  67.9574127  18.2955322  65.4767609  68.3983383
  76.4276199  27.9762764  35.2023506  77.1428452  28.3932800  34.7219429
  76.4286728  28.4085693  36.0563736  34.2296143  66.3508911  40.0343742
  34.0325508  65.5515213  40.5226402  34.8295059  66.8359299  40.6010323
   2.8594556  32.4762306  56.7449188   3.1623673  32.6282234  55.8497238
   3.1183417  31.5746346  56.9355431  44.7360077  26.9398937  38.5526505
  44.3316803  27.7187576  38.1703911  44.7231140  27.1018181  39.4959679
  19.4389267   1.7827053   4.0864110  20.1817017   1.1993685   3.9307325
  19.6953926   2.2982144   4.8510728  65.3401489  59.1815376  58.9196358
  65.7942734  58.4911385  58.4365654  65.1330719  58.7852173  59.7659721
  54.7041779  47.9182472  47.0141449  54.9087753  47.9703407  47.9477730
  54.4263458  47.0121307  46.8800278  27.1022434  32.6730957  16.2386036
  26.9257545  33.2862244  15.5250492  27.4299316  31.8863564  15.8028345
  16.4594097  39.9759331  33.4632263  17.1944714  39.4383659  33.7580719
  16.1990395  40.4720535  34.2393112  73.0485382  34.0368462  82.0364990
  73.0815964  34.5378914  82.8514175  73.7989044  34.3506317  81.5317993
  49.5104675  65.3825607  50.7848663  49.4550056  65.9744415  50.0346413
  50.4278450  65.4235764  51.0549965  43.4377022  68.1192932  73.7566757
  42.9139938  67.7605820  73.0402374  42.8184509  68.6391220  74.2690659
  40.2016411  12.5770941  78.8917847  39.4167900  12.1195278  79.1932297
  40.0503426  13.4925518  79.1268921  54.4315987  46.4406776  60.7969017
  54.3653717  45.5919456  61.2345085  55.1590958  46.3377151  60.1834068
  49.1235847  36.2340431  16.4288712  49.5841484  36.0914040  17.2557735
  49.5954704  36.9557343  16.0132809  77.9859390  44.3803596  28.1600323
  77.7975769  44.9445496  27.4100704  78.0254211  44.9788246  28.9060307
  37.9352531  49.1967392  10.9804220  38.5592041  48.4709282  10.9909649
  38.3748703  49.8832436  10.4787436   4.2480268  36.8626976  40.0791245
   4.1660347  37.8066635  39.9433250   5.1852760  36.7202759  40.2114563
  37.0607986  49.3402214  28.2813377  37.7680397  48.6965714  28.3232899
  37.4312897  50.1292763  28.6767597  80.3237610  10.7311382  80.0931702
  80.4280167  10.9180183  79.1602020  81.1077805  10.2342768  80.3269958
  14.5136881  67.2987518  13.9654837  15.2568417  66.6983490  13.9065485
  13.7531033  66.7607422  13.7457323  69.7845993  23.5907269   9.1039991
  70.1852493  22.8572369   9.5705891  69.7798920  24.3056145   9.7405090
  47.4236908  14.2725554  30.1766987  47.7857628  13.4490271  29.8496876
  47.4890862  14.8741827  29.4350796  36.6441116  24.2481918  72.3500595
  36.2202911  25.1028843  72.4282150  35.9562073  23.6687927  72.0224686
  85.9963150  28.9372139  35.2348480  86.8138657  29.4295750  35.3085327
  86.0104752  28.3365459  35.9799843  53.5203476  52.8397598  73.4912415
  52.6706352  52.7605133  73.9247665  54.1409454  52.4511948  74.1077728
  59.7217827  54.8069267  38.4741592  60.5454140  54.3961525  38.7370911
  59.9261246  55.2464294  37.6487427  84.2392426  66.6464157  69.2557907
  84.7779007  67.4220505  69.4122314  83.3491669  66.9870071  69.1663971
  28.6700611   8.8389940  67.0092697  29.1080723   8.1873674  67.5567703
  27.9535255   9.1661386  67.5531311   3.4582832  51.1993294  18.5812893
   3.2839873  50.4555664  18.0045147   3.7051904  51.9092941  17.9886532
  71.5622253  16.0212021  82.1676254  71.2432251  16.9191799  82.2576523
  71.5197754  15.8450508  81.2277298  64.6951370  53.9649658  14.8434277
  64.2414246  54.8040924  14.7644415  64.1482849  53.3500443  14.3544912
  61.9588165  47.8888245  67.7061691  62.3505859  47.9390221  66.8342590
  62.2239799  48.7024231  68.1350937  86.0076294  22.7638607  15.2294607
  85.4301758  22.2834549  15.8227520  86.8757324  22.3928814  15.3875704
  59.8666420  33.1906738  84.3748627  60.3021812  33.3011475  83.5296860
  59.6447983  34.0808067  84.6481476  36.4305038  61.8482056  82.4704056
  37.0224228  61.6880264  81.7354202  35.5645294  61.9208069  82.0690918
  71.7997437  13.1806355  48.4788780  71.3447418  13.2278786  47.6380653
  71.1864471  13.5653505  49.1050491  81.2671585  20.7810421  76.6906357
  80.6427994  20.5638885  75.9983521  80.9200439  20.3481960  77.4706268
  36.3423996  61.3684578  17.3954983  36.7600327  61.0691719  16.5878830
  36.6780357  62.2556038  17.5241737   1.2944143  69.4513016  12.5592909
   2.1754696  69.6748734  12.2593079   0.7191750  69.7447128  11.8527203
  72.2227173  19.0070515  74.6064911  72.4442444  18.7982826  75.5139999
  71.4854736  19.6138649  74.6734238  77.2412872  23.0246944  23.8547630
  76.4124908  22.6762753  24.1832981  77.6489334  23.4331207  24.6184654
  14.4488745  20.8366241  87.3144608  14.8733358  20.1671143  86.7779694
  14.7651987  21.6662216  86.9567795   0.5680944  10.8618097  46.7534981
   0.2658752  10.6477747  45.8708382   0.3950711  11.7987576  46.8452797
  68.4539871  70.4803009  88.3772430  68.7985382  71.3562393  88.5511780
  67.8470078  70.3141098  89.0984802  66.6071625   3.5769501  20.6256828
  66.0620575   3.4997294  21.4087067  66.8331528   4.5060568  20.5818443
  47.8435822  21.0483665  70.5629883  47.9657135  21.9210262  70.1891174
  47.4387970  21.2076054  71.4156494  72.0089035   4.9161053  15.4249582
  72.8507156   4.5129342  15.2127609  72.1360550   5.2917080  16.2961559
  27.6592808  60.5707169  42.4212952  28.5582790  60.5686111  42.0926208
  27.4430656  59.6450157  42.5333633  60.2777557  60.0956802  35.3595238
  60.3279610  60.7650414  34.6771240  59.3402176  59.9839859  35.5169449
  47.9440346  23.6483860  70.0908127  48.7250366  23.5791321  70.6398773
  48.2542229  24.0593357  69.2838821  72.4448090  19.5265446  22.1068401
  72.3802032  18.5764999  22.2041626  73.3838806  19.7079334  22.1452312
  85.5248337  45.1793137  16.4593849  84.8612671  45.8081474  16.1756935
  86.3366165  45.4907570  16.0590725  33.0870819  45.0818062  54.3896523
  33.9818497  44.8009911  54.1979103  32.6034737  44.2665253  54.5225792
  52.5733833   5.9495759  75.2874374  52.0390015   5.8314443  76.0727463
  51.9460335   6.1856718  74.6041183  47.5171471  57.2344017  19.2008667
  48.0928116  57.1766319  18.4383030  47.2811470  58.1605797  19.2531853
  65.3282013  22.2082691  80.4895935  65.3887329  21.9128723  81.3980637
  65.2603989  21.4012508  79.9793472  30.2594852  44.2145576  57.7238388
  30.8696041  43.6149216  58.1532860  29.4040661  43.9877548  58.0886002
  83.4249496  33.5052681  80.4882660  82.5919189  33.1454048  80.1836395
  83.2601166  33.7540245  81.3977585  51.8127136  57.2185707  38.6532707
  51.0973740  57.7372627  39.0213470  52.4600067  57.1700630  39.3567581
  67.7587280  34.9220772  86.6810684  68.2077560  34.1020126  86.4758759
  68.4543762  35.5794601  86.6933975  11.5061769   3.7264166  60.2402420
  12.3101797   3.4126811  60.6542244  11.3449278   4.5785265  60.6453819
  85.6393738  52.0807495  10.2857275  84.9222183  52.7062454  10.3890228
  85.7356873  51.6818428  11.1504993  16.3475971  49.5814667  39.3455734
  16.5437279  50.0401077  38.5286217  17.1639500  49.6201057  39.8438797
  81.0390549  62.1338196  82.6720047  81.6453018  61.9678650  81.9500961
  81.5729599  62.5661201  83.3385620  44.8349991  40.9174156  25.5075188
  44.9760780  40.1310616  24.9802837  45.7145920  41.1956863  25.7626877
  32.4498100  55.5497932  85.8043213  32.9595680  56.0279884  85.1503296
  33.1063499  55.1599197  86.3815460  54.6547508  10.4843531  13.4141312
  55.4183617  10.3283892  12.8584290  54.1732368  11.1818314  12.9692707
  71.5617142  36.4790344  17.2725468  71.6476898  37.4279900  17.1813183
  72.4486923  36.1757011  17.4661732  71.0990067  66.2990265  36.9075508
  70.9490280  65.4454117  36.5012436  70.5047226  66.8913116  36.4468422
  43.7603836  10.8812103  24.3455257  43.9337540  10.7011538  25.2695141
  43.3691521  11.7547951  24.3410473  85.6304626  52.8760948  15.3600378
  85.9614639  52.2145195  15.9674788  85.7456436  53.7057114  15.8234015
  82.3656921  24.3282166  86.4110565  81.7810440  23.8645515  87.0105896
  81.8084946  24.9847507  85.9930496  61.8361702  58.3341866   3.4756556
  60.8991547  58.2449722   3.3016577  62.1584778  57.4339333   3.5191455
  26.6937103  35.9412956  85.4946213  27.3297310  36.5147858  85.9221954
  27.2267284  35.3237152  84.9939041  17.0238419   7.9118776   6.4467583
  17.6312542   8.5669756   6.1030583  16.3771744   7.7962499   5.7505670
  85.7639771  40.2540169  15.0572710  85.4614487  39.5624008  15.6458082
  86.2228317  40.8704376  15.6279802  42.3692856   5.1876850   9.6700687
  42.7863770   5.7265739  10.3422775  42.3306084   4.3121171  10.0549288
  52.3622093  17.3986568  88.0931320  51.8053474  17.3471508  88.8699722
  51.8596878  16.9570656  87.4085159  22.5310879  36.4223633  80.5697403
  22.3578682  37.1228027  79.9407654  22.3094273  35.6183739  80.0999451
   7.2898483  19.3464870  44.8944054   6.8396354  19.1894112  45.7243843
   6.6375237  19.7836761  44.3470726  70.8298111  27.5472298  25.3419628
  71.7497253  27.3110809  25.4612350  70.3659210  26.7099533  25.3399086
  84.8403168  25.4442234  42.4495583  83.9227829  25.2260952  42.6132164
  84.8612442  26.4011593  42.4414635  19.8827744  25.0539646   7.4451680
  20.5915985  24.5937405   6.9957275  20.1354618  25.0397911   8.3683043
  31.1002979   0.7889758  55.7601395  30.6539402   1.6356494  55.7482414
  30.5395794   0.2152571  55.2379570  65.3285522  18.9603634  35.2632942
  65.4777985  19.5032654  36.0373840  64.3822479  18.9968643  35.1239777
  25.4388657  41.1113014  77.5625381  25.7629128  40.2108765  77.5840607
  25.2167015  41.2640076  76.6440811  44.3388481  13.1099205  34.5056038
  45.1864014  13.2965546  34.1018066  43.8477898  13.9271288  34.4203682
  68.9488449  48.8515816  70.0907669  69.6676407  49.4281731  70.3498077
  68.9888611  48.1248055  70.7124023  32.3727303  54.9599495   6.3049521
  31.6347809  54.3892899   6.5194621  33.1252327  54.3703575   6.2564316
  48.4417953  57.0111122  33.5772247  47.4997292  57.0059319  33.7466888
  48.7534294  57.8208351  33.9815254  34.7494202  32.3948898  84.3354492
  35.5415878  31.8586235  84.3019257  34.1648941  31.9993668  83.6888275
  86.3580933   5.0844636  42.9045792  85.6649094   5.2706108  42.2712708
  86.3328629   5.8241320  43.5116081  43.8416252  34.9846535  64.4789276
  43.1893311  34.6261597  65.0807800  44.1140785  35.8081169  64.8837891
  53.4504738  12.7733307  12.3327360  53.2100029  12.6434050  11.4153900
  54.0824890  13.4919977  12.3151913  42.8044395   0.1659879  27.0555420
  43.7258682   0.2941551  27.2808743  42.5998497   0.8895044  26.4631748
  82.1821594  62.2156677  69.8574600  81.8927689  61.8303185  69.0304260
  82.6167984  61.4973984  70.3172531  48.0425606   5.5418677  60.9202843
  48.1703262   4.6919336  60.4989548  47.2826385   5.9176846  60.4758606
  47.7565956  16.6945381  88.7608871  48.2447701  15.8722639  88.7187119
  48.3587418  17.3489990  88.4068680  24.4437313  42.4011230  85.4555359
  24.4453373  41.9198189  86.2829285  25.3257027  42.7672119  85.3896942
  37.3060036  54.0675316  16.6727905  38.1317940  54.4473343  16.3727016
  36.7987633  53.9341202  15.8720798   2.6133349  36.3892365  27.3102074
   3.5478120  36.5697479  27.4121895   2.2922890  37.0969238  26.7513313
  71.7310410  38.6262817  57.4267845  71.4107208  39.4891472  57.6896286
  72.6222610  38.5857620  57.7736702  12.1350098  64.3181839  37.7763557
  12.0121088  63.4166679  38.0736809  11.8005228  64.3223038  36.8795128
  58.7489548  20.5826302  72.8251266  58.8631935  19.7192783  72.4278793
  58.4538193  20.3987865  73.7169418  81.3890991  22.9374714  55.5828056
  81.4136429  23.5689068  54.8638344  80.5771866  22.4494743  55.4453812
  63.8354988  57.5909042  73.6370316  64.5228958  56.9247894  73.6354294
  63.6484795  57.7443123  72.7108994  34.4883347  46.2538300  56.5168991
  34.2372322  47.1702957  56.4017181  33.9346085  45.7744942  55.9005737
  75.6320648  57.5410385  17.1581173  75.4152069  58.4382210  17.4116325
  75.3784409  57.0107384  17.9135590  80.0454025  36.6017532  60.2763672
  80.9849854  36.4603500  60.3922310  79.9169693  37.5299187  60.4719353
  40.8834763  16.1222897  86.0834427  41.1708336  16.9519939  85.7023315
  39.9849815  16.2882156  86.3687744  84.7588196  39.9842415  84.9114914
  83.8594513  40.1027298  85.2169952  85.2251053  40.7551613  85.2347412
   4.2865758  39.6359062  39.1838226   4.8689632  39.4521179  38.4467506
   3.5585442  40.1231804  38.7981224  12.8587255  28.9896812   3.0931957
  12.1250000  29.0598583   3.7038953  12.4744701  28.6190243   2.2987189
  65.3106537  50.3531532   5.8778634  64.5677490  49.8423195   5.5563469
  65.0829010  50.5631447   6.7835469  36.4327316  55.8171463   0.6540093
  36.6073189  56.4142685   1.3814675  36.6422348  54.9498100   1.0005180
  18.2847595  55.8839912  50.9324188  18.1172447  56.6646996  50.4045372
  17.5517216  55.8485603  51.5469398  56.7947235  58.6576881  71.2100525
  57.5562592  59.0784073  71.6091614  56.6201477  57.8996353  71.7678299
  73.6437988  37.7687302  19.5884247  74.5406189  38.0756836  19.4552631
  73.5472183  37.0387306  18.9768677  69.3583374  47.4522858  34.6080627
  69.4247818  48.3720360  34.8647270  68.4198303  47.2651482  34.6283989
  62.9564896  49.0446625  51.0521164  63.0995140  48.1712494  50.6875229
  62.3804550  49.4762268  50.4211121  81.7351761   8.9026775  27.0142975
  81.1700745   9.6017065  26.6852913  81.8795853   9.1244087  27.9341946
  22.0464630  13.9291601  64.0725708  21.8872204  14.8050833  63.7209549
  22.3531895  14.0819616  64.9663315  51.1044998  17.2473583  32.9130745
  51.2328339  16.8185558  33.7591743  50.6846123  16.5815907  32.3683891
  62.3089485  65.5494843  84.4072800  61.6511383  64.8548279  84.3762360
  61.9742355  66.2229385  83.8151169  21.5032845   5.9605932  62.1718063
  20.6031246   6.2840853  62.2078056  21.7598591   6.0677700  61.2558823
  19.6153870  23.9840984  14.1182852  19.6599731  23.0283833  14.1474934
  20.4955978  24.2571411  13.8596201  18.4919910  56.6530266  47.5867577
  18.2200985  57.1831970  48.3359070  18.6939583  57.2911224  46.9024506
  73.6023483   4.9513178   6.8711390  73.4874191   4.4688783   6.0524364
  74.1051941   5.7271996   6.6233706  83.3133545  64.2559204  75.0157928
  83.7971954  64.4389267  74.2104111  83.9892120  64.0322800  75.6556625
  27.1088028  35.2577057  58.7395325  27.5058517  34.3867645  58.7465744
  26.2537079  35.1344452  59.1516647  28.6281643   1.6476429  48.2736664
  29.0897751   1.0206405  47.7168770  29.2436562   2.3731561  48.3787003
  12.7350321  52.5441360  70.2555923  12.5077591  52.6637993  69.3335037
  13.0898314  51.6563072  70.3015594  50.4798279   0.6211840  33.9427834
  51.1648827   0.2524947  33.3851128  50.0983810  -0.1364996  34.3862305
   2.2418513  64.7529984  44.4865150   2.3150473  65.3209457  45.2535286
   3.1470890  64.5446396  44.2555122  63.9614716  29.5724068  55.6395454
  64.8720398  29.6624413  55.3584824  63.6795692  28.7341270  55.2734146
  26.3633232  51.3611336   7.5569534  26.9235783  50.5958977   7.4274945
  26.7788067  51.8440552   8.2713699  80.5074921  44.7714233  88.2377701
  80.8684540  44.1871719  87.5709915  80.0691452  44.1870766  88.8563309
  62.4457664  38.3564758  34.1557808  63.3078766  38.7189598  34.3597488
  61.8397446  38.8589134  34.7003250  58.0037422  17.3281975  71.9944992
  57.9722137  17.0859814  71.0689926  57.1175690  17.6305599  72.1932678
   9.7487659  59.3085136  19.0683289  10.5907402  58.8571701  19.0083294
   9.6669197  59.7744026  18.2361736  75.9484940  53.5775490   7.1751404
  76.1757584  53.4726677   8.0990362  75.8077545  52.6846466   6.8602552
  44.0738144  12.8823013  84.7204514  43.5070953  13.2006264  84.0177917
  43.7776985  13.3537092  85.4991226  83.9298096  49.1600113  39.0381470
  84.3879623  49.6336250  38.3438721  84.3043289  49.5030365  39.8495064
  76.2122574  48.9735222  58.6470528  76.7701263  49.6710892  58.3029404
  76.7727280  48.4998093  59.2616272  43.3633957  37.9703445  21.0361347
  42.6118088  38.1385193  20.4677467  43.8343315  37.2568130  20.6056423
  27.3090096  38.4280319   8.3602953  26.3954449  38.1514740   8.2885561
  27.7125835  38.1358833   7.5429788  38.5297050  31.6950989  14.5482664
  37.7463150  31.9002495  15.0586071  39.0845184  32.4697800  14.6392832
  42.6315765  45.8603973  17.8222198  41.8848343  46.0822487  18.3784504
  42.2920952  45.2007179  17.2174053  61.2245255  20.4579468   8.9317999
  60.6041336  20.9046917   8.3558111  61.7223167  19.8845959   8.3489599
  70.3915939  16.8547459  64.5900192  70.4547119  17.4763165  65.3152084
  71.0269089  16.1715546  64.8041611  51.7233887  42.7321396   4.4054689
  51.7062340  43.6474838   4.6848931  50.8359032  42.5612946   4.0901632
  64.8223877   7.4126015  77.0703354  64.6153183   7.3666825  78.0037384
  64.3215408   6.6972108  76.6784134   0.2252087  26.0546799  28.7691326
   1.1616402  26.0737381  28.5717373   0.1436406  25.4216785  29.4824963
  32.3266754  61.5943642  32.1995163  32.8959160  61.8033371  32.9401398
  32.3202629  60.6378136  32.1647949  56.4273491  16.7852459  49.2291489
  55.8557816  16.0336552  49.0721359  56.7500801  16.6584606  50.1213379
  18.5708408  29.8065872  11.7656393  18.0200558  29.3351326  12.3906174
  17.9507046  30.2449360  11.1829615   4.7475581  70.5968246  41.7655258
   4.7033429  69.6466827  41.6582146   4.7696428  70.9380646  40.8714905
  57.4099655   8.7879467   1.7725700  56.9306946   9.2987156   2.4249833
  57.9535675   9.4308624   1.3171718  81.5979538   4.7854190  81.3763428
  80.8830109   4.3129988  80.9498444  81.4578323   5.7009468  81.1346664
   1.6602409  61.6318169  30.3691330   1.5004051  62.4632187  30.8157387
   0.9653065  61.0535393  30.6836033  80.6335678  28.2441216  58.8813591
  81.1791687  28.3954659  58.1095772  80.2209625  29.0906544  59.0527344
  37.5824203  49.3687744   0.5150936  38.0522652  50.0168571   1.0399404
  36.6708069  49.6599960   0.5347522  50.6093864  39.3809280  51.8254852
  51.4424324  39.7958107  51.6015816  50.0088615  39.6614342  51.1348915
  44.3850136  35.3578529  14.0583715  44.2939377  36.2878838  14.2656879
  45.2455750  35.2877274  13.6451511  48.3395920  58.8686714  37.0130234
  48.9233894  59.6223640  36.9272156  47.5579720  59.1135292  36.5177002
   6.7470183  25.0795898  10.9333277   6.5770874  24.5381603  11.7041769
   6.4634633  25.9571247  11.1897688  48.8843765  44.7294083  42.7053032
  48.0622025  44.6681900  43.1916275  48.7980957  45.5307274  42.1888962
  47.5010872  58.5418015  41.3794479  47.9804268  57.7202797  41.4870110
  46.8517265  58.5340538  42.0826569  53.4230194  60.4909630   8.5494633
  53.6754303  59.9309006   7.8153987  52.8426704  61.1463051   8.1622257
  39.4921532  29.9586334  80.7141800  40.3486557  29.6425381  81.0017853
  38.8954620  29.2326126  80.8960724  49.6456490  47.6165771  29.7919731
  49.0723801  48.3764076  29.6907101  50.5045471  47.9242706  29.5024090
  46.6513710  60.9273987  66.1308289  47.5371628  60.8883209  66.4914856
  46.1055412  60.4973640  66.7891388  34.8719559  54.1170616  57.0961990
  35.3878021  53.5696831  57.6882362  35.5227547  54.6232224  56.6098900
  13.7078352   0.5550272  87.7942581  13.4901581   0.8318791  88.6843185
  13.0136776   0.9280273  87.2508926  55.1415558  46.0248604  24.1690941
  54.9415970  45.2104034  24.6305141  54.7355652  45.9186287  23.3087902
  11.0777283   6.0309377  20.0449581  10.3760777   5.4490976  20.3371582
  10.7389441   6.4314141  19.2442875  78.7832870  62.8497810  74.7905884
  79.6459274  62.4365082  74.7547684  78.8888016  63.5709953  75.4110260
   4.7377949  16.6069527  24.2609158   5.1192274  17.0099125  25.0408936
   4.6839819  15.6754484  24.4745426   7.2932992  15.9681349  53.0987053
   7.7676024  15.9821014  53.9300156   7.6551194  15.2166033  52.6291122
  81.2120438  15.1772070  38.2784767  81.0564651  15.8048162  37.5726891
  81.9595795  15.5354595  38.7570953  40.6736069  56.3220177  83.1055832
  40.9983253  55.7963181  83.8366318  39.7302895  56.1599579  83.0944443
   4.1612406  34.6608200  57.7106476   4.2339592  34.9036179  58.6336823
   3.6071265  33.8803139  57.7112350  83.4187546  28.9163151   2.4706578
  83.8086548  29.7895069   2.5123854  83.3631210  28.7233257   1.5347668
  72.5413742  69.0643463  88.1376419  71.8610611  68.4063950  88.2808380
  73.0803223  69.0274963  88.9278412  81.1987305  30.0930824  49.8619804
  80.6536865  29.8215675  50.6005211  80.6346436  29.9864063  49.0960426
   9.6841812  68.9919662  28.6373119   9.3802881  68.0896759  28.7360249
   9.3406658  69.2688141  27.7878513   8.0207472  39.6365852   8.7638273
   8.4956694  40.4607391   8.8708086   8.0765715  39.2149277   9.6213369
  73.9008026  35.6071930  68.6505661  73.0293121  35.4345779  68.2942810
  74.4818497  35.5700188  67.8908005  53.1670418   3.6242547  88.1283417
  52.8003159   3.8644986  87.2774506  54.1002617   3.8228774  88.0516510
  29.7117767  59.3151779  85.4079590  30.6677494  59.2669907  85.4028931
  29.5128365  60.0675430  85.9652786  23.4411774   0.8815966  70.5756226
  24.3340378   0.8266640  70.2350082  23.1811657   1.7896810  70.4206696
  72.5419083  56.0732384  25.2635059  73.2305374  55.5464973  24.8578453
  71.7555771  55.8708725  24.7565899  77.4404907  46.9433327  38.3461685
  76.9047470  47.3775749  39.0099792  76.8213959  46.7079201  37.6551361
  80.1443176  57.1714020  35.2728806  79.5448608  57.5956841  35.8867722
  80.8093491  56.7657852  35.8291588  79.6956635  24.6085491  43.9517479
  79.2450180  23.8038101  44.2077713  80.4440994  24.6633644  44.5459404
  81.1351700  36.8532906  51.1599159  80.4490280  37.4210243  51.5107918
  81.8224716  37.4558144  50.8756485  86.5189514  11.6899233  27.8485775
  87.1096649  11.4157124  27.1470795  85.7254715  11.9753590  27.3956509
  75.5942688  49.9827385  15.0574188  75.4991913  50.7388344  15.6366520
  75.5315475  49.2255859  15.6396694  16.4473000   6.2398696  53.0721893
  16.5593224   6.1329112  54.0167770  15.6712008   5.7202458  52.8626823
  86.5315094  18.0597115  38.9422760  87.1074905  17.4586964  38.4697762
  86.4807205  17.6971798  39.8267097   1.8222384  36.9362183  79.7310486
   2.3100898  37.7532005  79.6272430   1.5163155  36.9534950  80.6378784
   3.4195459  28.6125717  60.8005066   4.1057763  29.2757645  60.7263756
   2.8603334  28.9250221  61.5117645  79.2537689  24.3325329  67.1936417
  78.9698639  24.2001476  68.0981293  79.1664810  25.2749691  67.0507126
  71.4157715  63.6815033  79.4284821  70.6457367  64.1262054  79.0742035
  71.9896774  63.5574760  78.6725159  12.9079285   2.7703190  37.3205986
  12.4383764   3.0788512  38.0955544  13.6142693   2.2264857  37.6692505
  29.8218384  39.3672485   3.7198370  29.3264675  39.8620338   4.3725419
  30.5873547  39.0437737   4.1947899   5.4126992  23.5476379  57.1321182
   5.9998798  23.4691772  56.3802567   5.9839315  23.4474106  57.8936157
  72.8680649  53.6275787   4.9536910  72.3103180  52.8505402   4.9905415
  73.5344849  53.4133148   4.3008418  79.5655289  21.7002354  17.9552345
  79.5164261  22.4209023  18.5832958  80.3409882  21.2049866  18.2191010
  77.5047684  67.5672760  26.4887161  76.6477432  67.4952850  26.0685349
  77.6438217  66.7128220  26.8971272  65.0279236  51.8539276  63.4036064
  64.2450943  51.3349648  63.2189827  65.5790024  51.7398834  62.6293068
  76.5023651   9.7006588  52.8064041  75.8456955   9.0463934  52.5677452
  77.3327866   9.2250366  52.7860184  44.9962616  30.6577969  64.1143494
  44.2167053  30.5039902  64.6480865  44.6857033  30.5894203  63.2115173
  15.5596781  68.3304443  83.8306198  14.9170952  67.8385925  84.3418961
  15.9914885  68.8970184  84.4699707  16.6680851  12.2971163  78.5383453
  16.0087414  12.9826527  78.6457596  17.3426514  12.5104675  79.1830750
  79.4984970  35.8359604  46.1045647  80.3506317  36.1664734  45.8202095
  79.4919968  35.9739647  47.0517426  44.5095940  20.6282196   4.0704718
  45.4584961  20.7277718   4.1473022  44.3829269  19.7065887   3.8451173
  19.6467209  57.1422348  36.2661171  19.2615757  58.0154991  36.3389549
  19.0431747  56.5736275  36.7442970  84.6295776  23.8820553  59.7379990
  85.2453613  24.1766281  60.4090195  85.1601028  23.7999916  58.9455109
  12.8908167  43.7893600  43.7402344  13.1802616  44.2884521  42.9764557
  13.5914688  43.9056931  44.3819427   6.5758901   2.4533052  80.1125565
   6.6744399   2.5843201  81.0556107   5.6294475   2.4248903  79.9723053
  36.7768097   9.9107332  60.0864182  36.7098236  10.0005236  59.1357994
  36.6049309   8.9837904  60.2521477  68.9419479   6.9894333  16.7271099
  68.8096619   7.1531920  15.7933464  68.0639954   6.8155837  17.0665245
  71.8435593  60.8176498  73.0050812  72.6011581  60.2689934  72.8020020
  71.3990860  60.9326515  72.1651688  59.5406380  24.9367065  82.1985703
  60.0312080  24.1757431  82.5092239  58.8659592  24.5697975  81.6272354
  33.8213844  43.7863655  72.8366623  34.3135567  43.9353523  72.0293198
  33.4119453  42.9300385  72.7130051  49.2736282  56.3678398  82.5412216
  49.0254860  57.0603981  83.1536102  49.4820328  56.8296013  81.7290802
  74.2158585  38.9878044  42.5590324  74.6189880  38.1203918  42.5227737
  73.6463547  39.0195618  41.7903366  83.4183655  40.8106003  22.5000229
  83.3223877  41.5374146  23.1154594  82.5341034  40.6621017  22.1649799
  13.6202164  10.3607388  11.8446703  13.4966707  10.5873013  12.7664280
  14.4301605  10.8056650  11.5951471   4.9335113   8.1758461  19.1188812
   4.7189260   8.8601151  19.7528858   5.3946042   7.5112257  19.6306477
  56.6974258  14.6357183  20.0981159  55.9833336  14.9393053  19.5376339
  57.4928474  14.8594923  19.6149426   6.7977505   4.8240662  11.0177670
   7.5525312   5.2120247  11.4605160   6.5874996   4.0485363  11.5379400
  24.0993576  63.1193848  45.2581520  23.5155544  62.9210434  44.5259857
  24.9132919  62.6624870  45.0460472  77.0586548  27.8980465  79.0215378
  76.4113235  28.2908916  78.4359970  77.3999710  27.1489105  78.5331345
  65.0957489  18.4446869  44.9615517  64.1486740  18.3214874  45.0255623
  65.2049561  19.1162415  44.2882614  45.4619064  54.0375595  69.6496658
  45.9957085  53.2645950  69.4657898  44.8240242  53.7393951  70.2980804
  54.2677765  20.0729351  63.8144913  55.1724701  19.8073921  63.9795570
  53.8780098  20.1497288  64.6853638  81.1592941  59.5339508  78.1750259
  81.9606857  59.8727760  77.7760239  80.8128738  58.9172401  77.5301285
  52.8310776  40.1378479   0.2006149  52.0185127  39.6365166   0.2687339
  52.5497665  41.0527039   0.2124096  72.3228073  20.8844624  46.9621696
  72.1712875  20.1885071  47.6016388  73.2071991  20.7205029  46.6347580
  20.4126720   1.5606062  73.3250427  20.3258839   0.6466453  73.5959167
  19.5324955   1.9239367  73.4225693  14.1534014  64.5272980  86.4309616
  14.4418650  63.6475525  86.1879120  14.7167435  64.7695541  87.1659393
  83.2987061  27.4595070  68.8724899  82.4124908  27.7816410  68.7079391
  83.8560333  28.2316914  68.7758255  39.1861572  60.2050362  21.4880428
  39.3903275  59.8418045  22.3497906  38.5507469  59.5940285  21.1150017
  77.4551697  51.6057358   3.7621121  77.9572906  50.8752518   3.4008615
  76.7888870  51.1907082   4.3098774  32.6185684  11.8309422  10.1205397
  33.3601837  11.6592808   9.5402231  32.9602165  12.4448748  10.7706108
  49.8214836  23.6611423  74.5063400  50.3169518  24.0566998  75.2234726
  48.9839058  23.4168644  74.9000778  10.6104021   9.7502193  28.1505699
  10.7113638  10.7011156  28.1077194  11.4292059   9.4395952  28.5369701
  51.8719025   7.1557932  79.6441956  51.2315140   7.7000432  80.1023712
  52.6261749   7.7307897  79.5150375  68.4665070  56.1064186  10.6108809
  69.1452179  56.6737709  10.9765301  67.7914429  56.0730705  11.2886724
  65.4819260  44.5958862  50.9628143  65.2634201  44.1852875  51.7994118
  66.3096924  45.0477333  51.1267395  39.7089996  19.5671310  71.6773529
  40.4327202  20.0578842  71.2879715  40.1340675  18.8755188  72.1845245
  72.8409271  25.4328804  64.0454559  72.1473160  25.1565647  63.4464684
  72.8375626  24.7713585  64.7372665  54.8050156  38.8079376  37.0449333
  54.4672585  38.0579414  36.5553856  54.0333557  39.3462830  37.2208862
  41.8434830   9.7417059  67.2383270  42.6426964  10.0816154  67.6407623
  42.1383553   9.0008287  66.7088165  61.6761780   6.1756477  59.9891968
  62.1692314   6.8233118  60.4928436  60.9326134   6.6632781  59.6348534
  13.1555271  60.8957672  27.3100033  13.5336523  60.6234512  28.1461239
  12.6756630  60.1267891  27.0023746  41.8073959  44.8712006  84.1576157
  42.2349014  45.0228233  85.0005188  42.5252266  44.8540306  83.5246429
  68.3048172  -0.3057224  70.0380173  68.3618622   0.1490706  70.8783340
  68.6928787   0.3029672  69.4094162  18.5010548   1.9880437  34.4054565
  17.5820198   1.7257456  34.4584122  18.6148911   2.6085689  35.1253319
  76.3220520   7.6551328   3.3513575  76.6709595   6.9585757   2.7952080
  75.7805099   8.1821327   2.7637916  78.8354187  25.2157516  38.4410400
  79.3708954  25.9589233  38.7188873  78.5860291  25.4236069  37.5405769
  60.4206734  70.1243744  20.7392750  60.6016235  70.0749664  21.6779175
  59.7744484  70.8256454  20.6565208  23.6603355  46.3965645   7.5898890
  24.2797165  45.7265549   7.3006077  23.2534847  46.7111855   6.7825985
  35.0669441   1.8776795  13.9158163  34.4673042   2.4735644  13.4668341
  35.0683937   1.0874298  13.3756914  18.4430561  12.6328773   8.0318565
  18.9043446  13.2512693   8.5984573  17.6674004  13.1103640   7.7375865
  43.2595367   9.7271805  19.5353355  42.8562546   9.2491112  20.2599373
  43.1669693  10.6490841  19.7756653  30.7201347  10.8184309  75.1721115
  31.3083992  11.4286785  74.7273941  29.8419418  11.1341610  74.9592209
  52.2375755  23.3061008  79.5112915  51.5088425  22.6930599  79.4145432
  51.9124947  24.1254044  79.1380692  63.2546844  21.2963333  45.5439339
  62.7185669  21.6187477  46.2684021  63.3911705  20.3696156  45.7409058
  32.7059517  66.6230469  21.3620224  32.4728928  66.3386459  20.4782639
  33.0483055  65.8353806  21.7846336   2.3681216  68.7716446  24.4897156
   2.1418903  68.4079819  23.6336784   3.2029941  69.2177048  24.3474007
  85.1822128  53.1755753  73.8169785  85.4722290  53.6388435  73.0311584
  85.8252411  52.4762077  73.9337387  86.3890533  22.4588337  42.2513428
  85.5738220  22.2829247  41.7815742  86.9222946  22.9532013  41.6288643
  23.5597992   3.4287872  36.9397545  23.5304489   3.9898059  37.7147560
  24.2739086   3.7863865  36.4121170  78.2299728  37.2905312  86.7782745
  78.4652405  37.5738373  85.8947449  77.3648605  36.8928757  86.6798782
   0.4343073   9.8275528  53.9927979   1.0075709  10.2527466  53.3549805
   0.9156220   9.8782339  54.8186302  40.9897385  71.3851624  64.2594147
  41.9389153  71.4958420  64.3145981  40.6724052  71.5976105  65.1371384
   2.5600321   4.1775117  30.1241112   1.8967507   4.8596702  30.2287502
   2.2161777   3.4316745  30.6157646  16.5366402  57.7655830  27.1577148
  16.8066769  58.6437988  27.4261360  15.6728735  57.8902931  26.7645397
  63.1875839  29.1971340  88.0450821  63.0082245  30.0933151  87.7606125
  63.0667763  29.2184677  88.9943848  21.0288925  29.4601841  12.9627571
  20.1959038  29.4549179  12.4912348  20.9525604  30.1914597  13.5756521
  80.6926270  49.8757477  55.9240685  81.3235092  49.3684654  56.4348297
  81.0271225  49.8413544  55.0278740  24.1337776  71.0443802   0.5900757
  24.0980453  71.7545624   1.2308558  23.2434311  70.6934128   0.5716189
  73.5659485  43.4771042  28.8899269  74.3628082  43.6302071  29.3976650
  73.3624115  42.5533333  29.0363846  74.7129135  54.9009514  49.3036690
  74.7158432  55.4089279  48.4923859  75.1264954  55.4757843  49.9476776
  25.7696953  24.5347595  72.3737640  26.1596603  24.0713482  71.6325455
  25.9543877  23.9766464  73.1291656  19.2680111  34.7659225   3.4229925
  19.8365002  35.3538704   2.9256327  19.7806988  34.5357361   4.1978445
  37.6128693  48.3458328  79.7876129  37.1358604  47.7294464  79.2319489
  38.4570541  47.9228630  79.9447021  64.7937927  47.0909843  44.8506470
  64.0620956  46.5099792  44.6425934  65.3676910  46.5637856  45.4064636
  67.4153748  19.2381077  59.5513039  67.0437317  19.5335541  60.3824654
  66.7657776  18.6280651  59.2018623  77.6982193  37.2953835  31.5102177
  78.3696747  36.6420097  31.7063866  77.7055969  37.3672791  30.5557499
  80.2222748  58.9255714   1.7853332  80.1863327  58.4747353   0.9417177
  79.5871658  59.6370697   1.7039211   5.8695354  52.7926521  26.0781689
   5.2261591  52.1063156  26.2549171   6.5817933  52.6173820  26.6931496
  24.8552952  35.1261024  65.6371765  24.3683701  35.2845345  64.8284531
  25.4445019  35.8766518  65.7129440  46.1613846  11.6025343  78.6810989
  45.4659271  12.0990314  78.2497482  45.9493484  11.6535082  79.6131287
   7.3696213  45.0557861  71.5483017   7.2088194  44.1228828  71.4066620
   8.1451912  45.2478790  71.0212097  25.4332829  65.8264847  13.9476099
  25.5421162  66.7741928  13.8686447  26.3224316  65.4923172  14.0658522
  55.2572632  28.7444305  17.8794556  55.5102730  27.9185200  17.4670353
  55.6952972  29.4167786  17.3576260  32.7661476  20.2093372  88.5818710
  33.1167374  20.8265934  89.2239838  32.7302551  19.3738384  89.0475845
  20.6600037  30.9408016  69.0431519  21.5540829  30.6716747  68.8323746
  20.7665749  31.7247314  69.5819702   1.0232987  17.9639187  63.8685951
   0.8161001  18.4644146  63.0794182   0.4379625  18.3186550  64.5377579
  40.2110138  20.3223305  13.3880892  40.5241508  20.1527119  14.2765741
  40.1128654  19.4534092  12.9987612   0.4094057  63.4564323  42.9261818
   0.9293096  64.0742569  43.4402161   0.8360553  62.6108856  43.0649261
  50.7375679  66.9724426  14.5838346  51.0745163  66.0842972  14.4659662
  49.7961617  66.8938980  14.4295025  60.2322655  33.6186600  72.0762405
  60.1493454  32.6680870  72.0002823  60.2197113  33.9331703  71.1722794
   2.5640848  27.4338493   4.6887026   2.5577154  28.3300877   4.3526235
   3.1645265  27.4616566   5.4336376  54.3515396   6.7002416  23.4013500
  53.5911636   6.1251616  23.4870529  54.9198227   6.4563966  24.1319828
  -0.2472491  50.2855759  71.4445877   0.4135459  49.8378220  71.9728851
   0.1390331  51.1398163  71.2514725  11.3080139  64.6676254  87.7791901
  12.2164774  64.8555374  87.5433578  10.9382343  65.5207138  88.0066223
  85.0254593  20.0141411  53.8566780  85.7875824  20.5920124  53.8948326
  84.3104019  20.5797195  53.5650482  26.9608860   4.8885632  19.0305786
  26.2192268   4.2872071  19.0979939  27.2778778   4.9795885  19.9291668
  77.3031082  30.9757328  41.7319183  76.5078430  30.9467831  42.2638397
  77.6087570  31.8797016  41.8070869  66.2169113  67.1213989   0.4955616
  65.4049072  67.6272125   0.4634997  66.1272888  66.5737076   1.2754575
  47.9337769  34.6037674   7.6674705  47.9267921  35.5411530   7.4738545
  48.8176155  34.3180351   7.4363384   6.2460241  67.8137436  29.0498734
   6.7899208  68.5405655  28.7463341   5.7217927  67.5717697  28.2864208
  68.8171616  11.0697479  24.0312767  68.9583511  10.4998226  24.7872410
  68.2121582  11.7409468  24.3470192  46.5168571  39.1446114  84.6047287
  46.7434006  38.2591133  84.8889923  45.8780365  39.0150604  83.9037628
   2.5395033  31.5916920  70.5071945   1.6208260  31.8401546  70.4045792
   2.9633005  32.3780098  70.8511887  78.2316895  36.6844826  71.8151627
  77.8249054  35.8186646  71.7816086  78.1776657  36.9389572  72.7363281
  64.8818054  47.0326271   2.9325469  64.1592178  47.6551285   3.0137632
  64.5735550  46.2474899   3.3850701  58.1933098  53.0378304  56.1307602
  58.8450623  53.5771599  56.5786133  58.4913139  52.1386223  56.2680435
  40.3967171   7.1169496   2.0203974  40.2689247   7.2586117   2.9583914
  41.1233101   7.6949902   1.7876732  81.7117386  46.2145233  23.9103603
  81.8625717  47.0936470  23.5630493  80.9072876  46.2942619  24.4229279
  43.6336098   9.0497904  69.6727753  42.7424660   8.7556610  69.4841461
  44.0652275   8.2816601  70.0468292  80.6915512   2.1051581  89.1736526
  80.2404022   2.4287896  88.3939362  81.0043716   2.8950837  89.6145477
  69.7877884  20.8832893  29.9401855  69.4537125  21.0287418  29.0550499
  69.3017273  20.1222153  30.2575874  55.0036163  47.2611275  16.5893555
  54.3239708  47.8508339  16.9157982  54.7999840  46.4159431  16.9898949
  52.6646957  39.6503067  38.5772171  51.9788475  39.0019379  38.4176369
  52.1957245  40.4812851  38.6531906  73.5585175  40.9000206  56.1828461
  73.4160309  40.6857491  57.1048088  73.6329498  41.8541985  56.1674423
  43.2953224  69.1305161  26.0963421  43.1299973  70.0415497  26.3390732
  42.4752083  68.6776962  26.2928028  41.7063446  51.4502983  55.3866692
  42.3887711  51.7893333  54.8073769  42.1589050  50.8190994  55.9461441
   5.2810712  33.9563980   3.2397885   5.8605719  34.6669884   3.5145092
   4.4102297  34.2340889   3.5239625  77.4998169  11.5891294  85.7157516
  78.1783371  11.3706570  85.0769119  77.5111237  12.5452547  85.7596512
  56.2658958   0.3465135  88.6584396  56.3435936   1.2452680  88.9784927
  55.4198189   0.3237768  88.2113724  82.5974960  35.9465523  47.7385674
  82.6511841  35.0685539  47.3611183  83.5043106  36.2519188  47.7646332
  37.5370331  22.8446693  82.2466888  37.9045219  22.1352386  81.7195282
  37.2125015  23.4765034  81.6050491  15.5152292   2.2551658  86.7073669
  15.0490294   3.0819871  86.8308792  15.0062103   1.6163310  87.2063904
  29.4911976  22.9200287  72.6573792  29.4695835  22.4527016  73.4924622
  29.5908051  23.8404617  72.9005051  61.5272980  24.9672966  70.8549957
  61.6813354  25.8410587  71.2142258  60.7684402  24.6401100  71.3380203
  58.7925987  48.3402863  62.2864151  57.9736977  48.5342674  61.8303375
  58.6995850  48.7676277  63.1378593  74.9910965   9.4758682  70.3755569
  74.4050903   8.9835777  70.9504242  75.1715851   8.8788347  69.6494675
  11.0056820  46.8635559  12.0907860  10.2982960  46.3974152  11.6451960
  11.7200680  46.2280693  12.1359844  80.3804779  41.6486855   6.9196386
  80.3609543  40.7496185   6.5917182  81.1714096  41.6904564   7.4571495
  10.6817589  30.8477039  22.0931034  11.3801203  31.1075668  22.6939316
  11.1145239  30.2829857  21.4527607  79.1070557   5.6162400  71.8962173
  78.1872787   5.4204063  72.0748138  79.5853882   4.8701396  72.2578278
  59.3808327  60.3348656  22.7006779  58.8966713  59.5149651  22.7985802
  59.7013245  60.5303726  23.5811844  36.5997734  20.0509701  76.1688004
  37.1435738  20.6281853  76.7048340  37.0874100  19.9539719  75.3508530
  20.5543327  40.9186325  58.7912483  19.8334942  41.0658875  59.4035721
  21.0626984  40.2099762  59.1857147  64.4495392  25.7026596   8.9360275
  64.1283722  25.5307102   9.8211927  63.8875694  26.4054337   8.6096420
   0.2077180  62.9123230  82.9461670   0.2046235  62.5873985  83.8465271
   0.3036838  62.1264114  82.4082413  71.2132645  41.5794144  60.5485916
  71.6533966  42.3623428  60.8795586  71.1859589  41.7030220  59.5998001
  15.5481482  58.6462135  53.2007904  15.3193474  57.7167892  53.2083130
  15.9771996  58.7940826  54.0435715  66.7239761  58.7943726  24.2382793
  66.9395676  58.4676018  23.3647957  66.5450668  58.0063705  24.7513828
  30.1333771  67.4238205   8.3648434  30.3410740  66.9590912   7.5542169
  29.9681511  68.3252563   8.0885315  75.0098190  40.9840126  62.7398796
  75.6009598  40.3766670  62.2950020  74.1330185  40.6708374  62.5176888
  84.8862610  64.6125031  12.7746744  85.7608871  64.2263718  12.8213024
  85.0411835  65.5570831  12.7740135  19.6992645  41.0176964  62.0901794
  19.5451450  41.7274323  61.4666786  18.9315281  40.4525070  62.0042915
  70.8718796  55.9800797  38.1155167  71.4772110  55.2956734  37.8302193
  71.4127197  56.7673683  38.1779938  58.4705086  67.9281311  61.3655319
  58.2004814  68.6525421  61.9299278  57.7792816  67.2739944  61.4682121
  54.8698730  21.4073124   6.9871488  55.1815376  22.2400169   7.3416896
  54.8287697  20.8245430   7.7453842  12.1817617  40.9872513  85.6947250
  11.4392262  40.4533806  85.4121399  12.0496016  41.8301659  85.2608261
  18.6918335  54.2390862  55.3596001  19.6482468  54.2691422  55.3841705
  18.4150257  54.9051018  55.9889107  33.3959808  64.8465652  45.8449059
  33.4965706  64.5921631  46.7621803  33.9990196  64.2745361  45.3701859
   0.5916288  69.9407425  42.9889297   0.1428826  69.3354187  43.5792236
   0.8053242  69.4116287  42.2204208  47.8077431  51.3175545   5.0746074
  48.4820290  50.7445145   5.4395623  47.2387543  51.5209160   5.8169885
  43.0619736  57.8519745  87.7033615  43.7133293  57.8912125  87.0030594
  42.2202492  57.9071655  87.2509384  45.8136711  65.8031464  67.2707367
  46.7453499  65.5887833  67.2232513  45.3684502  64.9646225  67.1487503
  59.0132828  23.2866306  72.1941757  58.4577332  23.4608898  71.4344177
  58.8169937  22.3803558  72.4315948  77.2668915  35.5361481  21.2863712
  76.6678238  35.7299576  22.0073395  78.1186829  35.8476257  21.5924187
  67.9125748   8.5383139  59.4170609  67.7259979   8.1134777  58.5798416
  67.7232895   9.4639416  59.2633781  55.8735619  23.5060081  32.8132210
  54.9758072  23.5335846  32.4822922  55.9331474  24.2546234  33.4067345
  80.5854797  53.9637604  18.6060085  79.8088684  53.5665894  18.2118397
  81.0872803  53.2227516  18.9456196  56.4776955  47.1848412  19.9864998
  56.4127960  47.9771080  20.5197315  55.5969238  47.0615311  19.6325703
  20.2083340  38.7224464  65.4642410  19.3106194  38.7695351  65.7930603
  20.7445316  38.6026192  66.2480545  11.7602224  55.9644890  55.7045555
  11.1777697  55.6397362  55.0178871  11.7037258  55.3065681  56.3975067
  47.9176826  13.1569309  67.6855927  48.1847420  13.4349394  68.5617294
  47.2851562  12.4551582  67.8394012  45.3123093   9.9828558  89.4532242
  44.6586189  10.5317392  89.0200424  46.0988121  10.0778694  88.9159927
  10.9617615  43.8360710   1.8068475  10.6564808  43.0142136   2.1910112
  10.8330555  43.7226524   0.8651456  15.5033302   5.1720247  48.7245903
  14.7244806   4.6551104  48.9305611  16.0593319   5.0863853  49.4990311
  48.8063354  54.0979195  36.8255539  49.6384850  54.5701294  36.7977180
  48.7428780  53.7772751  37.7252159   4.8259516  66.9589157  26.8739796
   4.4759951  66.7367172  26.0111980   4.1738601  66.6252213  27.4901390
  26.9797802  68.4518509  23.2415218  26.1392097  68.6483154  22.8279114
  26.7913723  67.7227249  23.8323784  29.2010841  64.4603958  24.9219761
  29.3111668  63.5268707  25.1026287  29.1486282  64.5151443  23.9677830
   6.3378806  61.4177475   0.7412272   6.0080700  61.6024361   1.6206281
   5.5562868  61.4116249   0.1886828  48.9882851  69.7894669  14.6644230
  49.6203346  70.4962463  14.7955799  49.0967140  69.5383453  13.7471361
  16.4328079  63.0954857  58.8627625  16.8149719  63.2171669  57.9936409
  15.6153612  63.5928116  58.8367348  41.3775787  34.6939049  57.5923576
  41.5259895  34.2629814  58.4340897  41.4886436  33.9982758  56.9442825
  30.5817986  59.8927650  11.6682940  30.3168945  60.0565033  10.7631712
  30.6836147  60.7648392  12.0495462  83.8607483  31.4928970   2.8391714
  84.5270615  31.7939720   2.2214253  83.2294464  32.2112732   2.8794773
  40.5625763  29.1048946  12.0644054  41.4425201  29.3554630  11.7830687
  40.5973129  29.1412144  13.0202856  29.7085514  62.6919518  63.4482040
  30.3524933  62.0439148  63.1625061  30.1672821  63.2099686  64.1096039
  19.6503029  22.6690750  86.1743393  20.1445503  23.2670975  85.6137009
  19.6298141  21.8455887  85.6868134  54.9707222  24.0749378  67.2799225
  55.4785995  23.8668938  66.4956970  55.4990120  23.7383251  68.0036926
  67.2928085  17.1634159  85.6830292  66.8218842  16.4057751  85.3359833
  66.6038284  17.7653084  85.9645615  71.1144104  44.6831551  56.9339294
  70.7059479  45.0262909  56.1391640  72.0503845  44.6665077  56.7341652
  51.7245178  34.6039047  25.7933998  50.9791718  35.0380058  25.3783760
  52.3994942  35.2808914  25.8417091  42.8680992  24.1382179  76.1945496
  43.5116425  23.6584435  76.7159882  42.0627365  24.0961876  76.7101593
  34.0256844  32.2010345  12.8004036  34.5084991  32.9871750  13.0555544
  33.1511078  32.3270798  13.1684570  13.1727686  56.3552094  65.5806732
  13.4750471  56.4991875  66.4774017  12.2286425  56.2217941  65.6646805
  59.7334061  61.3209724  61.1880188  59.8722076  62.2315865  60.9277306
  59.1915970  60.9523621  60.4903069  47.4276695  41.9587440  25.7843170
  47.6124763  41.9592743  24.8451271  48.2886238  41.8953552  26.1977997
  28.3825073  70.0052032  -0.1196499  27.9209957  69.8058014   0.6948923
  29.3059864  69.8610382   0.0868317  82.6331711  18.5663223  54.9324837
  83.4150772  18.0160370  54.8873672  82.9645386  19.4351845  55.1594276
  78.2550125  25.4507294  88.4427490  77.7182693  24.9813862  87.8041153
  78.5140610  26.2549763  87.9929581  37.7322922  70.5680542  63.0294342
  36.9244537  70.2173538  62.6544228  37.9738045  71.2882462  62.4469986
  60.5619431  31.9275227  61.0555954  61.2497711  31.3227367  61.3337288
  60.0437202  31.4272900  60.4251633  45.0343094  58.0399132  65.4913864
  44.4392433  58.3759727  66.1616058  45.7176552  57.5853386  65.9839630
  54.5641365   7.1412377  42.5870247  54.8284035   7.9976797  42.2510109
  53.7219009   6.9683757  42.1663208  46.7108421  59.0190048  15.2974739
  46.3435440  59.7886009  15.7322664  45.9949532  58.3836479  15.2900267
  29.8393555  57.5867119  68.8587112  29.4766102  57.8997803  69.6873474
  29.9620399  56.6466560  68.9909058  10.5442562  20.2113323  79.9135361
  10.1830683  20.2376099  79.0274887  11.4470234  20.5132980  79.8132401
  83.1253738  36.6238823  57.6902962  83.8710022  36.6617393  57.0912590
  82.3625259  36.5402260  57.1182022  85.0764084  25.3977013  86.7415390
  84.7455139  25.9852409  87.4209061  84.3235931  24.8552170  86.5065689
   5.7297430  27.7213058   5.4160075   6.2688651  27.2277679   6.0340691
   5.6589756  27.1504288   4.6509423  60.4906006  59.8343620  50.8639908
  61.1043243  59.5415192  50.1903305  60.0954208  60.6265297  50.4999313
  49.2641449   1.0721927  64.1262817  49.8628235   0.3280941  64.1905594
  49.5525780   1.5449150  63.3455276  56.2689552  32.8714714   9.1080418
  55.8069191  32.2208138   9.6366224  57.0450859  32.4121361   8.7873144
  28.2779617  69.6692505  78.6667633  29.0545807  69.1287689  78.5219345
  28.0400085  69.9850922  77.7950668  24.4672775  39.8231430  11.9638987
  23.9182568  39.7293282  12.7423639  24.0001411  39.3406868  11.2818031
  20.0185432  10.6306095  58.5725517  19.3858490  11.0183859  57.9679375
  20.8556194  11.0261374  58.3294640  72.5941086   2.3023059  60.0419960
  71.6956863   2.2892702  59.7119865  73.0801239   2.8116386  59.3934593
  47.3653488  56.8527985  66.5601349  47.1419678  56.9927940  67.4803162
  48.2699356  57.1564674  66.4843826  28.8297501   2.0363917  60.9010277
  28.2856255   2.5722148  60.3239174  29.0171051   2.6040096  61.6486473
  65.9306335  10.1070766  38.1500244  65.6250076   9.2665710  38.4911575
  66.1682739   9.9244642  37.2409515  59.3146439  68.9724197  45.4131851
  59.9268646  69.4220963  44.8307686  58.4971428  68.9327316  44.9168472
  81.7327499  42.3977966  56.4296379  81.4641495  41.8357735  55.7028542
  80.9122772  42.6500473  56.8532333  30.5648289  53.5199203   7.9248357
  30.0877113  52.7328415   8.1876965  30.8449688  53.9168243   8.7495899
  24.1501980  69.4349365  62.7186699  24.6433201  69.7216644  61.9500046
  24.8201427  69.1535873  63.3417664  24.1717510  57.2763596  22.5259171
  24.2801189  56.4867477  21.9958191  24.5243912  57.0392876  23.3836308
  45.9268188  40.2192192  17.1067543  46.5174637  40.2958031  16.3574181
  45.0502815  40.2933922  16.7293777  37.2845383  23.6096725  13.5437965
  38.2415352  23.6003819  13.5610714  37.0475121  24.4777374  13.8701649
  16.2586174  18.1762829  15.9115963  16.3687572  18.3537579  16.8457279
  16.2475662  17.2211990  15.8489294   5.2527957  21.4600468  68.0674438
   4.4069748  21.3518562  68.5023193   5.8981462  21.2646961  68.7468491
  63.0015411  39.2576942  73.3303375  62.8970451  38.3124390  73.4389877
  63.5738487  39.3494110  72.5685730   8.7094975  60.3606911  84.9366455
   8.9987726  59.5780716  85.4057465   9.1060143  61.0878296  85.4165192
  39.6235428  11.9141092  59.1977386  39.9601669  11.1234264  59.6193275
  39.0783157  12.3285141  59.8664856  59.3589020  56.4431572  18.9385452
  59.6992531  56.1368561  19.7791233  59.0637054  55.6476860  18.4954662
  86.1692505  20.1964798  43.9991493  85.4283066  20.5519161  44.4899559
  86.3180847  20.8304520  43.2976074   9.6588907  66.8498611  53.1812630
  10.0679636  66.0282593  53.4530449   8.7388792  66.7520142  53.4266968
  14.6036768  15.4743814  78.4048309  14.0761023  15.9026957  77.7307053
  14.0232944  14.8106174  78.7773972   5.1999006   8.5565691  56.9128036
   5.9056869   9.1439686  56.6425056   5.4691257   7.6955452  56.5928192
   1.3730147  55.8163986  54.3631287   2.0219505  55.3986092  53.7969398
   0.5358499  55.4488831  54.0797157   3.0386550   0.4618449  22.3441620
   2.4786823  -0.3129815  22.3921871   3.9213665   0.1299554  22.5081806
  21.6869335   2.4508076  29.6567268  21.0650635   2.5201132  30.3810921
  21.8316307   1.5101513  29.5544510  52.5227509   6.4140744  46.8440857
  52.3215141   7.1895876  46.3203354  52.1614952   6.6087394  47.7088547
  27.3922901  41.0546227  24.8737144  27.5318336  41.7025070  24.1830578
  26.4420433  41.0237007  24.9846573   5.7444410  55.9904099  26.6826305
   6.2651892  55.7798653  25.9075680   5.4554143  56.8916245  26.5394211
  59.3993187   1.1507273  84.3599548  59.3085213   0.3377089  83.8629761
  59.6299019   0.8663410  85.2443695  23.3538857  14.2924032  17.1968517
  23.6764374  13.4289894  16.9385681  24.0339928  14.8993635  16.9048119
  14.9345903  34.4397583  79.3470459  14.9299374  33.5827827  79.7734299
  15.4810677  34.9856071  79.9124146   0.7607572  38.4951935  68.0769348
   1.6762893  38.4785576  67.7980881   0.7923299  38.3034668  69.0142059
  38.6480522  27.9491692  63.5772362  37.8219490  28.1847000  63.9995003
  38.5391579  28.2253284  62.6672325  54.5325813  50.1676865  63.9358101
  55.3528824  50.6073303  64.1595306  54.1966515  49.8470764  64.7728271
   5.9113111  49.1425781  35.9816322   6.3148856  48.3225899  36.2661972
   4.9753613  49.0153236  36.1366692  10.0966911  50.3024597  47.4489288
  10.0271187  49.4282494  47.0653305   9.3715172  50.3490295  48.0719757
  26.8020153  55.6854477  13.3399220  26.7223415  55.1040916  14.0961676
  27.3840294  55.2193146  12.7397470  33.5790253  56.3636208  58.4994926
  33.6261482  55.4616356  58.1825790  33.2057266  56.8553085  57.7679749
  22.2798290  68.2625961  73.1309128  22.5811272  69.1389313  73.3706818
  21.5923595  68.0634460  73.7664871  79.3951263  62.5453758  36.1585770
  79.9722595  61.7819519  36.1767769  79.3765869  62.8097420  35.2387962
  78.6980209   9.9522562  39.3372459  77.7868271   9.8763437  39.6204338
  78.8759384   9.1304560  38.8798370  74.3974762  37.6411057  15.6787329
  73.6392822  37.9929123  16.1452103  75.0275879  38.3615761  15.6680574
  12.3572645   2.9617100  15.2105608  13.2415266   3.3221991  15.2765827
  12.3168211   2.5860112  14.3311033  62.4743233  13.8414001  70.3994598
  62.4290962  14.7369499  70.7343826  63.3685265  13.7540359  70.0692978
  32.3903427  36.7402916  14.9957037  32.8549652  37.5520973  15.1990023
  33.0105209  36.2344322  14.4706135  70.9577637  70.2279892  35.3843117
  71.4341202  70.9775772  35.0273247  70.2620163  70.6167526  35.9144363
  32.2498627  58.7153358  47.0457611  32.8345413  58.6485748  47.8006973
  32.4765854  59.5523529  46.6405106  24.9638405  61.9026451  40.7118111
  25.6531391  62.5660744  40.6807861  24.1487617  62.4044151  40.7219925
   0.2559947  58.7430305  43.3581047  -0.1017966  58.7271957  42.4704323
   0.3303397  57.8206444  43.6028633  19.2162762  17.8922863  57.8398094
  19.4932518  17.1703300  58.4039841  18.6659145  17.4788990  57.1746445
   4.1560264  12.0829163  40.2921791   4.9144449  12.4971113  40.7038536
   4.0926833  12.4995813  39.4327583  71.0223007  66.4220505  26.0262165
  70.4428329  66.0699158  25.3506031  71.2211914  65.6715927  26.5861149
  62.6720123  62.0228500  30.3171005  62.7141762  62.9672012  30.1665916
  62.8577423  61.6354561  29.4617271  81.7391968  38.8186150  20.5536385
  82.2273865  39.0282898  19.7574368  81.7942734  37.8656197  20.6243801
   2.0577416  70.6061707  46.3607597   2.1108813  70.2789764  45.4627914
   1.2573164  71.1308289  46.3775330  60.2101212  12.8870049  58.1935654
  60.8499298  12.1907339  58.0449562  59.4622955  12.4436131  58.5940590
  20.4644203  57.9441719  88.2747955  19.8233585  58.1640816  87.5988464
  19.9516582  57.5180779  88.9616394  85.3204346  28.5882816  84.9993973
  84.4562302  28.2040577  84.8519135  85.9019089  28.1012058  84.4155502
  36.1899529   1.4875059  28.7223072  35.9930382   2.0063825  29.5021935
  35.4056931   0.9565372  28.5835876   8.3485022  26.6076756  59.3645554
   8.1228113  26.2325993  58.5133133   9.1051378  26.0996113  59.6571350
  62.5085106  40.5350075  64.0733109  63.3171921  41.0160255  63.8975639
  62.1238403  40.9808235  64.8279724  59.0886230   2.7537293  30.6720600
  59.2052803   1.9711558  31.2107639  58.6545830   2.4367497  29.8799953
  30.0641861  57.0722733  22.2317486  29.3132954  57.5299606  21.8537102
  30.5743122  56.7833138  21.4751072  58.7847977  67.0605850  37.4421921
  58.4572029  67.9231110  37.1873398  59.6984062  67.0574036  37.1566353
  72.1406403  39.9645615  81.8631210  71.8155594  39.0644646  81.8435287
  72.9455948  39.9173203  82.3789139  41.1705627  44.0983925  16.2274189
  40.9993858  43.1573410  16.1906872  40.6984634  44.4572182  15.4760218
  39.3925667  43.7114716  83.1305618  40.2084236  44.1455002  83.3800201
  39.6724739  42.9424934  82.6340256  34.3607788  46.2272453  60.1767654
  34.3697853  45.3715019  60.6055489  33.4652596  46.3233299  59.8526611
  46.7747459  45.4408836  34.0329208  47.3051910  45.5219193  34.8255730
  46.7347527  46.3295898  33.6795998  21.4038734  36.6454506  29.5507679
  21.2418346  37.5887680  29.5394669  21.0503311  36.3517418  30.3903961
  42.4113235  34.1966667  66.4444580  41.7124939  33.5436630  66.4062958
  42.5514565  34.3431206  67.3799515  65.1817474  67.2702789  26.5043850
  65.9914398  67.7784195  26.5536575  64.8838196  67.3813705  25.6015396
   6.3058219  15.0159330  71.1666641   7.1174283  14.6264582  71.4919891
   6.0854130  14.4983749  70.3922043  48.8223419  45.3352165  52.1664658
  48.1431274  45.9030304  51.8024750  48.6071510  44.4627228  51.8368034
  82.0227203  33.8016357  72.4592896  82.5792847  34.0299797  71.7147522
  81.8710709  34.6329918  72.9088211  20.0577946  68.4181671  75.1476974
  20.7570782  68.4485931  75.8006210  19.5680904  67.6230850  75.3581009
  64.8149643  65.0714569  63.3128433  64.8217392  64.9086456  62.3696175
  64.3151932  64.3414688  63.6783180  45.0207596  42.4441071  49.0708580
  44.0981255  42.1892395  49.0664825  45.3643913  42.0856209  49.8891716
  20.6827927   1.1711006  19.4462700  21.4797134   0.6736048  19.6296978
  20.7925339   1.4755826  18.5454483  32.1601448  53.3406296  84.1626892
  31.7832508  54.1130905  84.5839844  31.5032787  52.6555634  84.2869644
  63.2035904  54.7976723  10.0543346  62.4870071  55.3809662  10.3043480
  62.8535538  54.2877235   9.3238153   0.1743872  44.4705620  64.8733292
   0.0431080  44.4705696  63.9251785   0.8031540  45.1755028  65.0280762
  83.9991913   9.3464251  66.3765793  84.7104492   9.9445362  66.1472397
  84.2941971   8.9210157  67.1817017  13.8074913  71.6554031  15.9569197
  14.4631805  70.9901123  15.7478857  13.7846556  71.6769104  16.9136047
  64.8010406  70.2335358  62.7898407  65.6882477  69.9976120  62.5188293
  64.5126190  70.8710175  62.1366501  30.1850357  56.2113686  15.7232609
  29.2600937  56.3334732  15.9372816  30.3832474  56.9161148  15.1065912
  83.7422104  21.5233116  31.6264210  83.1969452  20.7380753  31.6745758
  83.1177139  22.2436886  31.5410118  73.8472595  66.2734146   6.6629243
  74.0338058  67.1773453   6.4092698  74.7047348  65.9000397   6.8667955
  11.6473370  12.7029114  73.8385468  11.8774414  12.2309732  73.0382004
  12.4457254  12.6831331  74.3662033  36.9106865  63.1484566  66.1860352
  37.3977928  62.3368568  66.3283768  36.1358299  63.0633087  66.7415314
  55.7618370  15.2444801  32.8416443  55.8943901  16.1903763  32.9044113
  56.5509911  14.9203196  32.4076118  48.3686905   8.0287762  78.4122467
  47.4702454   7.7646370  78.6103897  48.8987923   7.5953822  79.0811234
   7.9692264  17.9054546  22.6229382   8.0300188  17.2842083  23.3486042
   8.7817631  17.7811012  22.1324768   8.1692572  57.7220078  47.7544708
   8.8163424  57.9332733  48.4274330   8.2880745  56.7859650  47.5934029
  81.1817322  55.7983246  25.1886654  80.7438049  55.1591072  24.6266575
  82.1094589  55.7153969  24.9680119   3.9385486  48.2524719  26.5936756
   3.1876421  47.6950455  26.3895988   4.5200381  47.6922379  27.1077194
  62.8358879  65.5448608  60.2636147  62.3578072  66.1187286  60.8622322
  62.7994232  64.6827621  60.6779671  76.9850159  25.6413975  25.3648434
  76.1154785  25.2623730  25.2364597  77.4174957  25.0465794  25.9775295
  57.7729263   3.2379208  55.3064842  58.1452179   3.8528020  54.6743851
  57.0253944   3.7033808  55.6816826  30.4969215   6.7582202  11.8177814
  29.7606316   6.5397215  11.2464952  30.7535419   7.6408739  11.5507603
   3.2580905   2.8452284  23.4055099   3.2040715   2.0785732  22.8349380
   4.1850100   2.9072998  23.6361599  10.8635921  43.9206009  79.9875488
  11.4567232  43.3309441  79.5220108  11.3527908  44.7396088  80.0659180
  65.1894684  46.8214722  86.7665863  66.0659714  46.8399048  87.1508102
  65.1932983  46.0513763  86.1981049  34.6352997  26.3792915  71.6887894
  34.3377266  26.5704536  72.5782471  33.8396301  26.4124851  71.1577072
  49.9029236  48.8128242  16.4287109  50.4537086  49.1960983  15.7460938
  50.3838997  48.9704323  17.2411480  43.4668388  62.8368111  84.2589340
  43.0565796  62.1899376  83.6849365  43.7978287  62.3258667  84.9975891
  23.6472073  28.6147842  65.8836288  24.0352211  27.8172951  65.5235062
  24.3205910  29.2843094  65.7631226   2.2720158  57.1198502  32.3752060
   1.4692270  57.2512932  31.8707390   2.1513526  56.2708397  32.8004723
  12.0290565  68.9539413  83.5437469  12.3976078  68.4002457  84.2320938
  12.4675417  68.6649628  82.7434616  63.6394539  14.3977499   2.4703195
  63.1473389  14.1207247   3.2431800  63.6924210  13.6122656   1.9258559
  46.4344864  52.4044342  11.4481487  46.2107658  53.3225327  11.6007090
  46.2010841  51.9622154  12.2643585  16.3362255   0.2603033  18.1857948
  15.9501972   0.4590737  19.0388508  16.8173332  -0.5554401  18.3248329
  63.5217209  18.1631012  66.0984116  63.9951744  18.1381187  65.2668762
  62.8176270  17.5233707  65.9924469  69.1468277   4.0773721  61.4058914
  69.7564163   3.8756394  62.1157761  68.8323822   4.9595571  61.6036530
  19.1103611  43.2622528  53.4295387  18.5714264  42.8613892  54.1115150
  18.5835266  43.1886444  52.6337662  21.4624653  39.2940598  63.0735779
  21.0229359  39.2440567  63.9224243  20.9799862  39.9669533  62.5933037
  12.9743996  60.4987602  14.7326317  13.7349129  61.0792694  14.7032862
  12.2333870  61.0635223  14.5131350  68.9670029  25.4909477  50.5087776
  69.6980286  25.5046101  49.8909950  68.7248611  26.4110508  50.6136971
  46.1923866  43.3768120  30.3261967  47.0418930  43.8105240  30.4065723
  45.6953392  43.6810455  31.0855522  73.1865387  59.5920639  50.3867493
  73.4311676  60.1796722  49.6718330  73.1376648  60.1588478  51.1565552
  23.5471916   5.9461355   0.7462605  23.8338642   6.3065176  -0.0928914
  22.9990845   5.1975756   0.5107443  57.1465836  62.2305031  10.4487133
  57.3192711  63.0843658  10.8453579  56.9894028  62.4231758   9.5243740
   2.2647593  70.3733673   6.3081112   2.4970796  70.8462219   7.1072774
   1.3345331  70.1723480   6.4105954   1.0678071  17.0974445  81.5479355
   1.1926860  17.8143501  80.9260941   0.1190906  17.0422897  81.6625061
  85.9933395  37.6563187  34.4965324  85.4569855  37.2975388  33.7895432
  86.2284927  36.8959427  35.0282860   4.8821869   6.9070330  62.5077438
   4.6354270   6.2085714  63.1139565   5.3713217   6.4618845  61.8157730
  38.0209312  52.8219452  88.6701050  37.5664749  53.3576393  89.3202820
  37.7193985  53.1610680  87.8273087   3.8149025  55.9739075  50.1130028
   3.4431171  55.3149147  50.6992912   3.0943716  56.5822906  49.9488792
  70.6306992  41.4204254  83.8083420  71.3629837  41.0117760  83.3468246
  70.1009674  41.8147507  83.1154251  80.0350876  28.9056110   0.6865993
  80.9369812  28.6063938   0.8018886  80.0878601  29.5638962  -0.0062979
  19.5879326  42.7065277  72.1543274  19.8930492  42.4087486  71.2973251
  19.9549541  42.0742645  72.7722015  23.6793537  53.5752983   4.1721673
  24.5559921  53.5032425   4.5497174  23.4639339  54.5052795   4.2426143
  49.1869049  42.0132408   3.7754569  48.8381653  41.7826462   4.6365252
  48.5806580  41.6082687   3.1552191  23.1778107  53.0216217  30.7801399
  23.9211864  52.5821609  30.3672237  23.5074139  53.8924942  31.0018959
  59.2183151  56.6701012  47.1689987  59.2523689  57.6200180  47.0561829
  60.1348419  56.4050751  47.2462807  71.6528244  19.0521660  30.6312199
  72.3007660  19.3357544  31.2761898  71.0918884  19.8171005  30.5029469
  62.8703918  40.9233589   8.4056187  62.1329536  40.3442612   8.2130938
  62.9800186  41.4441566   7.6100159  15.0272541  54.4470863  20.0034466
  14.8337116  54.2147102  19.0952759  14.3507299  54.0021477  20.5139122
  64.1895828  27.9424877  48.8260841  64.9784088  28.0441437  48.2934990
  63.5613060  27.5146275  48.2443314  83.7503891  36.4840317  41.5216446
  82.9235611  36.9242249  41.7186546  84.2285690  37.1065445  40.9738731
  18.3863201   3.3348050  22.3309975  17.5167751   3.7273922  22.4084663
  18.8115730   3.5278516  23.1665344  79.6690826  68.1491547  12.1734781
  79.6794968  67.3239288  11.6885920  80.0461731  67.9309387  13.0257788
  76.5357590  13.7338905  55.9998398  77.3058701  14.1704674  56.3639259
  75.9773712  14.4487085  55.6941109  24.0182247  44.1369934  56.6049995
  23.1154652  44.1607628  56.9223213  24.0381069  43.4002190  55.9942627
  67.6504974  67.7815170  17.6776524  68.3895416  67.4497528  17.1677647
  67.9788818  67.8237381  18.5757713  67.5134354  24.1410694   3.6299322
  68.3311996  24.1481686   3.1325042  67.7298508  23.6793880   4.4400225
  57.4874763   3.5515990  41.0928650  56.6601028   3.2232039  40.7409477
  57.2529526   4.3682842  41.5336075  65.8948975  42.0604210  14.4001875
  66.4068451  41.6165009  15.0762644  65.1604919  41.4706039  14.2299223
  30.8101044  32.5217743  72.7779083  31.3849354  33.1399460  72.3266144
  30.3736858  32.0425301  72.0735703  39.4995308  56.8847275   5.2511435
  40.4125519  57.0906296   5.4517136  39.5218735  55.9822807   4.9328289
  67.9678955  14.7829676  67.4577332  67.9982224  15.5787516  67.9888153
  67.0341492  14.5997534  67.3538971  31.8315048  12.3761330  28.2270126
  32.6661491  12.5709562  27.8008175  31.1690559  12.6811495  27.6070480
  48.8589363  50.5933762  63.1323509  48.7437859  49.6908379  63.4296646
  49.2642784  50.5113106  62.2691040  85.1561661  23.5462837  79.7348862
  85.2941437  23.9933243  80.5699615  86.0153046  23.1895561  79.5093613
  74.4981155  64.7198715  24.8971920  75.0573044  65.2496490  24.3289700
  73.8483963  64.3391495  24.3063087   6.5231867  16.1791153  12.6434345
   6.0491920  16.9663086  12.9115505   6.7718854  15.7574673  13.4659872
  73.1596146  30.2368221  63.0122833  72.5469971  29.8728275  62.3731918
  73.6070862  29.4732685  63.3769569  19.0862103  16.2397194  10.1425228
  19.2105618  17.1036758   9.7496519  18.2890549  16.3267765  10.6652040
  53.2334633  46.8009644   8.1812468  52.5122986  46.2413025   7.8932633
  52.9010239  47.2345505   8.9671955   7.7615294  43.1226997  22.6909542
   8.1439495  43.9185524  22.3213558   6.8484697  43.1401825  22.4041634
  54.5591507   9.7842808  36.8916626  54.8654594  10.3210373  37.6226196
  54.3196068  10.4165545  36.2141075  18.9522209  65.5021973  24.8969154
  18.5085926  64.6596756  24.9948425  18.3660336  66.0186844  24.3438740
  53.6264000  65.1745529  37.1234093  53.1902618  65.3271561  36.2851181
  54.3849220  64.6335983  36.9037819  77.3043289  27.0467434  11.0452175
  78.1325760  26.5852222  10.9139137  76.6410217  26.4533825  10.6928291
  60.0789604  58.3489838  74.0163040  60.2386398  58.8688850  73.2286224
  60.4509506  58.8708992  74.7272568  15.9149780  19.4874554  85.3569717
  16.2224445  20.2753506  84.9087372  15.1661806  19.1935387  84.8381805
  65.7181778  27.5794201  75.3636017  64.8889847  27.6220608  74.8873138
  65.6855087  28.3207836  75.9682007  11.1911945  19.4763966   3.7426000
  11.1453447  18.5239525   3.8261514  11.1148539  19.7995338   4.6403670
  24.4847794  50.0970078   4.9816351  24.4491272  50.9274521   5.4563203
  23.5695438  49.8294792   4.8979511   7.5023561  42.3949776  71.5626450
   6.8614750  41.6901817  71.4690094   8.0856276  42.2897453  70.8110123
  67.1624680   1.7314001  40.3845749  66.4486008   1.7465670  41.0220680
  67.5004730   0.8367659  40.4247322  67.8137283  32.2005272  55.9723930
  68.0691452  32.4148331  56.8696480  66.9683914  32.6336861  55.8540573
  20.6025276  60.9920044   0.5766739  19.9315434  60.4847336   1.0334961
  20.2055645  61.8535156   0.4484029   3.3496523   8.2632475  14.3811769
   2.7798731   7.5951648  14.0000610   3.5941598   8.8197117  13.6417198
  86.5621796  43.3247604  81.3082275  85.9446716  43.2401047  82.0346909
  86.3134995  44.1420746  80.8765106  78.5379410  52.0398712  81.3103180
  77.9604568  52.6103706  80.8031006  79.2911301  52.5905266  81.5241394
  75.9565506  37.4644127  50.4398499  76.2791519  36.9733429  51.1955032
  76.4352951  38.2927246  50.4703598   9.1687202  21.2657681  58.1107521
   8.7690573  20.4389935  57.8406677   9.5451040  21.6237602  57.3067551
   7.9326954  50.5708084  18.6163807   7.9129801  51.3624878  18.0787125
   8.3623619  49.9172020  18.0646381  48.5691681  44.8533516  67.8544388
  48.0700798  45.1225052  67.0832748  47.9104004  44.7456245  68.5404739
  60.0921211  27.3592510  18.1257420  59.6264305  27.8460140  17.4457264
  60.2418976  28.0011749  18.8198109  23.6027336  38.1977997  64.3529739
  23.5604115  37.2859077  64.0650711  22.8336525  38.6093559  63.9588089
  58.9131088  61.1862030  32.4399071  58.2981262  61.3452606  33.1559601
  58.9081345  61.9992981  31.9348469  46.8422203  32.6382561   2.6702344
  46.5461578  32.8549194   3.5543377  46.4259758  33.2940292   2.1108267
  67.8909683  44.4100800  78.8622055  67.9263840  43.6209526  79.4028091
  67.5733414  44.1043053  78.0125885  21.4099693  31.2016754  28.8300419
  21.7303123  31.6556187  28.0505867  20.7033539  31.7580204  29.1577702
  40.9235306  53.9847450  12.9159966  40.0501556  53.6685143  12.6848164
  40.8968544  54.9224701  12.7257547  85.9110870   3.8661366  70.5880051
  85.5552979   2.9778273  70.6115570  85.7136078   4.1799188  69.7055206
  31.7341690  58.7122002  71.4125671  30.9029484  58.3451538  71.1115952
  31.4838982  59.4688530  71.9427261  32.8043060  66.9688797  30.2542191
  33.4032021  67.4211121  29.6600456  31.9326916  67.2485428  29.9743824
  70.5802994  53.9343643   7.4183931  70.3659058  54.5891113   6.7538805
  71.3657761  54.2754631   7.8460684  47.0303154  18.6376610  28.4790897
  47.6452827  18.3181629  29.1393700  47.4704857  19.3916969  28.0867748
  61.7946968  18.6193657  39.8472137  61.7118340  18.5371494  38.8971596
  62.0509300  17.7454166  40.1418114  49.9503250   6.1286869  83.6193695
  49.0112648   6.0643625  83.7933350  50.2000847   6.9850960  83.9663773
  75.7288513   6.0739908   9.0590219  76.6389236   6.0096798   8.7694397
  75.7660217   6.6158528   9.8472061   1.0070251  53.1550941  82.9142761
   1.9082488  52.8682404  82.7668228   0.9528612  54.0068817  82.4809647
  56.0637932   0.3960407  82.3422852  55.4717102   0.9224564  81.8051071
  55.8664932   0.6566622  83.2419434  70.0919952  59.8702698  39.4926376
  69.6394043  60.6197891  39.1058311  70.1284790  59.2229919  38.7884140
  65.3360367  64.8323746  59.8607368  65.1985397  64.3446198  59.0486870
  64.5190735  65.3134689  59.9924240  36.1613808  40.9090080   9.3178453
  35.8628693  40.4048615  10.0747871  35.4930725  40.7564125   8.6497793
   2.7112105  42.4958763  78.7119370   2.4737825  41.9110451  77.9923325
   2.0675585  43.2030067  78.6682053  15.0329247  44.0739822  45.4441147
  15.5613451  44.8466606  45.2441864  14.7900476  44.1813202  46.3637428
  84.5803223   1.1007135  82.7104874  85.4245605   1.5467961  82.7775650
  84.7378387   0.2327789  83.0821228  10.7082701  63.2662163  16.4306278
   9.9589844  62.8030510  16.8051701  11.1944504  63.5884323  17.1895981
  23.8218346  46.1782265  19.1809025  24.2128487  45.7157516  19.9221554
  24.4354877  46.0372353  18.4599438  15.8151474  64.5709305  73.2689819
  14.9963312  64.2856216  72.8635559  15.5497026  64.9381409  74.1121445
  86.0737610   2.5252430  79.6065140  85.1706848   2.4942472  79.9223022
  86.0681534   1.9913230  78.8120804  24.1245384  44.5564995  83.4981155
  23.2746201  44.6263351  83.9328461  24.4070740  43.6577682  83.6674881
  30.6885567  31.3554630  87.6361389  30.3143616  31.9600182  88.2770157
  29.9983406  31.2416458  86.9827805  52.8608093  49.6724968  35.8681259
  53.3317490  50.0132675  35.1076546  52.0400581  49.3344841  35.5098648
  72.4077072  21.6059933  24.1389980  72.4035110  20.8139191  23.6015663
  71.8171768  22.2068653  23.6846199  26.9265900  25.4760075  86.2477570
  27.6300430  26.0805683  86.0113373  26.4342098  25.9356594  86.9278412
  12.2418385  36.2423019  77.6931229  11.8652401  35.6154709  77.0754700
  13.1807280  36.2269363  77.5074310  35.6024246  47.1779327  23.3727188
  34.6914902  47.0098190  23.6139011  35.9400902  47.7270927  24.0802746
  20.8411026  49.9102325  17.5741901  21.6533451  49.4353676  17.7502594
  20.4641247  49.4665108  16.8144341  63.9197922  18.8905182  57.0775185
  63.3961945  18.9981480  57.8715553  63.5926094  19.5644436  56.4816933
  44.0329018  35.8134422  81.9577484  43.7328148  34.9887886  82.3400116
  44.5293541  35.5514030  81.1824417  15.9875002  63.5659828  24.8260937
  16.8568707  63.2118073  25.0131359  15.6644659  63.0356636  24.0976429
  28.1935616  54.2296066  32.2020073  28.0322094  53.8624916  33.0711594
  29.0006714  53.8063736  31.9092999  83.7499542   4.2692881  48.2078552
  83.4361038   4.5466008  49.0685692  83.0179825   3.7800555  47.8322144
  48.5690002  47.8777046  78.2864838  48.5271759  48.6093636  77.6707306
  49.3871498  47.4299278  78.0711746  12.2752619  20.9611797  61.9242630
  12.8703070  21.5569248  62.3795013  11.4129705  21.1579266  62.2902908
  75.2234802  40.3516045   1.7707391  75.6816101  39.6509399   1.3066040
  74.7382965  40.8141785   1.0874758  13.4587317  70.9528351  76.4862213
  14.0485163  70.2025909  76.5605392  14.0098219  71.6580124  76.1467285
  55.3816452  38.6125603  30.0238590  55.5681915  37.6785355  29.9288368
  55.3217583  38.7498779  30.9692631  79.5618210  30.8970909  20.7330379
  79.9515152  30.9883175  21.6025486  80.3101120  30.8716793  20.1366711
  62.2024345  66.2874603  81.1999969  62.6797409  66.9980850  81.6282730
  61.7585258  66.7071304  80.4630737  18.3455753  51.1039810  88.7586594
  17.9575367  51.2029305  89.6280594  19.2722893  51.3073502  88.8854294
  53.3092041  42.2884674  21.0263062  53.1518211  41.3666191  21.2304096
  54.1023140  42.2831116  20.4904118  17.5855560   8.1614752  83.4876480
  16.7086353   7.9874411  83.1456604  17.4830780   8.1263113  84.4386978
  56.6429672  10.3568764  61.0889511  55.9152756  10.9649639  61.2190361
  56.5285149   9.6966581  61.7725029   9.0789366  50.2488556  84.4550552
   8.2468452  50.6163139  84.7531052   9.4822826  49.8952675  85.2478485
  38.0180016  31.0779228  69.0474167  38.9190178  30.8176079  68.8560104
  38.0420380  32.0347710  69.0570145  75.6785660  61.4376030   5.3952527
  75.6497879  61.6072197   4.4536400  76.5764313  61.1492615   5.5593534
  13.3189678  50.6801529  42.9933128  13.7340822  50.6127739  42.1334457
  14.0341320  50.5476379  43.6155777  23.2066154   0.3546852  64.0038528
  23.3939381  -0.5507929  63.7563667  22.4100285   0.2988253  64.5316467
  25.2188892  56.2725410  66.3838272  24.3091698  56.1090736  66.6326599
  25.4134941  55.5993805  65.7317429   1.8329215  49.1371727  46.2532425
   2.6413713  49.1734505  46.7644424   2.1132238  48.8593483  45.3811913
  78.9595490  17.9267712  72.4660416  79.8927383  18.1007500  72.3430634
  78.5571213  18.7944336  72.5040665  15.9822321   3.1437888  54.2835617
  15.6473541   2.5614493  54.9654465  16.4441929   3.8321488  54.7620850
  77.9057465  61.2527847   6.9034662  77.7832718  62.1988487   6.9822092
  77.8737869  60.9313202   7.8045049  28.5022087   8.4365463  31.2655525
  28.4281235   7.7058802  31.8794498  27.7544708   8.9980278  31.4701462
  46.5899391  33.3826332  11.3115139  47.0144348  34.1440010  10.9160986
  47.1616364  33.1412659  12.0403051  71.8038025  22.9779816  35.3581696
  72.1418304  23.6743259  35.9212608  70.9137650  22.8244667  35.6751709
   0.8621424  40.5298615  27.8081036   1.7307918  40.5651398  28.2086468
   0.3363998  41.1429214  28.3218994  61.8442345  40.0033989  46.6101112
  61.3800201  39.3888397  47.1784897  61.2027397  40.6890793  46.4242134
  80.9256516  43.1617508  85.8135300  80.7929535  44.0546341  85.4951096
  80.0569229  42.8770599  86.0972443  40.2401428  71.1317749   3.6973324
  41.0850296  71.4378357   4.0270591  39.6514816  71.1976547   4.4492440
  55.5995483  38.5988655  63.7656136  54.7060242  38.4049606  63.4823303
  55.4939995  39.0246582  64.6163712  44.1304245   2.3072011  88.6861649
  43.9255676   1.3723475  88.7038879  44.0695267   2.5831211  89.6007156
  69.0664902   9.6003952  48.9848251  68.4619827   9.6241264  49.7266045
  69.7538757  10.2251453  49.2159538  58.7573814  54.0475655  32.1453247
  58.0535507  53.7607498  32.7272072  59.1184845  53.2362175  31.7881870
  66.6781235  41.1961479  20.7854996  67.2080460  41.9438133  21.0619125
  67.2694550  40.4462776  20.8507156  10.7662439  46.1938858  36.7816277
  10.8554249  46.1566048  35.8293228  11.6092720  45.8849297  37.1134148
  57.8870697  20.3121357  60.6863785  58.0739250  21.1991997  60.3790779
  58.0768700  19.7527752  59.9331703  63.1203728  44.5824814  18.8348598
  63.6435547  45.1680450  19.3822422  62.6353531  44.0416565  19.4581528
  38.9970055  65.1184692  39.1668854  38.2579117  65.4041595  38.6299019
  39.4824715  64.5148926  38.6045227   1.1657043  27.9583645  15.5555201
   0.2776234  28.3128929  15.5124617   1.0421857  27.0145512  15.6564674
  85.5306931   7.6528306  43.9727211  85.9646988   8.5059814  43.9700851
  84.6321716   7.8403521  43.7011909   0.5369909  47.7578011  61.7045975
  -0.1222201  48.3961105  61.9770508   1.3390563  48.2702713  61.6031227
  29.8862152  16.2344170  77.0034714  30.7222996  16.5445328  77.3513489
  29.3012390  16.2224503  77.7610245  48.1399078  53.6115532  78.0228806
  48.5692863  54.3186646  78.5043945  47.3238945  53.9986877  77.7058945
  56.4569206  21.6203976  43.3542404  56.4477272  22.4623241  43.8095512
  56.4480362  20.9688206  44.0553856  24.1833687  29.1142464   7.2613182
  24.0494118  28.7692165   6.3785710  23.3972721  29.6309032   7.4383812
  67.3871002  71.2383957  20.1743698  66.4860840  71.4851379  20.3830070
  67.3224030  70.7826157  19.3351364  18.1581993  69.5112457  72.0008087
  17.6250362  68.7969818  72.3497925  18.4042358  70.0245590  72.7703629
  56.3746719  51.6000786  65.3523636  56.1693764  52.5309525  65.4393387
  56.9549828  51.4128342  66.0902023  33.4914055  32.3623238  78.6443481
  33.9184990  31.5311584  78.8516846  34.1261673  33.0294762  78.9055328
  23.1967983  46.3984756  59.1975899  23.7855587  46.8939972  58.6283379
  22.7361031  45.8035278  58.6059570  32.9750519  70.7268143  24.4154911
  33.0689583  69.9498367  24.9665966  33.1888809  70.4222107  23.5336037
   8.5065098  43.1282120  86.6497955   8.4352293  43.0974083  85.6957550
   7.6287894  43.3668098  86.9479752  49.8604889  28.1858616  79.6950531
  50.1939392  28.8839207  79.1313553  48.9107132  28.3045540  79.6869125
  11.2828217  61.1489220  62.8777924  11.0327759  60.2257042  62.9149132
  10.5370045  61.6144676  63.2562866  38.4148788  66.9973679  43.7451668
  38.8281555  66.4467316  43.0801620  38.0600357  66.3776398  44.3825455
  67.6188278  47.9669647  37.7669830  67.4963531  48.2421303  38.6755638
  67.6430130  47.0109253  37.8074532  62.1172714  28.6209965  64.4086151
  62.8743935  28.1063862  64.6882095  61.4112434  28.3453827  64.9932480
  21.3161545  10.9128256  20.7357140  21.4909935  11.8144560  21.0053921
  20.4002762  10.7655573  20.9717407  81.7791824  70.3490448  23.1893768
  81.6229477  71.2933273  23.1774254  82.2393799  70.1928329  24.0140305
  38.8788910  62.5193748  77.8010025  38.9719620  63.0495987  77.0095291
  38.7119637  61.6339607  77.4778824  47.7697487  12.2702751  52.9258842
  47.8388023  12.6755276  52.0614586  48.6214600  11.8561897  53.0650101
  71.4449005  38.7465401  50.5289154  71.7573853  38.4380150  49.6783905
  72.1128693  38.4552345  51.1495514  80.7859039  12.0327768  48.9602127
  80.1325073  12.4351082  49.5324287  81.5316696  11.8577557  49.5341835
  53.7616234  37.7131767   5.9252133  53.1285973  37.7580948   6.6417971
  53.3983078  38.2844200   5.2485189  83.1424713  61.8541718  30.2937126
  83.2128067  62.1120491  29.3745899  84.0332718  61.9360924  30.6342926
  67.4364166  28.7744656   5.8405895  67.5760117  27.8788490   5.5329957
  68.1517181  28.9301338   6.4573040  72.3532486  15.5518551  56.2220306
  72.8946609  14.9000053  56.6672249  71.6331558  15.7204857  56.8297005
  32.3716888  61.0033989   7.2779374  31.9013462  60.4991951   6.6140189
  32.6682358  60.3488350   7.9102669  47.1454506  43.4063110  74.6339798
  47.8102150  43.2127991  73.9730148  46.4989395  43.9416275  74.1738815
  79.3234482   2.2778571  22.3298225  78.7869034   3.0675290  22.2607555
  78.7615967   1.6448859  22.7769260  27.9745674  49.8818550  82.3816681
  28.7705498  49.4014969  82.6094818  27.8954105  49.7782249  81.4333878
  21.2690964  52.1090508  12.4211130  21.9672775  52.6127434  12.8395262
  21.4193039  51.2080383  12.7071962  31.7065754  23.2274628  59.2405281
  32.0650482  22.8379650  58.4430199  32.4718437  23.3928452  59.7912064
  74.6072845  42.9347305  19.1963539  75.5172501  43.0039139  18.9075527
  74.6599808  42.9168205  20.1519356  81.0514221  39.9877548  13.7147732
  80.5966110  39.4645691  13.0547295  81.3302689  39.3520660  14.3738499
  79.0042648  32.6648178  64.9485168  78.9393311  32.0223122  64.2419815
  79.8214798  33.1314735  64.7735367  67.7769165  46.6309319  68.4005508
  68.5981903  46.7921944  67.9360809  67.3001633  47.4586296  68.3385315
  19.3764153  60.2028275  49.9178123  19.7780952  61.0661163  49.8197365
  19.9841347  59.7179298  50.4761925  15.2896461  43.7200737  56.4763947
  14.4156065  44.0972252  56.5766029  15.5985622  43.5898857  57.3729744
  50.2627220   3.3976009  83.6656876  50.1865196   4.3427305  83.5347137
  50.5237007   3.0574710  82.8098679  24.4581776   6.5299273  32.7840538
  24.6851921   7.4397621  32.9761391  25.2916489   6.1181169  32.5560799
   1.2911456  64.8486633  49.5672073   1.1857476  65.1861725  50.4567070
   2.2363961  64.8606796  49.4169121   0.1811372  32.1532021  74.9956589
   0.9436275  32.3589706  75.5364914   0.4731674  31.4361153  74.4328690
  28.8570652   2.1836083  85.7895813  29.7435436   2.0017066  86.1015091
  28.7183533   1.5542700  85.0818176  79.0890961  13.6941490  41.9799080
  78.8469620  14.3418941  41.3180733  78.2773132  13.5254717  42.4582214
   3.8589602  29.9150028  27.0704994   4.3034153  30.7209301  27.3335056
   2.9370327  30.0725002  27.2741566  67.8078384  46.0262451  83.3570023
  68.3283691  45.4574509  83.9242325  67.5901947  46.7787361  83.9071121
  72.0338211  65.7128143  67.8262863  72.7304764  66.1316681  68.3317184
  71.2350922  65.8978577  68.3202667  52.2967491  66.4368439  43.1117592
  52.5259514  67.1833496  42.5581970  51.6277390  65.9663696  42.6144562
  59.3163261  43.0864449  54.6761360  59.9148979  42.3883743  54.9419289
  58.5021057  42.8937111  55.1410370  33.2768059  28.8668804  81.6377106
  33.3190460  28.1785755  80.9738693  32.9238281  28.4304905  82.4130783
  75.2948685  56.4593506  56.3435173  75.6828461  55.7980385  56.9165535
  76.0244522  56.7689743  55.8067894  16.1509247  69.4448013   0.2036874
  16.4857178  70.2506943   0.5969750  16.4604836  68.7488251   0.7833695
   4.9680791  59.7650757  75.6767731   4.1575503  59.2587776  75.7309723
   4.7645812  60.4789810  75.0724869  59.6932144   2.0602245  78.8101044
  59.4798203   2.8147652  78.2611389  59.3573151   2.2914393  79.6760941
  44.1546593  68.1287079  68.3084335  44.5367851  68.9755554  68.0781021
  44.8610649  67.4995041  68.1623611  71.6422729  51.6469574  85.2190399
  71.5077362  52.5053444  85.6206741  71.3928375  51.7693596  84.3030548
  79.4708786  22.7538872   7.8625407  80.0587463  23.5069084   7.9225469
  79.3346405  22.6306458   6.9231348  57.7054787   5.8668027  83.7167892
  57.4096680   5.1411829  83.1670532  58.3312645   5.4690480  84.3221130
  82.7341995  43.1690063  28.3308620  82.0388336  42.5256920  28.1935768
  83.4913177  42.8049011  27.8721333  60.7160835  66.7317581  61.9039574
  61.0105515  67.2722321  62.6370430  59.9750824  67.2121658  61.5346909
  65.8758163  67.2454681  73.9592056  65.7903442  67.0026016  74.8811340
  65.6863937  66.4385681  73.4804001  72.1086426   8.8319359  87.5532532
  72.2629547   8.0021572  88.0047913  71.6259689   8.5885925  86.7632904
  16.1716290  13.6251936  32.7727699  16.2681408  14.5654316  32.9239998
  16.9916592  13.2462740  33.0893173  61.6040497  53.7531242  25.6795387
  62.4061966  54.2705002  25.7510567  61.1119843  53.9631958  26.4732475
  16.1258640  43.9006538  10.3648052  16.7235756  43.2945938  10.8025990
  15.8132153  44.4753304  11.0635405  31.4950294  60.3053284  20.5050468
  31.9114246  59.9510002  21.2907314  30.7879562  59.6901436  20.3105469
  77.3226395   3.4159119  38.1258888  77.2127075   2.8815327  38.9123917
  76.5744629   4.0128784  38.1354218  76.4236526  61.1485634  37.3239059
  76.8224106  60.5743790  37.9777641  76.7937927  62.0123100  37.5060349
  37.3231392  29.9038925  87.1095428  36.9767265  29.9435196  88.0009766
  37.3984337  28.9680252  86.9232254  54.7902832  18.7669735  55.7745514
  54.0900192  19.1091957  55.2189064  54.6181107  19.1449585  56.6369400
  23.2279053  67.3305588  39.9979782  23.6916542  67.6170731  40.7847939
  22.3027267  67.3578110  40.2419777  54.2461548  27.9901924  74.4095230
  53.8144798  28.0812893  73.5600662  54.8807945  27.2851963  74.2813034
  70.1165771  51.3763123  28.1538219  69.1826859  51.5811424  28.1999187
  70.5166779  52.1640930  27.7856522  74.6863403  65.1537781  74.6078949
  75.0702209  65.4933853  75.4163055  75.3999176  65.1885757  73.9708405
  32.4664764  70.0336075  72.3024292  32.5568008  70.1240311  73.2510605
  31.5695038  69.7244263  72.1756287  58.1159821  20.8150864  10.2357178
  58.6076088  20.9140186   9.4203968  58.5856628  20.1342735  10.7175102
  65.5092926  70.1377258  52.8064003  64.6804276  70.2607803  52.3437271
  65.2859116  69.5845947  53.5549850  80.4877853  60.2473259  55.8367310
  81.3218842  59.7816277  55.7764511  80.7012177  61.1516533  55.6067924
  34.1357880  54.9641724  23.7937450  34.7359695  54.3728905  23.3394318
  34.5207100  55.8326912  23.6765213  17.4779587  37.1170311  84.6966248
  17.4435139  36.8112526  85.6030121  18.1613255  37.7872810  84.6957703
   3.6776245  51.9780350  36.6841507   3.4538250  51.5756073  35.8449821
   3.0632286  51.5900917  37.3072472   7.4314651  34.8781281   1.1270963
   6.5097489  34.6960258   1.3101541   7.6645136  34.2606201   0.4338400
  66.6226959  31.5982838  89.4247131  66.8351440  31.6537151  88.4930344
  65.7963028  31.1161346  89.4536591  85.9599838  17.4342194  58.1083412
  85.8707886  18.2523327  57.6194992  86.3177490  17.6992970  58.9556770
  34.6637154  40.0460014  88.2300110  35.4755287  39.5437775  88.1596069
  34.1505127  39.5803642  88.8903427  50.6462708  63.5094910  19.2058067
  51.0978966  63.1801872  19.9828663  50.8326035  62.8604240  18.5274105
   5.7484245  44.0043030  42.2371788   5.1975951  44.7870026  42.2229614
   5.5719085  43.6026192  43.0878983  23.1180534   4.9975486  38.9857788
  22.5645161   5.6924400  38.6294746  23.5292225   5.3900437  39.7559204
  55.7282181  13.2053862  58.6641083  55.4907188  13.1931601  57.7369232
  56.4586220  12.5905027  58.7323914   5.0856123  20.8059540  10.3919067
   5.1943340  21.0945854  11.2980547   4.1464572  20.6435661  10.3033075
  38.8062134  48.5208702  86.4979401  38.2657661  47.8820114  86.9627075
  39.7032700  48.2104797  86.6211319  74.9289398  39.4635201  82.7692108
  75.5483475  40.0373459  82.3183365  74.7913132  39.8807526  83.6196289
  25.1681824  31.9583893   6.4145255  25.3183880  32.2566414   5.5174656
  25.0472641  31.0121727   6.3352528  71.0075302  28.9003830  10.0458012
  71.6846161  29.5644951  10.1752176  71.4525223  28.0692329  10.2113543
  14.6220913  46.2855606   4.3256311  14.1794214  47.1236191   4.1917305
  13.9114399  45.6565666   4.4504309  78.8094330  60.3325462  41.1142845
  78.9100418  60.5143242  42.0486641  78.9220886  59.3848152  41.0411682
  81.5138016  17.1023560  52.9153366  81.6763992  17.5015774  53.7699814
  80.6225433  17.3702831  52.6914940  26.1106720  56.4108658  44.6743202
  25.2776146  56.0792160  44.3392754  26.1685562  56.0592499  45.5627136
   3.0148833  32.6140289  15.5218973   2.5941811  31.7632504  15.3977194
   3.7054234  32.4483528  16.1637211  48.5431671  31.5692139  13.1776609
  49.2040138  30.9680290  12.8340168  48.9135056  32.4400253  13.0335531
  34.6667290  52.6003304   8.9728394  34.0318527  52.4586105   9.6750336
  35.4384651  52.9535980   9.4153976  73.4022446  48.0344086  78.3455505
  73.7511063  47.1436653  78.3123779  74.1345901  48.5670624  78.6556854
  11.9391584  40.5028954  32.0967445  12.4747276  40.5158615  32.8899841
  12.5704365  40.5705376  31.3804016  55.9010849   9.0884113  63.3908844
  56.2775154   8.4036655  63.9437485  55.3812370   9.6224289  63.9915619
  23.1426430  46.2968788  86.4254074  22.8746567  47.2157440  86.4154053
  24.0835056  46.3198776  86.2508087  58.5602989  41.9633560  33.0775299
  59.2079544  41.4011650  32.6524239  58.3674202  41.5230484  33.9052734
  78.0207748  31.0809097  16.0906525  77.9798737  30.8267422  17.0125847
  78.9442368  31.2814541  15.9382372   3.9458115  70.6528549  81.7201309
   4.3787079  69.8118210  81.8667755   3.4232740  70.5186234  80.9294586
  21.9791718   1.2404649  78.0310822  22.2506847   2.1578364  78.0003891
  22.7612991   0.7505726  77.7770767  50.2876472  43.9051895  57.1404877
  50.6960678  43.7298393  56.2927399  49.6979523  43.1642418  57.2800827
  36.9224930  63.0669937  53.6849670  36.9696388  62.4539070  52.9513931
  36.6460609  63.8934555  53.2890129  65.3948517  66.4429855  66.6335831
  65.5990753  65.9050140  67.3985062  65.2495804  67.3197021  66.9892502
  73.0186615  71.4125366  10.6528606  73.0064316  72.1052246  11.3133640
  72.2995758  70.8317566  10.9015255   1.9414103  60.0509491   4.4209132
   1.3454143  59.7474022   3.7361658   2.2806451  59.2479935   4.8164072
  78.4267731  29.7424660  24.0418835  79.3500137  29.5434284  23.8861656
  78.4397125  30.4503231  24.6860905  14.5770693  70.5051880  27.5766354
  14.4010592  69.5785675  27.7397957  15.4702339  70.6388092  27.8938656
  64.2345123  69.0994568  32.2295456  63.8700104  69.9139481  32.5759201
  64.0683060  68.4521713  32.9148407  15.3153982   5.6117201  40.0570068
  15.9532547   6.2802777  40.3068085  15.7597265   5.0964394  39.3837395
  42.6341858  42.5186729  27.5557098  42.7813225  42.5257416  28.5015068
  43.5125809  42.4844704  27.1769161  86.3695602  67.1456223  12.3959370
  86.5165634  67.9014816  12.9645271  87.1497803  67.1066589  11.8427963
  79.2864380  18.3989887  51.9262199  78.7213211  18.1780338  51.1859131
  78.7949295  18.1133728  52.6963387  69.7904053   4.4612050  13.6727819
  70.5203857   4.5361834  14.2873898  69.0101318   4.4554625  14.2272005
  37.8955879  27.8050137  81.1894608  37.7345200  27.2028465  81.9158783
  37.0585976  28.2502346  81.0573349  29.4267292  56.2316322  50.3477821
  29.0947552  55.9123840  51.1868935  28.6635761  56.6207542  49.9206848
   6.1816297  41.2212486  27.8324833   6.8162913  40.7059288  27.3346100
   6.7066488  41.8943214  28.2655640  43.2440071  44.6273384   8.6383266
  42.8007431  45.4118423   8.9612904  42.7143173  43.9007187   8.9664812
  75.1306305  37.3185005   3.1327755  75.0738297  38.2192039   3.4517479
  74.2205048  37.0540085   2.9988210  33.2387161  30.3727055  87.7218704
  33.8882256  30.9712009  88.0908813  32.4567032  30.9117031  87.6028366
  35.5220146  11.5664597  72.5002899  34.8548889  10.8945532  72.6407013
  35.8817291  11.3697577  71.6353302  26.0570698  69.6626587   1.8059833
  26.3270206  70.3563232   2.4077997  25.4570751  70.0936966   1.1973428
   3.8956695  34.3507042  69.7406006   4.0452337  35.2159348  70.1217041
   4.7425613  33.9097061  69.8078766  42.0281067  26.7240715  61.8092384
  42.2998238  27.3802299  61.1674767  41.5914383  27.2275181  62.4963303
  14.6099634  64.4588547  77.6405945  13.8816528  65.0658035  77.5086517
  15.3568888  65.0217056  77.8443909  12.8132935  16.3099098  76.2334824
  12.1011143  15.6819124  76.1124344  13.1488867  16.4645920  75.3504868
  65.6909485  55.6724892  60.4624252  66.5454102  55.4905891  60.8536339
  65.1272888  55.8849716  61.2063179  51.0741196  19.6381779  51.5996666
  51.7823982  19.0501003  51.3374825  51.5197258  20.3950310  51.9802513
  81.6349945  35.3861656  12.5616341  81.2865067  34.9833794  13.3569632
  81.2822113  36.2759476  12.5694122  26.7021446  60.4276047  28.7304878
  26.9931202  61.2914772  29.0225258  26.7125683  59.8908119  29.5229397
   2.9298692  46.4804344  78.5453949   3.6425951  46.6937408  79.1476822
   2.1810741  46.9774437  78.8748169  10.4458675  66.7284164  35.3095741
  10.9561348  67.0128632  36.0678291  11.0789108  66.6991425  34.5921974
  34.2725563  69.4337997  18.3868732  34.0924797  70.3705292  18.4664841
  33.4203110  69.0413132  18.1974983  64.5176773  27.6150169  21.8743629
  64.7226486  26.8293324  21.3674927  65.0371246  28.3067188  21.4645462
   2.0102654  17.6927261  25.3480511   1.9070590  16.7904568  25.6505222
   2.8552651  17.9690819  25.7027836  61.3956070  49.5411797   8.0025492
  60.9713440  49.2373009   7.2001204  61.3260307  48.8009186   8.6053791
  71.2269592  71.1448135  84.2234573  71.4499664  70.5952072  84.9747543
  72.0178375  71.1457825  83.6842575  74.0298462   5.0112386  22.5498447
  74.1303940   5.9605837  22.4800816  74.5050430   4.6639476  21.7949848
  49.9429474  33.6128387   3.1280618  49.6857986  33.4491692   2.2206926
  49.1149635  33.6722870   3.6046534  73.5979919  17.7529030  37.3721313
  73.3610458  18.0209751  38.2599525  73.6744843  16.8000698  37.4220200
  84.8987656  63.6471710   9.7498798  84.8878555  64.6009445   9.8300209
  84.8821793  63.4858780   8.8065128  58.9245491  45.1127701  26.1096687
  58.3707924  45.4717140  26.8030281  59.7057381  44.7991180  26.5652943
   1.1516392  68.3154068  40.1027374   2.0569429  68.1086044  40.3348732
   0.7230403  67.4628754  40.0270920  30.4501591  10.4150009  13.5320072
  29.9089470  10.3003817  12.7508640  31.0254116  11.1498442  13.3191147
   5.8867536  39.4795914  50.6594810   6.0952249  38.9431496  49.8946266
   5.1346879  39.0435295  51.0600815  28.3542233  63.9963684  22.3594551
  27.4780006  63.6141930  22.4085217  28.9206696  63.2657051  22.1114578
  44.8824272  28.3881035  15.9119196  45.0588226  29.1590290  15.3726702
  45.4470329  27.7065277  15.5473566   7.3537698  33.4636536  75.1765747
   8.1039953  33.1944122  75.7065735   7.4394946  34.4143639  75.1056290
  58.4461632  18.9201679  17.0865402  58.2232094  18.8344135  18.0134544
  57.9452744  18.2281704  16.6547012  75.5926208  15.2389355  24.1593552
  74.9974442  15.2854319  24.9075718  75.0523834  14.9031639  23.4440708
  71.1152725  50.9176025  14.8396797  70.5345306  50.3655891  14.3159819
  71.4989166  51.5273056  14.2093534  57.1235924  26.8594475  44.2790489
  56.3025284  27.0870647  43.8428383  57.3634567  27.6485367  44.7648811
  79.9832611   2.5337384  86.4181213  80.3911209   3.1245699  85.7850418
  79.7243652   1.7707320  85.9013824  83.7761383  16.8634300  69.6757050
  84.5554123  16.5304832  69.2306137  83.2658997  17.2834396  68.9832687
  13.4811983  67.8697662  81.2398758  13.3827419  67.9623413  80.2922668
  14.1510553  68.5118484  81.4749451  59.9039917   1.1084622  25.8195629
  59.7529488   0.5636607  25.0471592  59.0273933   1.2983947  26.1538277
  53.7293129  15.2035980  74.3883133  52.9813461  15.6228943  74.8137207
  54.0330849  14.5547142  75.0230560  75.3236008  50.8774376  50.1580887
  75.0519028  51.4891663  49.4738388  75.0058441  51.2706757  50.9708748
  84.9933167  61.2087288   5.4075823  85.0174789  60.5927315   4.6753287
  85.8947220  61.5205040   5.4881482  83.8599319  31.2316589  86.0159073
  83.5091019  31.3003693  85.1279678  84.6677780  30.7280540  85.9159470
  79.1757355  30.9817314   4.8063388  78.9375534  31.9055462   4.8842282
  79.7662354  30.8237057   5.5429296  83.3080368  26.7146301  61.0791016
  83.7057648  27.3644714  60.4996643  83.3834991  25.8890285  60.6006432
  29.5668545  70.6129074   2.4872308  29.8137779  71.3337631   3.0665720
  29.7085247  69.8248215   3.0117090  15.3348846  41.8423805  79.6296463
  14.8968306  40.9971428  79.5300674  16.2645473  41.6240807  79.6952515
  38.7532425  12.6573753  65.1392365  39.5094681  12.2430677  64.7236481
  38.2511292  11.9285421  65.5038071  79.0110703   5.6982074  17.3502445
  78.6498947   5.9172916  18.2091904  79.6848984   6.3607168  17.1976891
  20.8269176  54.2872276  34.4412422  20.9704571  54.2640266  35.3873329
  20.4055309  55.1320992  34.2835693  10.6419039  47.8662834  46.4254417
  10.9883890  48.4434967  45.7449989  10.0085154  47.3119583  45.9696198
  37.4377518  61.2926064  36.9430923  37.7501183  61.4683647  36.0555267
  36.4868240  61.3853683  36.8850975  62.1415787  55.0815277  50.8005638
  62.3597298  54.4859695  50.0836601  61.2966156  55.4562836  50.5519180
  66.9614868  57.3644295  28.5537128  67.7843094  56.8967934  28.6969433
  66.4204712  57.1340752  29.3090038   5.6019845  62.1286469  54.8469620
   4.9318347  62.3220253  54.1914215   5.1954279  61.4792442  55.4207382
  40.8635254  62.7711334  28.6742363  41.8113365  62.9048729  28.6760769
  40.7159500  62.0936699  29.3341560  50.0625496  17.0300140  69.9901962
  50.0368004  17.9377327  69.6875076  49.6817131  16.5266819  69.2705765
  28.0686798  61.1499100  21.1537724  28.5983734  60.3876457  20.9200821
  27.5289307  60.8512192  21.8856773  50.3528252  13.1660566  19.1540985
  51.1537094  13.3228035  19.6543503  50.4424553  13.7201099  18.3787117
  80.1309280  28.2752228  82.3484879  80.9605255  28.3746510  81.8814621
  79.8016357  27.4199142  82.0723572  23.3587704  65.3235779  78.1868362
  23.0354977  64.4353867  78.0356979  23.8200874  65.2713623  79.0239105
  57.9975510  42.2008171  82.8922806  57.7020302  41.5520325  82.2535553
  58.1028824  41.7061348  83.7049484   4.2876978   0.0195747  14.5965052
   3.4635913  -0.3493518  14.9142685   4.1290369   0.9627726  14.5586052
  83.8866653  25.9609680  15.7130442  84.5016098  26.3333225  16.3450470
  83.3457794  25.3629856  16.2288876  67.5645370  43.5903091  88.6952744
  67.0909119  44.3163528  89.1011963  68.4878769  43.7923965  88.8463669
  18.3376598  67.0745239  52.6326981  18.1219997  67.6320801  51.8851357
  17.9475975  66.2267761  52.4196243  12.6650620  11.3469410  71.8091507
  12.5629892  12.0857325  71.2091522  13.3895149  10.8395147  71.4432068
   4.6020241  60.4767990  69.2298279   3.9712505  59.8925056  69.6504974
   4.7683358  60.0755272  68.3768616  86.5129089  57.7905273  31.3820477
  86.5608444  58.4871902  30.7273750  85.7089310  57.9736061  31.8681889
  28.7205582  71.4576874  80.9181595  29.2564144  71.0636673  80.2297974
  27.8275719  71.1786728  80.7157745  60.8444023  60.6001740  75.4251099
  60.6629143  61.3583794  75.9804611  61.7028618  60.7830124  75.0432053
  71.5591736  41.2767143  41.9479828  71.1183929  40.6125183  42.4778786
  71.4626160  40.9673996  41.0472984  71.9693832   1.5069653  69.5982361
  71.8471909   2.4272635  69.8313751  72.0654297   1.5118611  68.6458817
  73.1946182  34.9942017  38.9288940  74.0985565  34.9812317  38.6143188
  73.2672501  35.2157326  39.8572693  56.8927307  59.0264282  40.7274246
  57.2109146  58.2753296  40.2265816  57.2333260  58.8867645  41.6110077
  82.6771927  26.7933636  51.0211792  83.5186234  27.0566158  51.3938980
  82.1809998  27.6088409  50.9502792  60.4258308  35.6093521  69.4310684
  61.1050644  36.2681007  69.5756912  59.6031685  36.0924454  69.5090561
  13.0261049  47.3986359  51.0920868  13.7762165  47.7746506  50.6314621
  12.4432726  47.0976524  50.3949890  36.3305779  13.3317833  77.8354874
  36.2821007  14.0713711  77.2297668  36.3038406  13.7318802  78.7046432
  55.4795799  27.5247002  65.1474304  56.0263062  27.1312428  65.8275146
  54.5843315  27.4206467  65.4698181   4.1331844   5.9383283  35.2517357
   3.6588717   5.1596704  34.9602737   4.7307353   6.1384573  34.5312386
   5.6253629  11.2474585  67.1864090   5.7494888  11.2414608  66.2373123
   4.9585524  11.9175787  67.3365250  43.7141953   2.5754671   2.2904503
  42.9173813   3.0532660   2.5207329  44.4261513   3.1740162   2.5164762
  25.7283039  20.5196495  50.7204514  25.5570107  20.7840633  51.6243172
  25.6683369  21.3320351  50.2177887  81.3588867  62.0634003  74.9895782
  81.8682480  62.8004379  74.6525955  82.0123520  61.4700737  75.3599472
  81.2932434  32.6043358  77.1634750  81.4639130  32.3363380  78.0664062
  80.3498611  32.7639389  77.1352539  66.4653244  38.2004166  85.4918671
  66.6335907  37.4676666  84.8994217  66.7495804  38.9732018  85.0037842
  73.9237061  68.2997055  36.7994576  73.9944763  67.3610001  36.9728279
  73.2534943  68.3678131  36.1194496  52.9049911  66.9364395  73.6234818
  51.9654121  67.1021881  73.5463181  53.2766457  67.7800369  73.8812485
  84.4456787   4.9601164  72.5611420  84.7384491   4.4858747  73.3393555
  85.0321426   4.6635623  71.8651962  51.8710442  10.5255299  67.7032166
  50.9462700  10.4170761  67.9251556  51.8665657  11.0779057  66.9214859
  74.0237274  50.5142708  44.3394127  73.7929153  49.7282944  43.8442345
  74.9471970  50.3950081  44.5612526  38.8249855  40.4080391   3.8129537
  39.4573708  41.0114937   3.4228754  38.7487373  40.6960373   4.7226100
  45.0472641  18.1310844  77.5279999  45.2826691  18.2603245  76.6092377
  44.8430901  17.1982460  77.5939941  47.8881607  61.5347748  60.1642113
  48.2762566  61.8431740  59.3453712  47.8733749  62.3079071  60.7283707
  66.8405457  63.8177261  55.6041374  66.3419113  63.0533752  55.3154144
  66.6581116  64.4861450  54.9437103  27.9082260  24.2315655  78.1086960
  27.8072338  24.2397099  79.0605240  27.0143528  24.1613808  77.7735901
  36.9556122  47.3931160  34.2286263  36.5917549  47.4753380  35.1101494
  36.5769081  46.5827637  33.8878288  51.5787506  36.5713158  73.6614075
  51.7457123  36.3078270  74.5663605  52.0377159  35.9181709  73.1332169
  65.2060928  35.3223991  35.8653069  65.7343063  35.6037788  35.1182823
  65.2876587  36.0355797  36.4985123  13.1034288  25.5780010  63.8846741
  13.0868158  26.3608818  63.3341713  12.3594685  25.6860237  64.4772034
  86.1187210  59.0940399   3.5645275  85.8547516  58.1753578   3.6152465
  85.9689407  59.3361778   2.6506529  60.6831093  15.5873623  58.4309921
  61.0098495  15.7795191  59.3099403  60.6077003  14.6334457  58.4067383
  80.6279144  24.3955517  26.7589741  79.6931686  24.3464756  26.5587788
  80.9821243  23.5598087  26.4551640  50.0964851  47.7922630  75.5181351
  50.6583405  48.4575424  75.1206970  50.5536156  47.5410614  76.3207321
  78.1696320  51.1996536  68.3236237  77.6439667  51.7004700  67.6998520
  79.0546951  51.2173233  67.9594955  73.3127975  41.2621193   0.1145636
  72.5884476  41.0986519   0.7185686  73.3831177  42.2160149   0.0774845
  86.7806396   3.0120220  14.2772856  87.1666946   2.5315902  13.5449047
  85.8528290   2.7777011  14.2549667  13.7704964  69.3923645  12.1355038
  14.0050268  68.7144394  12.7692604  13.6702766  70.1865311  12.6603622
  21.6652088  49.1651878  26.7263298  21.3317738  48.2921143  26.9331970
  21.8066387  49.5758705  27.5793076  78.7761536  58.0258179  84.1367950
  78.5878754  58.8205223  83.6375732  78.4553375  57.3137093  83.5834351
  30.0175858   6.2663846  39.2342758  29.9689236   6.5601268  38.3245621
  30.2222481   7.0585265  39.7311211  33.6260681  55.6140480  62.4687691
  34.2624435  55.7420502  63.1722412  33.0499496  56.3763618  62.5253334
  63.7003365   2.7841001   8.3254099  63.0877876   3.1084499   8.9855709
  64.3155060   2.2394803   8.8165169  69.4679794  30.6667995  60.9241409
  69.8741837  29.9221840  60.4805450  69.1142120  30.2992077  61.7340546
  74.2884827  31.9935284  76.8403931  74.9522552  32.5826797  76.4818726
  74.6136017  31.7685776  77.7121277  23.9745426  37.0943069  85.5449219
  24.8943443  36.8315735  85.5790939  23.9894276  38.0389900  85.6985016
  79.3549347  21.0932732  54.8872070  79.6850586  20.2595005  55.2219810
  79.5368118  21.0631199  53.9479294   0.2663449   9.1408920  32.7328568
   0.6412239   8.4415541  33.2682304  -0.6664252   9.1330957  32.9475937
  77.2649841   8.8825369  79.6055298  76.6848373   8.6202927  78.8907623
  78.1036606   8.4712620  79.3964539  68.1333771  43.5555763  34.5456390
  68.1381912  43.2570610  33.6361885  67.5138626  44.2851982  34.5549583
  64.0134048  45.8741226  64.3292465  64.4627609  45.3439331  64.9874344
  63.0871201  45.6602821  64.4410629  42.6653633  13.6764708  70.8279266
  43.2292252  14.1662846  71.4265747  41.7954788  13.7252951  71.2243500
  72.5269012  12.4319487  57.1417351  73.4492569  12.1860676  57.0708122
  72.1103592  11.6802282  57.5632095  67.4284744  61.2589035  62.2262039
  67.2277679  61.9201889  62.8885078  68.1901855  60.7951164  62.5739517
   9.2401924  55.5261002  27.1947975   8.9275675  55.3006325  26.3186340
   9.5050945  54.6895523  27.5772152  23.5598450  52.9908905  13.8068085
  24.1576080  53.5486259  14.3046484  24.0493107  52.7599678  13.0172968
  43.4271698  12.4758129  19.4391441  44.1818657  12.7188168  19.9754448
  43.7138634  12.6289701  18.5388203  13.6235638  63.9222565  34.7603340
  14.5114260  64.0437241  35.0967522  13.1567440  63.4812050  35.4701118
  63.0267868  38.9391174  88.1954956  63.9589157  38.8801193  88.4049835
  62.9088173  39.8344536  87.8781815  48.0459900  41.3209114  37.9438095
  47.9679070  41.1458549  37.0059967  48.1383705  40.4554443  38.3421326
   7.5493684  46.5735741   6.1854992   6.6961093  46.5336914   6.6174598
   8.1796370  46.3939095   6.8831487  19.8657322  36.1004295  70.7006531
  19.2838230  36.4185600  71.3908768  20.7415409  36.3587723  70.9878006
  14.7742443  57.0643654  32.3615150  15.5015488  57.4425087  31.8672810
  14.1081190  57.7516937  32.3710098  11.4260330  44.8399353  76.2237930
  11.2080050  44.9017296  75.2938004  11.4967871  43.9001617  76.3912811
  83.0080719  58.0435257   4.8274746  82.7283478  58.6916199   4.1809731
  82.2313004  57.8914795   5.3657503  63.6462288   5.0238061  81.7276459
  64.3469086   4.7762971  81.1242981  63.3644218   4.1971889  82.1194611
  43.2811813  25.6026745  64.9711227  42.6221046  26.2958755  64.9347916
  43.9241905  25.8484402  64.3060150  24.5069675  67.5890579  10.7942095
  25.0366707  66.7917862  10.7939425  25.0709267  68.2511749  11.1939478
  74.0939560  54.8379745  12.5836115  74.4368134  55.3124161  13.3409662
  73.7654037  55.5225334  12.0008020  41.3536453  47.0623436   8.4126587
  41.1709404  47.9812088   8.2163353  40.4897575  46.6564903   8.4848528
   8.5097466  34.7400246  50.9281502   8.8807287  34.1185493  51.5545464
   9.1122561  34.7192001  50.1846581  37.3781395  46.8786507  26.5063915
  38.1001625  47.4268761  26.1992111  36.5923080  47.3949013  26.3269901
   9.7867851  49.0365448   8.1804075  10.0637712  48.1288643   8.3054161
   8.8922787  49.0629425   8.5201044  13.9998922   6.1761456  36.3656921
  14.4604645   6.9997931  36.2053490  14.4316454   5.5444117  35.7905960
  69.4307251  17.3846474  24.9348030  68.6208115  16.9218826  24.7200508
  69.4036484  17.4859238  25.8862457  11.9489746  44.9933815  40.6773911
  12.6281252  45.5416641  41.0702934  12.4277353  44.3876381  40.1116180
  57.4320183  62.9518738  72.5901260  57.0595131  62.1308823  72.9117508
  57.7841530  63.3775673  73.3718033  24.7907944  30.1893597   3.6538982
  24.7575092  29.3370743   4.0883312  23.9013119  30.5338383   3.7338359
  46.3966980  71.8696899  78.6507645  46.4907913  71.3099899  79.4215546
  46.6909027  71.3241959  77.9213028  70.2665024  70.3459702  39.3754654
  71.1862869  70.1317673  39.2194481  70.2629776  71.2911911  39.5263863
  61.1094780   3.6293888  13.6501207  60.4383850   3.6405540  12.9676685
  60.9333115   2.8299603  14.1462164  13.1162148  49.8881493  37.1407318
  12.9104128  49.4803848  37.9819260  12.2707186  49.9651108  36.6986427
   1.0950960  26.7051105  47.9748039   1.1915878  26.8691044  47.0367050
   0.2257163  26.3140736  48.0614090  19.6145287  61.4318848  39.7856522
  19.2332916  62.1209984  39.2415810  19.7329121  61.8413582  40.6427116
  55.8840866  47.4644814  53.6776733  56.2847824  47.4925117  52.8088303
  55.3702812  48.2703590  53.7305832  81.1637955  61.1831093  44.3897514
  81.3774185  62.0770035  44.6572418  81.9209900  60.8988762  43.8777962
   2.2456005  48.3618317   2.7077053   2.8039336  48.9898567   3.1660511
   2.3413191  47.5491982   3.2043867  53.3256149  54.4743958  82.5398331
  53.9298592  53.7761803  82.7920456  52.8101311  54.6416550  83.3288345
  83.3232193   4.1408281  59.9014168  83.0011292   4.8873968  60.4065132
  84.2446442   4.3419471  59.7378349  38.1979103  67.3359985  83.8284225
  37.7189102  66.9355392  83.1028748  38.6282616  68.0976334  83.4399185
  30.6648521  51.9760742  63.8336945  30.7942696  51.0806122  63.5212364
  31.3999443  52.4666443  63.4659805  41.6391983   1.6868371  56.9582672
  41.5782051   2.3048654  57.6866570  40.8326950   1.1740088  57.0111122
  85.4300613  60.7799416  32.2009010  85.2223663  60.4113312  31.3422852
  84.7066879  60.5013885  32.7624779   0.5341983  30.8931999   6.8742676
  -0.1481846  30.2444057   6.7020745   0.3569308  31.5982628   6.2516165
  67.7230453  25.2512150  15.9827795  68.6473770  25.0046749  15.9503031
  67.7286987  26.2075710  15.9429865  24.1152306  30.2911186  15.8258839
  24.1936054  29.9985218  14.9178772  24.6341629  29.6612759  16.3261223
  28.0860138  67.0881271   2.1137724  27.9283981  66.6589127   1.2728417
  27.2806911  67.5749893   2.2888451  46.7904472   1.7651316   5.3068509
  46.8979187   0.8702314   5.6290860  45.8971329   2.0033212   5.5548091
   4.9290967   2.4627347  58.6820564   4.0748034   2.8337619  58.4612579
   5.0176535   1.7048219  58.1041679  71.1610870  20.5339203  33.8153152
  71.6432495  21.0221310  34.4827003  70.8151855  21.2070694  33.2292709
  25.3280296  51.1551552  22.3363113  24.8201923  51.4294319  21.5726986
  24.7289028  50.6002579  22.8356800  43.1183701  34.0326042  75.6670990
  42.8662453  34.6248436  76.3755646  42.5980415  33.2434807  75.8179932
  22.6621418  53.4995880  76.5227280  23.4606056  53.9462624  76.2413635
  22.6415100  52.6959305  76.0031738  36.4992256  62.0372658  72.0081482
  36.0303688  62.6161079  71.4070358  36.0569839  61.1928024  71.9213104
  86.0774460  54.4021454   6.1512432  85.6715317  55.1619530   5.7339201
  85.9152298  53.6802216   5.5439963  27.2979317  37.5443382  60.4329948
  27.0867023  37.5406990  61.3665886  27.4276237  36.6217918  60.2131729
  29.1443672  69.9110107  43.0783195  28.6219864  70.6919632  43.2612190
  28.6759205  69.4701004  42.3695259  79.3872910  33.5454826  13.2790613
  79.3795776  34.4246559  13.6575155  78.4631729  33.3047104  13.2137747
  66.8318939  27.6360016  47.7946968  66.8035583  26.6816368  47.8626366
  66.8897476  27.8075962  46.8547783  52.9814606   7.6292038  28.8132210
  52.4604187   7.4172421  28.0387402  52.6591110   8.4864626  29.0914860
  73.9503860  45.9843292   1.2846122  73.0383911  46.2576904   1.3834934
  73.9630890  45.0773926   1.5904490  11.6042767  58.4206047  85.1431656
  12.1030207  58.9102135  85.7972107  10.6886644  58.5710258  85.3782425
  67.0898743  40.5727730  16.4398422  66.2978592  40.4983673  16.9722061
  67.5832214  41.2871246  16.8430080  10.2500286  39.3271828  75.4935684
  10.7180719  40.1550026  75.3845520  10.0334511  39.2954025  76.4253998
  33.2968597  70.6415863  54.3307266  32.3878212  70.3985138  54.1552391
  33.7078514  69.8309479  54.6310196  78.9808731   8.9806423  33.0421486
  79.4581299   9.5545712  32.4429321  79.0366440   8.1141577  32.6392517
  63.4253845  38.0494919  50.6147995  64.3317947  38.1507912  50.3243065
  63.4639015  37.3690338  51.2869034  45.5362053  52.6475372  49.5082130
  46.1305466  51.9877510  49.8655243  45.7495728  53.4474297  49.9887047
  42.0255318  40.1316223  25.6525249  41.5012894  40.8607788  25.9837856
  42.9292412  40.4424934  25.7063446  40.8015556  68.8193665  53.7090111
  40.1521568  68.1844711  54.0113640  41.1084290  68.4684525  52.8729973
  11.1992693  58.0253944  48.4529305  11.1124268  58.3139267  49.3614655
  11.9263325  57.4029846  48.4677544  48.1596565  56.7718658  43.3440704
  48.1220284  56.8523560  44.2971382  49.0607224  56.5053787  43.1615982
  21.3935890  33.8715210   5.5374322  22.0034981  34.5457001   5.2378960
  20.7944679  34.3338699   6.1235371  52.5075111  28.1820431  72.4352570
  51.6524124  28.4920616  72.7334595  52.3297882  27.7616138  71.5939026
  41.3390656  25.6153545  58.3928757  41.3702736  25.7877541  57.4518471
  42.2266388  25.3335590  58.6143150  82.8072357  27.6478806  84.4204865
  82.2267761  28.3417206  84.1076279  82.3734589  27.3073483  85.2028580
  50.6937485  19.0722733   7.0138469  51.4944916  18.5614223   7.1324663
  50.8801346  19.6394901   6.2656789  22.0006638  69.1807480  77.0983429
  22.9119930  69.4662857  77.1629562  21.4940434  69.9928436  77.1068954
  61.4616127  70.1177444  33.9190254  62.1838112  70.5987778  33.5149574
  61.4620934  70.4068985  34.8315048  19.5871258   9.3028316  53.4394875
  20.2372818   8.6046715  53.3613777  19.8746758   9.8143826  54.1957054
  48.6076279  58.8575897  59.8628311  47.9495163  58.6066742  59.2146339
  48.3889885  59.7617493  60.0885048  60.5133743  51.1312027  55.6834831
  60.0362663  51.0636559  54.8564186  60.8775749  52.0163918  55.6782951
  54.3287888  32.4800034  53.2183495  53.7905502  32.5913773  54.0020103
  54.7662659  33.3239784  53.1063232  15.7577085  35.1901398   5.6659679
  15.5049686  34.7357216   4.8623161  16.4082184  35.8328896   5.3832250
  13.8772488  48.1919823  13.7816114  13.7799644  47.2978973  14.1092997
  14.3913870  48.0985298  12.9796381  24.6812897  60.7590141  87.6641083
  24.0903587  60.2644882  88.2319794  25.5497513  60.4051971  87.8559952
  63.6818542  32.2499580  54.5779610  63.6811256  31.3644943  54.9415359
  63.7845116  32.1215935  53.6349792  69.6862411  23.6529255  65.9318619
  69.2215729  23.7043209  66.7671356  69.3832016  24.4172630  65.4417725
  52.2319260  45.5160751  46.3712769  53.0078163  45.2824898  46.8808479
  51.6566010  44.7549744  46.4484901  53.6615791  17.6537991   5.8977056
  53.8915443  18.1048489   5.0853624  53.5883904  16.7327080   5.6477771
  28.8841648  50.4296417  77.9986801  29.5903435  51.0676956  78.1008377
  28.9521561  50.1407776  77.0886459  61.3915176  28.1215401  37.2683411
  61.2901344  28.8129120  37.9225273  62.1900711  28.3549423  36.7949791
  79.0108032   6.8673048  31.1715603  79.7582855   6.4256959  31.5746422
  78.3949432   6.1621475  30.9723053   8.8084230  20.8355827  24.0564709
   7.8953252  21.0061474  24.2875366   8.8712387  19.8812637  24.0169525
  78.7631073  23.5473938  16.1900616  79.0551834  22.8762035  16.8068466
  78.5304871  24.2944412  16.7414589  22.8069820   2.4696543  24.4554710
  23.3834324   1.7740450  24.1391430  23.1897240   2.7363164  25.2913113
  67.4353561  51.3125000  64.6995392  66.4834442  51.3554878  64.6087341
  67.6964417  50.5804939  64.1407623  25.1841869  12.3082056  15.4847908
  26.0828495  12.6129370  15.3591852  25.2071209  11.3847828  15.2338018
  72.1545792  56.3729324   3.4961736  72.7192841  55.8643303   4.0781250
  72.5774231  57.2298889   3.4408605  23.1156940  66.5502167  50.0708656
  22.4104919  66.2465744  50.6424637  22.8480663  67.4306335  49.8072853
  60.1622009   8.7056475  44.1609039  60.2299385   8.0257874  43.4905052
  60.5614929   9.4777985  43.7601776  50.0645981  66.0579224  18.5395451
  49.9252472  65.1934280  18.9261570  50.9626884  66.0307617  18.2095108
  79.9335938  29.6057167  35.3806572  80.6489944  30.1418552  35.0386353
  79.3703842  29.4464474  34.6232491  19.8973923  58.8262634   4.2099214
  20.4029102  58.4616394   3.4834697  19.5568523  59.6548271   3.8726580
  86.7936554  23.6918564  65.6190262  86.0939102  24.3430462  65.6693878
  86.8285141  23.3094406  66.4958267  54.6691780  49.1254425  10.8121519
  54.6133804  48.2102394  10.5373383  55.2636604  49.5295067  10.1800489
  80.7582016  44.1995087  10.8925238  81.0713577  43.7100334  10.1318789
  80.0560532  44.7521210  10.5492487  81.7591858   9.1348915  70.6065063
  80.8089294   9.1833267  70.7108917  81.8950348   9.1080227  69.6593781
  37.6237907  45.9212265  51.6172829  37.4086494  45.9397736  52.5498085
  38.4553452  46.3910522  51.5539322   6.4021673  35.0947266  37.6213112
   6.4446054  36.0468636  37.7099991   6.7784820  34.7612991  38.4358330
  43.9588432  31.9989357  11.5605659  44.3079224  31.1154823  11.4427299
  44.5654335  32.4165688  12.1720085   8.7478619   7.1573815  66.2573853
   8.9173698   6.9456749  67.1753616   7.8389368   6.8933802  66.1145859
  49.1215439  63.0158958  35.3490334  49.4479599  62.2633972  35.8424225
  49.1242485  63.7355461  35.9801674  14.2286720  55.0200615   4.0409036
  14.9593105  54.9345741   4.6533513  13.6185875  55.6146355   4.4773779
  26.1683636  18.5554066  68.4018173  27.0433960  18.2988415  68.1107407
  26.1846237  18.4282589  69.3503952  54.5946045  70.5789261   5.7903590
  53.9374886  71.2367172   6.0178251  54.7652168  70.1169968   6.6111765
  51.2551765  62.1491623  54.2678337  51.4112129  61.9719963  55.1954651
  50.5229111  61.5784264  54.0348587  68.2995071  71.2684097   9.9758053
  67.6365967  70.5892334  10.1003237  68.9832840  71.0549698  10.6107225
  61.6840324  33.2476387  21.0974579  61.0904236  33.6585579  20.4689598
  62.5574570  33.3991013  20.7363224  55.0217438  11.1875248  65.2847595
  55.4591522  11.2044935  66.1360092  54.7972069  12.1019487  65.1125870
  86.0454712  49.7410355  45.0242805  85.4789734  49.7468719  45.7958260
  86.8980408  49.4585457  45.3552589  72.4601059  65.0301208   1.0927879
  72.1022720  65.4333496   1.8837322  73.1313934  65.6435318   0.7939091
  77.1989517  54.3819046  64.4815903  76.3163681  54.7511406  64.5122375
  77.0963821  53.5549088  64.0106506  31.6518688  61.4394455  36.8197517
  31.3328705  60.5905876  37.1261978  31.1336994  61.6212158  36.0357285
  46.2633362  11.1665106  17.7298393  45.3892250  11.5027027  17.5320110
  46.1113205  10.4560137  18.3529892  71.6904602  51.2507057   5.1672821
  70.8610840  51.2515411   5.6451697  71.8095322  50.3405724   4.8957834
  34.9674644  62.6244926  29.6555843  34.7829208  63.3597450  30.2400303
  35.3207626  61.9449654  30.2297421  30.2859974   7.7494287  79.1422882
  29.8839703   8.5445471  78.7924423  30.0349503   7.7405601  80.0659409
  57.8345032  59.1199455  43.1671524  57.5016861  58.9227371  44.0426941
  58.7787857  59.2209167  43.2869911  81.7704544  51.8623886  19.9178848
  82.6045303  51.4220581  20.0811749  81.1115036  51.1778755  20.0338802
  66.8334503  53.2471886  19.5587273  67.4497070  53.1163597  18.8380737
  66.0213623  53.5214081  19.1326332  70.2753067  55.7446404   5.3519826
  70.4841537  56.5048866   5.8947868  70.6732559  55.9395447   4.5035243
  45.7004318  37.9057465  51.0090904  44.7637901  37.7501030  50.8877907
  46.1116753  37.0671501  50.7996559  13.9229536  36.9757614  60.0494843
  13.5565395  36.0987015  60.1623459  14.3883305  36.9352264  59.2140121
  35.8871078  29.5009613  80.3134155  35.5497742  29.5167351  79.4177628
  35.1146011  29.3484211  80.8576508   9.2526321  11.3862743  64.6912689
   9.3149643  11.2257566  63.7496872   8.4515800  11.9000492  64.7941360
   4.1360202  30.2316380  84.7040710   3.1846075  30.2398376  84.8088455
   4.4576635  30.8155994  85.3909225  60.0293274  67.8363953  31.9779701
  59.2409058  68.3266373  31.7449703  60.6735191  68.0907364  31.3172417
  68.6300278  66.3660507  83.1032486  68.3592682  66.2514267  84.0141678
  68.9667511  65.5084305  82.8437347  84.4105835  63.3074608  83.2767487
  84.3130035  62.3746033  83.0857239  85.3567123  63.4523315  83.2861557
  17.2846928   4.0403314  88.9185333  16.7607899   3.4771261  89.4882355
  16.7558765   4.1383643  88.1267166  64.5550003   8.6187763  63.9404221
  65.1064148   8.5893412  63.1585617  65.0507660   9.1502752  64.5632858
  16.4016781  70.3819122  32.6649055  16.6155014  69.4990692  32.9667244
  15.5244064  70.3011627  32.2906036  84.3262558  31.2675648  27.8123436
  84.8540268  31.6639385  28.5055809  83.6261597  30.8089466  28.2768517
   4.7260609  63.0135803  60.9656525   3.9862585  63.4567108  60.5502472
   4.3384628  62.5376816  61.7001724  73.1242676  11.6439171  22.0231476
  73.5136185  10.8753052  21.6061630  72.9884872  12.2627048  21.3055840
  41.8023987  65.5192184  73.2383804  41.0241852  64.9625244  73.2118988
  42.3392563  65.2153854  72.5064621  21.9311657  54.6188927  62.9370003
  22.7287045  54.6764183  62.4108315  22.1063557  53.9147530  63.5612793
  43.4904442  62.4289932  31.4083595  42.8475761  61.9581718  30.8779984
  43.5939293  63.2719650  30.9668598  33.2215004  62.8539429  61.2215500
  33.2616692  62.3025627  62.0029564  32.8436775  62.2880783  60.5482903
  81.6939240  48.5851936  22.6673031  82.0525513  48.5592766  21.7802048
  82.0242462  49.4047470  23.0353374  27.0056591   6.9777193  36.3482780
  26.9127865   7.7990789  36.8309517  27.8458710   6.6228991  36.6387558
  45.3812981  13.4912586  25.1158390  45.0985985  12.5790596  25.0510006
  45.4509621  13.7855501  24.2076683  61.4252701  24.5222473  10.3893862
  61.5008659  25.4528160  10.1782961  60.5579491  24.2737999  10.0696049
  60.3287277  12.6862230  48.6103020  59.7478065  13.0266724  49.2906380
  60.1075363  11.7569189  48.5494881  35.9006805   7.0542712  20.2067528
  34.9833260   6.7809768  20.2079144  36.1121025   7.1874084  21.1307697
  51.1637650  13.7591076  67.0456009  50.7774086  14.1651268  67.8215561
  51.7262955  14.4388905  66.6745377  28.9023514  56.9468803   7.8063765
  28.1863823  57.5730667   7.6990752  28.6828728  56.2282066   7.2134438
  78.0588455  70.9718552  75.3518066  78.6762848  70.4326096  75.8459854
  78.3942184  70.9594879  74.4553680  81.0278244  44.6317406  35.5659599
  81.6217346  45.1319046  36.1257286  81.5761642  44.3351898  34.8395920
  67.4565353  46.9312248   4.8106728  67.1626663  47.8373756   4.7170353
  66.9678421  46.4506836   4.1424708  42.3410149  49.6029167  59.8868752
  42.8353233  49.4720116  60.6960411  41.4858665  49.9201355  60.1772614
  52.6011505  25.6985893  53.1553917  52.4251976  26.6073513  52.9116211
  52.9779816  25.7548161  54.0334969  18.1496849  41.1422005  14.1638651
  18.0062656  40.3055649  13.7214851  18.9483738  41.0093460  14.6744318
  26.0842419   1.1791205  69.4659729  26.5504379   0.5131491  69.9713135
  26.6856632   1.9232643  69.4381409  27.5288754  39.0803452  15.8491917
  27.7002201  38.6100502  15.0332899  27.9050217  38.5229912  16.5304413
  14.5539989  35.4046326  82.5796280  14.6210852  34.4849396  82.3229218
  14.1580982  35.3818665  83.4508209  78.7491837  44.3571663  61.1875000
  78.0627823  44.5703926  60.5553474  79.5501556  44.7091255  60.7991714
  84.1060486  35.0362434  15.7478924  83.6899338  34.1874008  15.5977325
  83.9745407  35.2057762  16.6807346  62.3711433  37.5637398   2.0630367
  62.9110107  38.3521919   2.1188796  62.5714188  37.0791168   2.8638260
   1.2310109  36.5052719  71.8750458   1.1111066  36.3697815  70.9350967
   0.5778840  37.1654243  72.1071091   5.4019680  59.3256912  36.1816406
   5.1410904  58.7873878  36.9289055   5.5941720  58.6950684  35.4876633
  69.2738724  48.4795418  66.7307281  69.3594742  49.3389168  67.1434937
  69.9725571  48.4572334  66.0768433  85.2737198   5.5857005  77.0088577
  86.0106201   5.2239981  76.5165329  85.2222748   6.4988942  76.7266083
   1.8597136  11.6167336  85.9503784   1.4255037  12.4171867  85.6554794
   1.7212262  11.6041069  86.8974228   0.9197964  14.3183880  17.2181969
   0.3010583  14.1841660  16.5002975   0.8963141  13.4982080  17.7111301
  48.6444893  57.1022263  76.8118515  47.9282837  57.3962212  76.2489624
  49.4279404  57.4960289  76.4279861  43.3402023  51.5802193  46.2177391
  43.2998047  51.8809891  47.1255569  43.9073296  50.8096237  46.2457428
   4.2927227  34.6591835  85.2079391   4.7884727  35.2431526  85.7819138
   4.0432725  35.2086639  84.4649200  81.6855545  44.1509094  39.0587883
  82.1343536  44.9179459  38.7031593  80.7637787  44.4067421  39.0919647
  68.8454514  43.3741035  43.3758965  69.4769592  42.8338432  43.8508072
  68.1687393  43.5755653  44.0222015  69.6611176  32.4163971  49.8880348
  70.1641769  31.8344307  50.4576683  70.0656509  33.2758102  50.0063248
  43.0540199  40.2962646  65.5471497  43.4332047  39.8077698  64.8165207
  43.6845512  40.9951744  65.7208862  42.4853020  52.5796967  10.0249271
  42.5621185  53.0109749  10.8760023  42.4835358  53.2976646   9.3918800
   7.6646423  12.9250507  49.9850235   6.7517066  13.1018667  50.2119942
   7.6579704  12.8144560  49.0342560  47.7140388  52.0538292  58.7729988
  48.0664940  51.5630074  58.0306358  47.9775467  52.9591942  58.6083374
  67.2251358  14.7342997  21.4509964  66.8884277  14.0352411  20.8904800
  66.5970993  14.7870998  22.1714249  61.7138329   3.0354540  82.4811707
  62.3936462   2.6657228  83.0445404  61.3865356   2.2889881  81.9792786
  84.8102722  36.4023209  50.2548637  85.4506912  36.4299698  49.5439987
  84.3331070  35.5842934  50.1156769  56.2062454  57.9692307  57.5094452
  55.6557693  57.2449646  57.8071785  55.7902298  58.2698250  56.7014809
  21.0920715  17.8939514  70.7044601  21.5569878  18.2355289  69.9406433
  20.6165752  18.6482658  71.0525131  85.2377930  11.3249559  31.1867523
  85.9307480  11.8526106  30.7897205  84.4324951  11.8074741  30.9999428
  53.1091156  51.1142845  12.7782049  53.2231827  51.3529968  11.8582926
  53.9426918  50.7150459  13.0271873  73.0722885  16.2028275  88.5732956
  73.9090042  16.1907139  89.0380554  72.4211884  16.0071316  89.2470932
  53.1629982  33.0335197   2.6845367  52.3622894  32.9229622   3.1972480
  52.8622589  33.0755653   1.7767810  36.3291435  34.2959251   3.4801493
  36.8932457  33.5549583   3.2588208  36.0394020  34.1175079   4.3748283
  75.4059296  24.5450001  31.6583843  75.2893372  25.1029720  32.4273453
  74.5459976  24.5335846  31.2381344  77.6779404  20.4629250  28.4175968
  76.7954941  20.4030571  28.7835560  78.1657181  19.7637978  28.8529453
  73.3479767  45.1202431  78.7542191  73.1346359  44.5263329  79.4739304
  72.5030441  45.4755325  78.4783936  22.0362949  27.9111958  68.1957855
  22.7509499  28.4560661  67.8662109  22.3749084  27.0171852  68.1476440
  82.4570236  16.8737106  24.4920197  82.4177170  17.8280487  24.5546570
  81.9387436  16.6631088  23.7153168  16.4813099  57.1070557  35.2631111
  15.6932058  57.6502876  35.2586746  16.9751129  57.4076462  36.0260239
  79.1616669  66.5059891  68.9037323  78.5432281  67.1578369  69.2336655
  78.7498550  65.6644058  69.0996704  56.8988380  48.8160591  69.7688446
  57.2199364  49.6739044  70.0467453  56.0604134  48.9998817  69.3451843
  62.6336517  38.0077667  58.0646820  61.6788979  38.0010834  57.9966164
  62.8064194  38.0529938  59.0050735  72.4894104  40.7396584   8.3301325
  71.6256180  40.9688416   8.6730318  72.8011703  41.5416756   7.9108424
  12.5777931  30.5524788  80.8115768  12.5371399  29.7936420  81.3935928
  11.6841402  30.8953037  80.8022232  72.9464874  45.4268036  47.5533295
  73.8039322  45.7975311  47.3445740  72.4536438  46.1579895  47.9257545
  32.0352859  66.4856720   3.5605938  32.4578896  66.7616196   2.7472725
  31.3336926  67.1229782   3.6941562  63.5137062   0.3504566   6.8322849
  63.7479515   1.2634944   6.6657801  62.6021500   0.3860852   7.1221538
   4.2738438  17.1432552  88.7498398   4.2442470  16.5956440  87.9653168
   4.5837684  16.5566597  89.4398346   5.8231716  48.9620399  66.7929459
   6.0255332  48.2195892  67.3621979   5.0190268  49.3314209  67.1578293
  37.3701973   6.4772601  17.8704453  36.8599548   6.6007838  18.6708374
  36.9271317   7.0195427  17.2178707  68.6480026  43.3679314  74.4574966
  67.8915482  43.7939911  74.0543976  69.0738678  42.9039574  73.7366638
  52.1446533  66.4198456  68.4277878  52.4459953  65.6370087  67.9667130
  52.3066216  67.1364365  67.8142014  28.5598564  56.3215790  59.7290916
  29.4807110  56.0606384  59.7161026  28.5747814  57.2617569  59.5499916
  70.9368439  11.7737284  66.6240082  71.3380280  12.3147907  67.3041077
  71.6594543  11.2508469  66.2766342  22.3909912  26.4644814  58.1546288
  23.0306168  26.4138546  58.8649445  21.9342155  27.2926159  58.3022118
  82.9517212  41.6889954  42.9245071  82.7214508  42.3175240  43.6087265
  82.5302353  42.0290298  42.1352272   5.1178131  11.8597126  56.6939049
   5.7030864  11.1023750  56.6826591   4.5873361  11.7407827  57.4817352
  41.4281273  45.6925316  61.7328758  41.2391129  45.7946396  62.6656570
  40.7853127  45.0527000  61.4268761  40.8821030  30.9792442  78.0521851
  41.1175957  30.0522766  78.0909576  39.9375610  30.9930763  78.2067413
  13.2844486  39.3467140  70.6042404  14.1635447  39.3080292  70.9809647
  12.7262487  39.6321449  71.3275452  42.8648415  70.4552383  43.4400864
  43.1277466  70.6320419  44.3433342  43.5711327  70.8227539  42.9087524
   5.6564107  25.1091213  81.6398621   5.5342922  24.8254642  82.5458755
   4.7926579  25.4187984  81.3673553  68.2676086  60.1926155  66.6226044
  68.6738281  60.4609413  67.4467545  68.9751816  59.7747765  66.1317062
   1.0701662  16.7663250  20.1365395   0.4208636  17.4621143  20.0340023
   1.4818337  16.9455700  20.9818993  54.3523102   3.9935331  72.9957047
  53.5409546   4.3368516  73.3699646  54.4006729   4.3888721  72.1253052
  31.2414303  13.2635336  78.0526581  31.6206551  13.0916557  77.1907501
  31.8465462  13.8823376  78.4614944  80.4969788  11.4826174  41.0773811
  79.9926605  10.8606644  40.5529137  79.8734741  12.1768122  41.2908401
  75.7991562  35.0130615  37.9641266  75.6781616  34.6022987  37.1080513
  76.7136765  34.8385201  38.1864281  26.4374313  62.8243713  11.3984594
  26.0211887  62.2478256  10.7577028  27.0165253  62.2487526  11.8980045
  68.6250076  35.0983963  48.2244186  68.7243042  36.0130768  47.9603577
  68.8840485  34.5965195  47.4515953  66.9987183  33.2291718  37.3698387
  67.2659607  32.4874878  36.8269577  66.0792999  33.0578117  37.5736504
   9.2044029  62.3694954  64.0204773   8.3755169  61.9358406  64.2232742
   9.4238386  62.8515854  64.8177643  58.7790146   1.6706008  33.3203735
  58.2303581   2.4273882  33.5264854  59.6256905   1.8731008  33.7183304
   3.4570274  52.6445618  58.5174370   4.3773565  52.6684380  58.7794609
   3.0053539  52.2523117  59.2646713  63.8929100  22.8977814  20.3920593
  63.1266632  22.5190678  20.8229542  63.7660370  22.7032928  19.4634533
   1.7836540  50.6694298  26.3410072   2.5840755  50.7425575  26.8608246
   2.0839450  50.3860397  25.4774399   6.9147210   8.3369122  14.1697569
   6.2973776   7.6893716  13.8294487   6.4972754   8.6718826  14.9633350
  58.2595253  70.2687988  52.0742035  57.7513428  71.0782776  52.1263924
  57.7011986  69.6085892  52.4848442   3.2288890   8.4867363  79.6732407
   3.6133909   8.8558931  80.4682922   2.3258100   8.8040361  79.6743011
   0.2337020  38.3178940   5.2155662   0.6668152  38.1365166   4.3814516
   0.5122127  39.2052193   5.4420891  31.8423595   6.5492001  77.3036194
  32.3609161   7.3111792  77.0453262  31.3879108   6.8271747  78.0988846
  19.4178486  53.2224503   6.5142980  18.6827850  52.8069305   6.9651380
  19.0289783  53.6129570   5.7316647  23.6396923  66.0302963  69.5244675
  24.3741856  65.6241989  69.0642090  23.3156147  65.3455582  70.1095657
  37.2316856  71.3998489  42.4065819  37.7698631  70.6916046  42.0530396
  36.7038994  70.9826202  43.0874596  41.3600540  41.1245804  40.7632980
  41.0482063  40.8505974  41.6258049  40.9269562  41.9638596  40.6075020
  19.1017475  47.6038589  20.2181587  19.0884857  47.9432449  21.1130733
  18.6894665  48.2913895  19.6951275  54.6895485  59.2437096  59.9473839
  55.1347351  58.7390518  60.6280899  54.6559219  58.6531982  59.1947899
  57.7679214  54.9632950  83.5329666  57.8703346  54.0214310  83.3964462
  57.0428467  55.0379372  84.1533966  20.0905952  51.3999367  73.2285614
  20.7370949  50.8808937  72.7501602  19.4573956  50.7575951  73.5490036
  72.9737015  42.8491516  15.4481277  73.2988281  42.3007164  14.7341642
  72.4010086  43.4853477  15.0197458  12.5237703  57.7290840  50.8447456
  12.3283911  56.7970428  50.7479973  12.1128235  57.9751816  51.6734734
  80.3330917  23.2490768  23.3632069  80.3698654  22.6691132  24.1238136
  80.4289780  22.6644516  22.6113758  15.4409704  55.7415199  51.1242256
  15.2883816  55.9084206  52.0543289  14.6181746  55.3666725  50.8100128
  26.6892338  65.8152390  10.2519379  26.6195850  65.3632507   9.4110556
  27.5609093  65.5871201  10.5750046  83.7794571  36.4829636   8.8261223
  84.2245941  35.6414948   8.9261808  84.4144135  37.0373840   8.3726025
   2.1519341  16.1343803   4.0670829   2.3310421  15.2945700   4.4900146
   2.9930470  16.3992767   3.6948049   1.9841412  57.3374062   0.5979895
   2.9334841  57.4544144   0.5620850   1.6280968  58.1858521   0.3341671
  42.5148315  46.3911362   5.9916253  42.0632286  46.9845734   5.3915272
  42.4785004  46.8343201   6.8392692  86.5462036  68.8972321  29.1122704
  87.2045975  69.5909195  29.1516151  85.8189774  69.2270279  29.6401138
  65.3971939  21.3425694   7.1905994  64.8700638  20.7247524   7.6972303
  64.8153992  22.0879402   7.0417013  66.5006180  53.6893120  31.7259140
  67.1156311  53.8186340  32.4479027  65.6368179  53.7854385  32.1269684
  60.5366249   1.2876897  87.6278076  59.9682541   2.0009658  87.9183731
  59.9509583   0.5358106  87.5388870  50.1147957  38.9819946  72.7270660
  50.9638672  38.5433197  72.7806473  49.4782257  38.2680702  72.6906815
   1.3000262  42.3490829  66.2779922   0.6720288  41.7706490  65.8452530
   0.9311675  43.2258644  66.1711044  46.8446960  11.8699894  60.7809944
  47.0470848  11.5393114  59.9058228  46.4361000  12.7217264  60.6266403
  52.2134705  41.4293175  76.7650146  52.0438004  42.3613777  76.9017868
  52.3666534  41.3493843  75.8235397  11.1723928  57.9147530  68.3246918
  11.9509916  58.4449310  68.1546173  10.4944916  58.5509644  68.5525436
  26.7083263  65.6177673   0.1685233  25.8363228  66.0039597   0.0866947
  26.5485783  64.7330475   0.4971328  15.0181274  42.5723000  20.3672504
  14.2557926  43.1511497  20.3634758  15.1076689  42.3001175  21.2805576
  69.2551575  56.1191521  29.0038452  69.5722122  56.2104530  28.1053066
  69.8669357  55.5069199  29.4126587  12.5967884  15.5943956  58.3576393
  12.1559248  15.5980406  59.2072639  13.3999166  15.0953932  58.5066795
  46.2474442  44.9339714  76.6170273  46.6773033  44.3784599  75.9667587
  45.4575882  44.4509735  76.8600769  64.4140854   2.7023830  79.3784409
  64.8724823   1.9298579  79.7090607  65.0155563   3.4278572  79.5462265
  48.3874168  66.9043198  31.6775665  48.2755280  67.7208862  31.1908092
  48.4636726  66.2310104  31.0015030  55.8578072  64.9588776  79.0840454
  55.3398247  65.6323013  78.6431122  55.4522209  64.8712463  79.9466248
  57.3586349  56.0821571  87.3994980  56.9373283  55.6986198  86.6303177
  57.3215218  55.3921928  88.0619202  11.1404448  33.3016510  31.5075722
  10.4791679  33.5064659  32.1686287  10.9418316  32.4042931  31.2401123
  12.0494108  65.8564377  46.9063034  11.4403811  65.1739044  46.6244125
  11.7498722  66.6458511  46.4553757   5.8181300  58.0333176  63.2236938
   5.3286786  58.3019943  62.4462090   5.4110613  58.5174408  63.9421310
  51.1112213  69.7051086   3.6033509  51.2168808  70.6462402   3.4642854
  51.1554184  69.3267822   2.7251992  65.1240692  16.2447796  61.2221718
  65.0276871  16.7826385  60.4362640  66.0635986  16.2540588  61.4050140
   4.0931811  57.8190193  10.9836655   4.7904916  57.7647171  11.6371498
   4.4998784  58.2555199  10.2351370   8.4268084  12.2167587  79.9573364
   8.7958403  12.1674004  79.0755157   8.7309484  13.0581961  80.2975006
  57.6025238  41.4258728  43.9034424  57.0379486  41.4622688  43.1313286
  56.9959450  41.4259300  44.6439056  47.0871239  13.9337091  85.7605591
  46.5656815  14.6398811  86.1422043  46.4503136  13.2484703  85.5576935
  71.8983917  32.5853386  39.5102654  72.5052261  33.3240242  39.5584221
  71.0810852  32.9672585  39.1902847  42.3971100   8.9667845   1.7346421
  43.1625175   8.5480490   1.3408841  41.9865379   9.4426765   1.0127082
  25.4521866  23.9115353  67.1913681  25.2703266  23.0212860  67.4923859
  25.0129280  24.4743748  67.8289337  52.2231712  39.0540695  19.6444054
  52.6803246  38.3667030  19.1598740  52.6421051  39.0595551  20.5050430
  55.1584282  43.1877747  11.9582253  56.0852089  43.1278305  11.7264643
  54.9812546  44.1276817  11.9958467  41.4825554  14.7899065  88.6189880
  40.7751007  14.1962128  88.8705139  41.1373787  15.2679205  87.8649368
  13.7605677  33.8670654  87.1637573  14.5662136  33.5128174  87.5401535
  13.3743019  33.1311951  86.6888657  17.8429604  64.2950745  60.8683701
  18.3981533  64.7516098  60.2362518  17.2705708  63.7464409  60.3320808
  68.8617020  31.1884537  74.8644714  68.9758606  31.7996216  75.5922623
  69.6855240  31.2369671  74.3795013   8.5100899  21.1558800  83.0124741
   9.3348103  20.6922913  83.1579056   8.7015629  21.7681770  82.3020782
  69.8436661  19.2168808  21.4710064  70.7629547  19.3821812  21.6803284
  69.3983002  19.2340736  22.3181114  56.8105927  27.8288784  15.3995180
  56.2752419  28.6094398  15.5421848  57.6930923  28.1678600  15.2494469
  31.9522991   4.1044245  64.4708099  32.4522591   3.2887602  64.4397430
  32.2836647   4.6166968  63.7332382  54.2207527  25.5913277  69.9371643
  55.1774101  25.5932293  69.9692612  53.9756279  24.6917572  70.1537704
  75.4776917  26.6296310  21.5471535  75.3456421  27.3140278  20.8911095
  75.8656616  27.0854950  22.2940845  31.1151066   7.1652660  63.0780106
  30.5112514   7.3555598  62.3601112  30.9021473   7.8143244  63.7485352
   6.6474309  44.7557755  74.2336273   6.5853090  45.0214272  73.3161240
   6.1091585  45.3922043  74.7042160  40.8675499  39.7902794  10.3104372
  41.1112213  39.5326042  11.1995153  40.3305969  40.5740814  10.4268999
  64.9691086  29.7970848  61.1730232  65.3566284  29.7727623  62.0479317
  65.5914230  29.3222313  60.6221428  12.7635422   6.9188762  25.6403618
  11.8670521   7.0430350  25.3287182  13.3008442   7.4274468  25.0329952
  77.7136230   7.1173491  59.4945717  76.9025726   6.6894240  59.2201309
  77.4891052   7.5504708  60.3181152  13.4083261  28.4033546  53.6864662
  12.9333210  29.1066360  53.2437515  12.7479362  27.7275009  53.8392372
  75.5409546  71.4698868  47.0880127  76.1813354  70.8891144  47.4989281
  75.8572235  71.5788116  46.1911621  59.8915405  48.1093521  34.2135468
  59.7118492  47.1914787  34.4171410  60.2824707  48.4600983  35.0137863
   4.5527649  30.9831390  51.8819160   4.2671742  31.4861927  51.1192818
   5.4977407  31.1293774  51.9251213   2.4563770   3.4596002  54.5901680
   2.3394980   2.5945852  54.9830055   2.2666667   3.3283808  53.6611786
  84.8299789  23.9901581  53.7332802  85.2178421  24.2902241  52.9112396
  84.0358658  23.5261459  53.4681053  13.1614399  58.5133820  63.5720329
  12.8973551  58.0562248  64.3704681  13.9991903  58.9194794  63.7945023
   7.0965385  61.0710640  14.0086765   7.4300818  61.1263657  13.1131754
   6.2818584  61.5733185  13.9922667  64.7230301  35.1019020  32.4657097
  64.5837173  34.2546997  32.8888817  65.5559769  35.4127197  32.8204384
  86.2665329  31.7480183   4.3195825  86.4767151  30.8315487   4.1403122
  85.4036484  31.8772793   3.9259555   3.4918954  15.7207966  80.9923248
   2.7605145  16.0997314  81.4798965   3.1043348  15.4298515  80.1668701
   4.6761432  50.7018166  78.2517548   5.1790714  51.4227524  78.6306305
   5.3333726  50.1439667  77.8357239  42.8954010  57.9021378  71.8152466
  41.9868622  57.6611176  71.6344070  43.0480614  57.6048775  72.7122192
  29.6852188  56.4601288  37.6712303  29.9059219  55.5297623  37.6272125
  29.2088566  56.5545197  38.4960976  21.4591751   1.4194232  56.0513000
  21.1715126   1.2593104  56.9501038  22.4074306   1.5307096  56.1195412
  17.4363651  -0.0539037  25.6883411  18.1897945   0.5055248  25.8770638
  16.7448082   0.5550689  25.4292393  13.4293280  23.9945850  12.9831867
  13.0110493  24.6704750  13.5165224  13.6578217  24.4404030  12.1675463
  42.7759132  60.0857086  48.6639442  42.8601875  60.3586502  49.5775299
  42.6740685  60.9040222  48.1779175  56.9179230  57.2287788  45.1060944
  57.4199791  56.8936043  45.8489456  57.3306694  56.8314857  44.3392601
  74.2082977  39.0604172  25.3617630  73.4259491  38.9458771  24.8222771
  74.6357498  39.8375740  25.0018444  34.9221268  50.3669510   0.5303176
  34.7658081  51.0003548   1.2307450  35.2130547  50.8972092  -0.2115857
  63.1788368  30.4786491  76.2151794  62.8141098  29.7061901  75.7833099
  62.6535378  31.2077732  75.8855286   2.9166529  50.7664948  23.9103680
   3.5986814  50.2096405  23.5348873   2.2455733  50.8153305  23.2295609
  47.8298569  30.2405491  69.4473877  48.0005989  29.4334641  69.9328690
  48.2144089  30.9308891  69.9875565  65.3499451  30.2895012  52.0953865
  66.1574860  30.0608311  52.5556183  65.6139450  30.9631996  51.4687538
  11.3338947  26.4011993  24.7224884  10.9598875  26.3015003  23.8470402
  12.2504539  26.1441650  24.6220684  40.1627007  11.2654562   2.4451702
  41.1083412  11.1183882   2.4642372  39.7884903  10.4662485   2.8159359
  69.0350647  28.1510544  28.7311134  68.8515091  27.2118988  28.7082024
  69.8334045  28.2517853  28.2127132  83.9836731  17.0653381  15.7426329
  84.8714828  16.9604664  15.4005413  83.4657822  17.3379192  14.9851894
   0.9584745  63.9445534  13.3706646   0.4379491  63.1443787  13.4414463
   1.6107777  63.7472725  12.6984940  75.5620575  10.4227362  23.5034866
  76.2982635  10.7579584  24.0152111  74.8322296  11.0002947  23.7271061
   2.8710356  14.7354469  13.6565742   2.7797027  15.3411655  14.3920975
   2.6872056  13.8740845  14.0313988  30.3737755  17.5970116   2.6479964
  30.2312279  16.6543617   2.7335742  29.5385208  17.9895782   2.9019036
  75.3318024  51.1399574  40.1726303  75.6983795  51.8182335  39.6053619
  74.8775330  51.6241379  40.8621521  31.8952332  51.6894112  77.1955795
  31.9182796  50.9607849  76.5752487  31.6299171  52.4436798  76.6693497
  67.1909027  17.8527184  52.7792282  67.9855423  18.2285252  52.4003410
  66.4802704  18.3855114  52.4223557   6.6170774   6.0888071   7.2662754
   6.3917184   6.9531097   7.6104074   6.0177727   5.4899325   7.7117133
  25.0887566   2.9423351   6.7892084  25.6409664   2.3984272   6.2275500
  25.5967541   3.7427084   6.9217677  34.9850731  30.5385017   4.0420551
  35.6115417  31.0784054   3.5601089  34.1953545  30.5474319   3.5012226
  25.3471489   5.1585598  58.2265930  24.6431961   4.6116610  58.5752831
  25.0852833   6.0532708  58.4437332  74.5774078  29.0579243  31.7287941
  73.6263428  29.0080433  31.8247814  74.7119217  29.3621387  30.8312454
  50.3815384  60.3498268  26.6876907  49.7546768  59.8875084  27.2440529
  51.2021637  60.3252831  27.1798344  24.9490414  24.2133217  77.7859879
  24.7938213  24.7283154  78.5777664  24.1455383  24.3114166  77.2751160
  80.6798859  69.6353302  84.3792343  80.2836761  70.4477615  84.6941910
  80.2410126  68.9459152  84.8775635   2.3627896  64.1506042  26.6360645
   2.4093668  64.2797318  25.6887589   3.1254272  63.6099968  26.8418827
  16.1899815   7.8211684  80.8728638  16.4873390   8.2543049  80.0727386
  16.7182407   7.0246091  80.9245148  77.1702499  42.9099846  41.7537994
  77.9974899  43.3099365  42.0220184  76.5175018  43.5971947  41.8875389
   9.3134718  14.6886196   6.2933469   9.2155237  15.6035614   6.5570130
   8.9607277  14.6565475   5.4040914   7.3698273  61.0831604  25.4838963
   8.2506943  61.1368866  25.1131954   7.4799957  60.5810738  26.2913647
   1.9610027  12.3866014  49.5391312   1.6036779  13.0523081  48.9514351
   2.6912453  12.0044546  49.0523643  82.1637344  64.0076599  11.8326931
  83.0870438  64.1846008  12.0127792  82.1622391  63.6023598  10.9655342
  28.9847584  31.5111923  65.0278702  29.4819374  31.1821575  65.7767258
  28.2790337  32.0275650  65.4171524   7.3743281  55.1213799  69.1610107
   7.6445570  54.8785591  70.0465851   8.1798353  55.4185104  68.7378082
  47.7681427  54.7633705  24.6582146  48.7065544  54.9273987  24.7515697
  47.6779976  54.3772621  23.7869930  21.4342537  56.4548492   7.2277417
  21.2207069  55.6041489   7.6110640  21.6053486  57.0206451   7.9806271
   8.9503326  70.9770355  83.8574677   8.6446018  71.6170959  84.5001831
   9.8941727  71.1261520  83.8012314   6.3689704  22.8174934  32.7790756
   6.3472524  21.8751335  32.9455643   6.4667602  22.8907967  31.8297100
  23.0688381  34.4914017  86.0652542  23.3114681  33.9548836  85.3105927
  23.5370579  35.3158035  85.9334793  43.5246429  27.7122250  12.1257505
  43.9820175  27.6592827  11.2865610  44.2233315  27.7986088  12.7742901
  81.5100708  43.2658882  69.0866318  82.3713303  42.9570160  69.3678055
  81.4109955  44.1181564  69.5109558  10.6848621  70.9248581  76.9687500
  11.5036697  71.2087021  76.5622787  10.5376911  70.0449524  76.6218491
  71.0024033  61.0458565   3.8038483  71.5976181  60.8969612   4.5385485
  71.5792465  61.2023544   3.0561917  55.2120705  42.3893242  59.7559319
  55.4998817  42.8143501  58.9480019  55.9774818  42.4223938  60.3297577
  72.6771774  65.3305054  65.2177658  72.4685593  65.6023483  66.1115341
  72.1004791  64.5843887  65.0535736  74.0067291  23.8006153  10.8496313
  74.7837906  24.2489395  10.5158520  73.7055054  23.2649612  10.1157551
  75.9436035  36.0514336  46.4574013  75.2033234  36.3819046  46.9663315
  76.2870102  35.3252754  46.9779739  12.7336540  68.9453049  78.6675644
  12.7405272  69.3753357  77.8124313  12.2540741  69.5486374  79.2352142
  72.2136841  56.5245628  59.7886658  72.0839233  55.5871620  59.9324608
  71.8640137  56.6830330  58.9118271  77.7340775   0.3168475  23.3863201
  76.8531723   0.2653624  23.7572403  78.3012619  -0.0504579  24.0642738
  54.0756378   0.0662183  75.6342621  53.5136757   0.8400149  75.6750870
  54.9184494   0.3639584  75.9766769  60.6322746  12.9691019   6.9754629
  60.1965599  13.6872015   7.4345050  61.5625038  13.0942831   7.1631584
  38.5433197  64.4650650   0.5364704  37.7925987  64.8077011   1.0214955
  38.4966087  64.8993149  -0.3152770  61.0160561  68.6464233   1.7819147
  60.1201744  68.6601944   2.1187181  60.9219246  68.4038696   0.8607532
  20.7335854  11.5515375  79.4201126  21.0000000  10.9945173  80.1515350
  19.9274559  11.9715128  79.7201309  37.6193237  61.8341103  68.7428131
  37.3863220  61.0622139  69.2586823  38.5590248  61.9443817  68.8878326
  55.6172867   6.2164459  32.8888168  56.0266533   7.0816216  32.8999710
  54.7312927   6.3748717  32.5630150  58.1070709  52.5620956  86.0160370
  57.3951416  53.2002563  86.0623322  58.8833389  53.0836525  85.8120270
   8.4890976  40.4447060  55.0446396   7.8077502  40.8703651  55.5650368
   8.0133343  40.0092964  54.3373222  52.0874252  19.0077057  54.8155708
  51.8027992  18.1451817  54.5134583  51.2898064  19.4209232  55.1461601
  43.1033897  62.1620865  54.7309418  42.3978844  62.5713348  54.2299309
  42.6565208  61.6990089  55.4395332  79.8729630  68.6956253  76.9507065
  79.2054062  68.0179672  77.0573578  80.4828033  68.3321457  76.3086700
  53.5540695  63.5726357  54.3367958  53.7725258  63.2468605  55.2099380
  52.8723106  62.9784660  54.0231094  34.0289955  64.4448090  22.4623146
  34.9278450  64.1370087  22.5787830  33.5653839  64.1293259  23.2380505
  78.4207001  17.4517326  57.6617928  79.2866211  17.4684391  57.2542038
  78.3585739  18.2862549  58.1264877   5.3306298  28.6115265  72.4666290
   6.0917616  28.5566216  73.0444717   4.8257275  29.3509064  72.8051910
  81.5187683  40.9374123  63.6019783  82.2368164  40.6664543  64.1740112
  81.9478607  41.2045517  62.7891159  53.2897186  28.7219257   5.0924234
  53.7067909  29.3837261   4.5407877  53.8325043  27.9412880   4.9818745
  62.0290146  58.9385147  57.7029228  62.2597427  58.1543007  57.2049217
  62.0331879  59.6433525  57.0552979  48.3890686  41.5910759  60.6086159
  47.7877922  40.8544006  60.7181969  48.8115883  41.6844292  61.4624252
  58.6909561  62.6082687  78.2760468  58.3836136  62.1993561  79.0850983
  59.6335602  62.4419937  78.2667160  68.5089264   1.4859003  71.9066391
  67.9823227   1.9301953  72.5711136  69.0112228   0.8340571  72.3955460
  40.4199944  58.4081917  11.1252165  39.9819489  58.2664490  10.2860165
  41.1521492  57.7916222  11.1203766  17.7209587  20.9219131  76.6354218
  18.2642460  20.3835011  77.2109070  17.1463699  20.2963047  76.1941833
  41.0555344  66.6161804  59.9972610  40.3269234  66.2618027  59.4875755
  40.8180122  66.4416733  60.9079514   9.7477970  14.7163258  79.2062378
   9.5804682  15.6004925  78.8799210  10.6494656  14.5308495  78.9438934
  63.4188766  45.0980110   4.1305671  62.7507439  44.6167717   3.6424713
  62.9322090  45.5529900   4.8178668  68.4167709  28.5603752  76.2417984
  67.7782822  27.9267998  75.9144669  68.7512360  28.9914761  75.4553375
   5.5938687   8.7059908  87.0229568   6.4413252   8.7597980  86.5811996
   5.3689733   7.7759418  86.9972153  64.6541061   2.3816354  25.4588413
  63.8919868   2.2309704  26.0180473  65.2721558   2.8523550  26.0180054
  58.9521484  54.8908501  58.3932724  58.9013481  55.3752174  57.5692329
  58.4990501  55.4474754  59.0265999  21.2373734  61.3097382  68.4940033
  20.6256886  61.4439201  69.2179337  21.4120541  60.3686256  68.4993515
  56.6823273   2.6548722   6.2457352  57.2799835   1.9073749   6.2626753
  57.2161636   3.3949537   6.5347447  60.0044136  45.1849861  85.0755692
  60.1266861  46.0566292  85.4517593  59.2962990  44.7988319  85.5910187
  28.0209961  40.1603622  74.7765503  27.3704433  39.6898117  75.2976990
  27.5890675  40.3141327  73.9362946  19.5575027  51.4203720  82.6525879
  19.1920204  51.0637894  83.4622192  19.0503578  51.0026360  81.9565048
  82.6603241  67.2958069  35.6287155  83.0187149  67.3701553  34.7442589
  82.4173126  68.1910629  35.8647079  49.3398552  20.1962090  82.4231949
  48.7685966  20.0626526  83.1795349  49.8530464  19.3902798  82.3653717
  57.0351334  69.8029404  14.8730259  57.8404808  70.2396164  14.5956078
  56.3848343  70.0626526  14.2204237  74.2751770  34.8531494  54.8576355
  73.3451767  34.9818077  54.6711349  74.2971954  34.1174583  55.4696045
  24.4875889  45.6316032  42.5247269  24.3666592  46.5012817  42.9058685
  23.5999355  45.3275299  42.3354073  19.0492420  70.4856491  69.5215759
  18.7628708  70.1844711  70.3838501  19.9973373  70.3539734  69.5245819
  63.3388290  26.0803108  73.8580093  63.8573799  25.6839771  73.1578217
  63.1993332  25.3699398  74.4842224  33.4873695  31.7867832   2.0674081
  33.5688210  32.7361946   2.1580241  34.0500221  31.5679340   1.3246024
  46.4670753   6.2422738  12.7567902  46.2847977   7.1818161  12.7731037
  46.0625610   5.9058976  13.5564461   3.8905919  22.4180164  30.0029316
   3.1645226  22.1992931  30.5870686   4.0514684  23.3486252  30.1588764
  50.0914230  57.7576027  67.6271973  50.8064384  57.1296768  67.7305908
  50.0763702  58.2415390  68.4529114  69.1192017  13.9661875  49.0396690
  68.6809540  13.2204266  48.6297798  68.7267761  14.0254650  49.9107170
   7.0297813  47.3425446   1.0865681   7.8864021  46.9225998   1.0085896
   6.4185667  46.7125931   0.7047121   2.8203988  28.5037956  49.2984543
   3.1469889  29.1809044  48.7059212   2.0721896  28.1234226  48.8383102
  10.2690496  33.1294022  73.7414551  10.4409237  33.5830269  72.9162827
   9.5594187  32.5205078  73.5367508  10.4127121  22.3727188  55.8156052
  10.6866856  22.5576687  54.9172935  10.9109850  22.9910126  56.3500824
   2.1153328  37.1505966  75.4829636   1.9187939  36.3950958  74.9290466
   1.4336705  37.1387711  76.1548462  45.1600037  35.7376823  75.5052719
  44.2505989  35.4869843  75.3429108  45.1757011  35.9989357  76.4259949
   6.9756021  71.1745148  24.8020992   7.0770783  71.9328842  25.3772659
   7.4334326  71.4205627  23.9983063  61.8317833   6.7612810  80.3094406
  61.9429779   5.9332728  79.8422470  61.7206879   6.5064359  81.2253799
  21.3972950  47.0041771  40.1529884  21.6008053  47.6237984  40.8536186
  21.6838951  46.1562920  40.4923744   4.8225818  69.6223679  23.6371651
   5.6744933  69.8199463  24.0263195   4.9946451  69.5720825  22.6969013
   0.5618178  50.8462486  86.5231781   0.2777489  50.8159447  87.4367523
   1.2962314  50.2338524  86.4802780  23.4987240  61.4342346  81.3285751
  22.8113842  60.9961739  80.8266830  24.2406998  60.8303604  81.2963181
  82.7419739  45.3703384  46.7753105  83.6476898  45.3785057  46.4657135
  82.8127899  45.2280960  47.7192307  34.1350403   9.8103352  82.0853043
  34.1080742   8.8542690  82.0473251  33.2354088  10.0826921  81.9044342
  81.1393738  19.7209206  19.3578777  81.1980362  18.7772026  19.5068264
  81.9124298  20.0805721  19.7929230  78.4087753  52.8186874  13.9035311
  78.8470688  52.6684837  13.0659332  77.5875854  52.3316879  13.8348675
  28.9435596  42.3099556  76.2634735  29.8792896  42.1571350  76.1319885
  28.5206242  41.5305328  75.9031143   7.5722761  64.4338684  42.5500946
   8.1454248  65.1987534  42.6019974   7.2447824  64.3190079  43.4421654
  82.3590393  49.7216835  81.5371857  82.5917358  50.6026726  81.8303375
  81.4019165  49.7117691  81.5446701  25.8766632  53.6141815  42.0702248
  26.3328934  54.4556427  42.0643959  24.9543858  53.8425789  42.1862831
  12.4496136  65.6274490  30.7271538  13.3833923  65.8118515  30.8285637
  12.3088093  65.6178436  29.7804146  46.8765335  58.0716209  58.0086098
  45.9834709  57.9349251  58.3248100  46.8409729  57.8363991  57.0814438
   6.8385816  32.0617752  50.6434898   7.3209286  32.8871231  50.6922112
   7.3574023  31.5156574  50.0528870  62.2604408  23.3823318  34.7309799
  63.1259918  23.2473850  34.3451805  61.7236633  22.6782017  34.3672523
  16.6199341  60.6333389   3.5652971  16.7914543  61.0439301   4.4127808
  16.1008301  59.8571815   3.7758722   1.7277503  11.3525248  25.7602596
   1.4204279  11.7736473  24.9574909   2.0591464  10.5018072  25.4727039
  43.8815079  67.3434448  42.5727081  44.3255653  66.4964676  42.6136513
  44.3234329  67.8115768  41.8643417  52.9073563  60.6294632  15.2404261
  53.8062210  60.9552269  15.1940250  52.5990677  60.6472931  14.3344059
  43.7840462  19.6750717   7.1069641  44.7402878  19.6451206   7.0762634
  43.5359001  20.1923962   6.3407845  49.1913147  61.5311356  15.2947569
  48.5248299  61.8865395  15.8827324  48.8230629  61.6449966  14.4185953
  48.8639221  64.3530502  85.9531937  48.3406067  65.1446838  86.0784454
  48.5439911  63.9820671  85.1308441  35.5611496  64.7651749   8.4372978
  35.7453728  65.5648270   7.9445066  35.9093323  64.9373779   9.3121367
  64.2947998  56.6245346  17.4787540  63.4465599  56.3014793  17.1748524
  64.7100449  56.9821663  16.6939564  16.9989529   1.0093484  52.7243042
  16.7182751   1.6902411  53.3357239  17.8817520   0.7775720  53.0127068
  40.7413559  20.3148956  86.8023300  41.3237534  20.0761585  87.5234756
  40.2609596  21.0774231  87.1248245  77.4816360  68.0799561  70.5677185
  77.1211548  67.8555679  71.4255905  77.1560211  68.9632874  70.3947067
  15.7745333   0.7005929  45.9919510  16.0338383   0.7116474  46.9132919
  14.8175526   0.7002146  46.0124588  20.2960434  48.3854370  72.7995834
  20.5145397  47.8600044  72.0298996  19.7739925  47.8004150  73.3486176
   8.8551006  49.1000938  49.8751259   9.1895027  49.6677628  50.5695000
   9.1341715  48.2205544  50.1296120  51.8607941  38.0948830  64.2967377
  52.3944511  37.3409500  64.0456848  52.1108742  38.2741623  65.2031326
   5.6418314   0.5969658   8.8900089   6.2237315   1.3530976   8.8132715
   6.1449161  -0.0421878   9.3946075  19.2403164  54.3095207  24.6706886
  18.6660709  54.1723976  23.9172497  19.0095482  55.1810570  24.9922428
  20.6362820  63.8754883  72.5299911  20.7447357  63.3681068  73.3343735
  19.8119659  64.3462219  72.6530457  84.8557510  70.9892807  56.5808678
  83.9223557  70.7790604  56.6091614  85.2207108  70.5638733  57.3567963
  85.8697968  14.6100674  50.4907608  86.3078232  15.4357109  50.2841759
  86.1323624  14.4183559  51.3910599  35.9310684  52.0216789  58.8392372
  36.3895569  51.3917809  58.2831383  35.5972328  51.4989815  59.5683289
  54.3976974  10.9569874  18.1186829  54.4855309  11.3216400  18.9993324
  54.5343170  10.0166435  18.2340946  79.1563721  66.8353348  74.2879028
  79.7002106  67.4371872  73.7797241  79.5837784  65.9845963  74.1888885
  71.6695480  23.6937714   4.3320074  72.2809601  24.3941956   4.1043830
  71.7663498  23.0530148   3.6275265  56.7792931  48.0500793  51.2205276
  57.6924553  48.2481766  51.0128632  56.3323593  48.8947029  51.1649361
  56.0833588  53.4147644   6.6901402  55.3089485  53.9484024   6.5119472
  55.7372322  52.6152573   7.0866475  80.4638596  38.4725609  79.0682907
  81.2595215  38.5429916  79.5957260  80.7246017  37.9496841  78.3101044
  72.8349457   6.8408871  40.8103294  73.4453201   6.9005475  41.5452499
  71.9919128   7.1076536  41.1768875  77.0491943  19.1966743  15.9123640
  77.1534805  18.3403091  15.4976406  76.2747116  19.5726814  15.4939976
  40.7452354  58.6421623  26.3910885  41.2996025  59.4221840  26.4127750
  39.8978424  58.9413300  26.7207222   0.4959589  14.8882475  74.4512100
   0.2416300  15.1260433  73.5595779   0.1685359  13.9958544  74.5637283
  22.7737122  57.0575676  36.9120255  21.9754486  57.5806808  36.8388214
  22.4787693  56.2188683  37.2667427  58.2916336  30.3881435  75.1020432
  58.5434418  30.6926060  74.2301941  58.5339966  29.4621868  75.1116486
  67.2833328  11.7371931  51.1829147  66.8514786  12.0250673  51.9871864
  66.9388504  10.8577251  51.0276756  24.5741787  57.8264809   9.0824728
  23.6510849  57.9759026   9.2869263  24.6186504  56.9022560   8.8373842
  61.3441467  35.6320229   9.0638809  60.6175957  35.9410248   8.5227032
  60.9426575  35.4233475   9.9073811  13.6568279  53.1473846  86.7260284
  12.8979130  53.6325912  87.0498352  13.9722624  53.6634026  85.9840927
  63.4942703  25.6729107  36.5780029  62.9685516  25.4564724  37.3480721
  64.3372421  25.9531326  36.9345360  81.4727783  24.4887028  14.9545145
  80.5895004  24.6176300  15.3001127  81.3780365  24.5978413  14.0082874
  57.6129875  57.2567902  36.3069115  57.6133041  57.8142433  35.5287857
  56.7223206  56.9090767  36.3520775  81.1352158  51.4157143  78.9847488
  81.0381699  50.7904091  78.2665558  80.5839920  51.0646324  79.6841278
  59.6268921  28.8561344  15.4072113  59.8905525  29.7734528  15.3348246
  60.4517517  28.3712540  15.4342308  43.2259254  34.2097130  62.1660652
  43.8615723  33.5443077  61.9025764  43.4636345  34.4241219  63.0681496
   4.2495770  32.0409660  20.0563488   5.1426015  31.8343925  20.3321514
   3.7728977  32.1821823  20.8743134  25.1957302  59.2362556  45.3814583
  25.0010662  58.3335876  45.1294174  24.3371983  59.6480293  45.4794312
   5.9352427  54.0224304  75.4248505   6.4110713  54.7351761  75.8512421
   5.9362645  54.2554932  74.4964600  27.3565807  33.8201370  62.7981873
  26.5541954  33.3053093  62.8839684  28.0227413  33.1838722  62.5381279
  24.8564434  11.4293680  70.4009552  25.5049362  11.5106802  69.7016144
  24.5456295  10.5263996  70.3355789  72.2106705  28.5812225  47.3160782
  71.4323044  29.1383152  47.3206863  71.8663559  27.6884136  47.3399315
  58.6064987  68.0823517  81.8893280  58.0895271  68.1197739  81.0846100
  58.3172455  67.2793884  82.3227081  61.9717445  59.5386620  60.2932396
  61.8781662  59.1138229  59.4406052  62.0146103  60.4734116  60.0916672
   1.2063229  65.9336166  52.1990776   0.8097675  66.0646667  53.0603561
   2.0042822  66.4618759  52.2199097  86.2949677  12.4971390   5.0849895
  87.1479874  12.8401413   4.8186407  86.3134460  11.5773973   4.8204789
  14.7307549  13.6598330  58.9527626  15.2587700  12.9435720  58.6000557
  15.0175886  13.7435665  59.8621292  58.9013329   6.2998285  88.9005737
  58.9372635   6.5175138  89.8320007  58.7044487   7.1306286  88.4678650
  81.0813751   7.3069468  80.5148773  81.8378296   7.8904819  80.4556732
  80.7559052   7.2448726  79.6168594  81.4376450  17.8572121  47.2726746
  82.2487717  17.6039009  47.7132988  81.1169052  17.0468235  46.8769188
  14.5228863   7.8626528  84.2812119  14.9909430   8.3535337  84.9566345
  14.3108788   8.5155849  83.6141586  40.6387100  24.3885975  77.9852219
  39.7659531  24.3699894  77.5925674  40.5201492  24.8591232  78.8103180
  11.2696686  46.2160149  34.2210541  10.3494949  46.3386497  33.9876595
  11.5317345  45.4229851  33.7534485  29.3675499   6.8981681   3.5675457
  28.5056877   6.4817309   3.5694597  29.2979794   7.5956764   4.2193689
  32.2802544  36.3034248  76.0831299  31.4051991  36.3847237  76.4624710
  32.4056091  35.3612518  75.9698639  44.7721443  37.5975838   9.6121731
  44.2394600  36.8022995   9.6134119  44.1715050  38.2877312   9.3308182
  72.9124832  67.4519043  83.9114838  73.3586197  66.8570099  83.3087463
  72.3171234  66.8891830  84.4065781  30.2067776  59.6831741  40.4317627
  30.7070179  60.4948235  40.3468361  30.5961704  59.2395630  41.1852951
  28.3947163  39.1172142   1.0797671  29.0651875  39.4295273   0.4721802
  28.7945023  39.2076836   1.9447632  75.5872421  10.2541380  87.2131042
  75.5642471   9.3968706  86.7879028  76.1428680  10.7882318  86.6454239
  23.1750965  38.8629379   4.0211844  23.1299114  37.9231377   4.1971583
  23.8381577  39.1889496   4.6297078  78.2258530  35.6342049  54.2083321
  78.5875549  34.8609428  53.7753525  77.4023132  35.8019829  53.7502289
  45.5503998  42.8762245  27.8233967  46.3128738  43.1466789  27.3118095
  45.7678108  43.1183739  28.7235775  40.5523071  26.6223335  79.8790512
  41.1415291  26.8911819  80.5838699  39.6804047  26.8665028  80.1895370
  55.7589226  66.6874008  31.8218117  54.9924202  67.2488327  31.9380112
  56.3234367  66.8956909  32.5662422  41.6828804  39.6641388  73.5609360
  40.7350311  39.7535019  73.4617844  41.8011398  39.3460884  74.4559708
  68.2045441   7.2436070  52.8384361  68.9179764   7.0519228  52.2297478
  68.5466080   7.9424872  53.3959236  48.4025841  70.4722061  21.0174885
  47.5805855  70.3239822  21.4850197  48.5755005  69.6445694  20.5687618
  81.7050400  55.9991264  30.3890495  81.6452637  56.3139267  31.2910252
  81.2153244  56.6432228  29.8776245  79.6100311  49.2134895  13.6149111
  78.9496689  48.5460663  13.4286432  79.4690399  49.8832436  12.9457464
  83.9406586  58.8178902  26.3961773  82.9884949  58.8738213  26.4767132
  84.2070541  59.6867599  26.0956249  76.0003128  26.9697800  60.4638100
  75.1367722  26.6289024  60.6968994  76.4579163  26.2212868  60.0809364
  70.5052643   5.8121610  82.9879150  70.9496765   5.2282166  82.3733063
  71.0615616   6.5902843  83.0238724  52.2261887  20.2244873  41.0103149
  52.0886765  20.4886703  40.1006279  51.7733116  19.3846855  41.0869064
  70.1422806  51.7822876  38.9907646  69.8608932  52.1081390  38.1358528
  69.8965378  52.4750633  39.6038742  78.0531006  55.6509361  30.5034409
  78.2888260  56.4453583  30.0243168  77.5452042  55.9643860  31.2517834
  42.6389999  68.8556137  16.8936234  43.4435120  68.4408493  17.2050228
  42.8521233  69.1592789  16.0112419  45.8974609  49.3020859  51.8698006
  46.2503891  49.9006157  51.2114410  45.9771576  48.4349327  51.4724083
  43.5068436  24.8251324  72.8414917  43.9797783  25.2617035  72.1329956
  43.9027023  23.9551620  72.8932495  16.6014042  30.5306053   9.7870846
  16.7621269  31.4394360   9.5332546  15.7006168  30.5280647  10.1108246
  48.1559601  68.7983475  70.4562149  48.9468155  69.3033142  70.2670517
  47.7252045  68.7008362  69.6070023  72.6110306  29.9075127  88.8060760
  72.8307419  29.2498531  88.1461945  72.3751678  29.3988762  89.5818863
  65.4798584  10.0019855  56.6565857  66.1036911   9.2771893  56.6981850
  65.7950287  10.6270351  57.3094368  52.1267319  23.7785816  87.5898895
  51.8862000  23.8297958  88.5149536  51.3877258  24.1744995  87.1279831
  71.4725800  56.5196190  57.1198006  71.4616470  55.6143265  56.8090553
  71.8875122  57.0111618  56.4109650  60.5726662  14.4909363  46.5429268
  60.5584564  13.7699203  47.1723442  60.3486176  15.2646866  47.0599785
  43.4350319  69.9290161  20.8061066  43.0093994  69.7640457  21.6474476
  43.3944511  69.0893021  20.3484306  22.4678402  19.2910175  87.9627304
  21.9685040  18.8661289  87.2653351  23.0476112  18.6052608  88.2941513
  77.0332870  25.9047337  41.8172531  76.3761292  25.7792950  41.1326828
  77.7540436  25.3270893  41.5661049  20.6697998  60.9235153  31.4771976
  21.0375195  60.9361572  30.5935383  21.0062122  61.7199287  31.8880291
   9.9050064  22.2033730  62.4475098   9.7332067  22.9036732  63.0770302
   9.2576952  21.5297661  62.6560135  67.9754562  40.1756859  69.6248550
  68.5479355  39.5526276  69.1773071  68.5058289  40.5121231  70.3471756
  80.4872665  68.4361267  71.6191940  81.0760117  67.7203598  71.3798447
  79.6836853  68.2589645  71.1302185  21.6124725  71.0934296   7.6047854
  21.1234703  70.8026886   8.3745766  22.0516415  70.3041763   7.2878542
  21.6775894  59.0210495  71.0503693  21.9236393  58.7476921  70.1666412
  22.2777596  59.7380638  71.2551041   0.5423638  57.4328690  21.8828716
   0.8503422  56.6313362  21.4598751   0.4105731  57.1852837  22.7980576
   6.7912488  46.1208305  39.6199570   6.1946335  45.3834267  39.7484665
   6.9045496  46.4925156  40.4947395  35.1146164   9.8757334  67.3207397
  35.1510925   9.0244770  67.7569351  34.3802986   9.8012838  66.7112579
  76.0524521   6.5418758  36.0458031  75.9611816   5.7255120  36.5371819
  76.0322495   7.2270827  36.7138710  27.9392414  46.2788963  82.1518097
  28.2239399  45.3706131  82.0508194  27.1007767  46.2176056  82.6094742
  15.7996550  15.8775740   6.8243361  15.8257313  15.7663784   7.7746978
  16.3069420  15.1411037   6.4830117  16.2080097  60.8930893   9.1475248
  15.7944756  60.0795822   9.4363613  15.4823618  61.5100555   9.0525484
   3.2286303  68.0814667  74.3238220   2.8871760  68.2953415  73.4555435
   4.0876884  67.6946030  74.1547394  54.4493675  18.8874035  18.7437820
  53.8628960  19.3120594  19.3698425  55.3220329  18.9950123  19.1220779
  52.3846588  56.9399681  55.9629707  53.2761383  56.6005325  55.8837204
  51.9058266  56.2504272  56.4228477  67.2330933  31.5017262  86.7322311
  67.6327972  32.0535583  86.0599594  67.9745712  31.1451302  87.2213974
  32.1157990   8.5885572  14.6843786  32.4785538   9.0463142  15.4427309
  32.5079308   9.0275011  13.9295330  15.1376286  45.1625023  32.5229912
  14.5447588  44.4666023  32.8066559  15.6308069  44.7766762  31.7990131
  86.5142975  54.7491302  38.7359848  86.6434708  55.5843124  38.2865295
  86.8907318  54.8843880  39.6056023  82.1856308   7.8248363  68.0302811
  82.3577957   8.1900454  67.1624069  82.0993958   6.8832703  67.8811188
  17.9284039  46.3571472  65.1953278  17.8797798  46.2265091  66.1423264
  17.0390720  46.1881638  64.8842621  70.0584335  64.3036423  -0.0226018
  70.9192810  64.5383835   0.3239010  69.9359665  63.3908806   0.2383721
  29.1105499  58.8222618  19.8849239  28.5707798  58.8649483  19.0955830
  29.5330715  57.9645386  19.8400574  45.9937325  57.3508301  60.6135254
  45.7820358  58.2791100  60.5149689  46.3262672  57.2746468  61.5078697
  67.1555634   3.3761413  87.5729065  67.8316879   4.0265436  87.3830261
  67.2493134   2.7235827  86.8789215  83.9369965  25.0653458   9.2439451
  84.1306305  25.8578320   9.7446461  84.7942581  24.7406559   8.9684372
  60.0872917   7.4643607  69.4648895  60.7567673   8.1077642  69.2323685
  60.3256187   6.6809263  68.9692459  66.0009995   9.0605354  35.4666061
  65.1730881   9.1386890  34.9925995  66.5000992   8.4109631  34.9714355
   7.4877033   7.5251465  52.9016495   8.0206585   8.2932129  52.6960640
   6.7257099   7.6016960  52.3274231  54.3150978  12.0469446  68.5126495
  53.6683655  11.3583107  68.3585281  55.1310310  11.5757942  68.6814728
  81.6586304   9.9340239  87.4481506  81.6170883   9.1984015  88.0591888
  82.5908508  10.1426353  87.3874741  82.8549957  69.4564590  42.0108376
  82.7719955  68.7625275  41.3567696  83.6985626  69.2896194  42.4313087
  32.4421120  49.8495712  71.9042969  32.1139603  48.9963341  72.1880875
  32.7856178  49.6935654  71.0245895   7.1185360  29.1012897  59.5521202
   7.5037217  28.2251625  59.5683708   7.4063663  29.5046978  60.3710518
  74.0421219  40.1594505  85.3030243  73.9158325  41.0615387  85.5971680
  74.2807236  39.6800156  86.0963974  10.9531059  12.4940338  27.6409302
  11.7657566  12.9144115  27.9222012  10.2663097  12.9523287  28.1251926
  17.4104691  41.3662796   3.9429002  17.2028542  41.7536850   4.7932205
  16.5773239  41.3623734   3.4716413  24.0333385  53.5619354  59.7546120
  24.4318275  52.7147369  59.9538422  24.7647247  54.1793251  59.7663803
  55.7016335  63.5874329  75.2648926  56.6035233  63.2886009  75.3811951
  55.2188911  63.1768761  75.9822693  59.7674561  51.2344933  63.1349373
  60.0025597  51.3726501  62.2174034  58.8104248  51.2509499  63.1420555
  26.8772087  60.3499069  76.3800049  26.4477959  60.3226547  75.5249634
  26.4854031  61.1038017  76.8208694  80.1813660  60.0612907  86.9554214
  80.0298309  60.6699944  86.2324066  80.8498535  60.4878426  87.4915237
  20.1979370  63.5669632  45.3048706  20.3405819  64.4475174  45.6520157
  19.3034840  63.3483849  45.5664177  84.9032822  18.1332817  22.3788929
  83.9728699  18.3357067  22.4767857  84.9222031  17.3609886  21.8137035
  48.9320488  35.6592560  58.3631134  49.0620918  34.7112923  58.3370323
  48.1756058  35.8129082  57.7970543   6.2760129  39.7851944  62.3497887
   7.1150365  40.1758156  62.5940971   6.3781719  39.5566940  61.4258919
  12.7942486   8.9034538  58.6935120  13.2152624   9.1526546  59.5162392
  12.5469236   7.9873009  58.8189163  14.0396709   8.5679855  21.5441647
  14.3058901   9.0475063  22.3286514  13.4276142   7.9054594  21.8645973
  12.3218164  40.6427803  66.1350098  12.7650137  40.0242691  66.7157440
  11.8111334  40.0911407  65.5424500  81.4475479  64.1425171   8.8256950
  81.8174133  63.4441147   8.2856359  81.3905182  64.8954697   8.2374382
  45.9700890  30.4836617  13.9023170  45.6938324  31.3912983  14.0292397
  46.6747551  30.3567162  14.5375843  13.3176146  45.1547356  57.4926376
  13.4825792  45.9072838  56.9245758  12.3832674  44.9754448  57.3873672
  30.4840889  25.6228199  81.7686844  31.2139530  25.2174206  81.3005142
  30.0399895  26.1530094  81.1069412  61.1465797  47.6422272  81.7911377
  61.6557274  48.1343536  82.4351959  60.4155045  47.2787933  82.2908096
  36.9377556  34.0442810   6.2936411  36.4837341  34.8482780   6.5459967
  37.2663574  33.6858978   7.1181502  47.9039230  29.4817657  63.0417900
  47.2644234  28.9380283  62.5817719  48.0591049  29.0225754  63.8671951
  53.6543694  27.2555943  50.0743713  53.9573097  27.7809391  49.3337822
  52.7486916  27.0349159  49.8569183  44.3316536  43.4985771   6.3098974
  44.8406754  43.9386749   5.6291323  43.9136353  44.2104874   6.7943349
  64.8232880  41.8773117  69.8362503  64.2248535  41.9236717  69.0906219
  65.6727524  42.1347237  69.4779587  65.9367142  61.9603691  17.6541862
  65.6590729  62.5142403  16.9245472  65.3041000  61.2420769  17.6638546
  28.0002689  35.2629204  74.5077972  27.3642139  35.0073738  75.1758957
  27.9865685  34.5435715  73.8764572  44.5283051  44.2598801  64.0702591
  44.4483070  45.2135658  64.0880814  45.4315948  44.1003685  63.7966652
  81.5346985  54.6825066  75.5790253  80.9084778  55.4057922  75.6095581
  82.1281433  54.8484192  76.3115082  70.7756958  63.5882225  65.1365356
  70.3313446  64.2772751  65.6304855  70.2610168  63.4985466  64.3344803
  27.1855011  10.1828194  69.1938858  27.6677647  10.1198759  70.0183182
  27.5411930  10.9623718  68.7672501  53.1940613  68.6064529  61.3274689
  53.6711464  69.1738815  61.9329834  52.3624687  68.4315033  61.7680054
  46.6873360  50.0618515  23.5008659  46.1056252  50.7669525  23.2168350
  46.8147469  50.2187119  24.4364910  71.4174423  51.9942245  41.5768890
  71.6678619  51.3920860  40.8762093  70.5611115  51.6805267  41.8676186
  59.7928619  43.3405190   5.1109385  59.9259911  42.5849648   5.6833425
  59.8454247  42.9820099   4.2249699  41.2145233  62.9575195  62.8443565
  41.3448792  63.9036140  62.9087105  41.9201317  62.6569328  62.2716484
   9.9389839  18.5649624  74.9724655  10.0922394  18.0497589  75.7644958
  10.2530966  18.0081692  74.2600403   6.3736868  56.6584663  30.1390820
   6.5605536  55.7425728  30.3451099   5.5926461  56.6251755  29.5867252
  64.4679794   6.6358576  58.8569908  63.7523651   7.2137790  58.5921516
  64.7219543   6.1846962  58.0518913  52.8567390  49.4515495  38.5016937
  53.1676903  49.6947975  37.6296997  51.9067688  49.3826294  38.4066238
  29.0708942  46.4690666  49.9998245  29.6439247  45.7040901  49.9480438
  29.6628056  47.2001648  50.1769218  53.8845673  43.0371666  29.4360905
  53.4885674  42.3025856  28.9672585  53.7672005  42.8219910  30.3613777
  12.9271984  55.7158775  34.0042992  13.6368017  55.9462204  33.4046021
  12.1401815  56.0723228  33.5922508  35.3405914  51.6410446  87.3335876
  34.6737328  51.1334801  86.8710861  36.1669998  51.2160263  87.1041489
  74.2386246  33.0199547  56.9631882  73.6661530  33.0774155  57.7281723
  73.7486877  32.4871178  56.3368721  62.6699066  28.0374680  12.8601665
  63.0748215  27.1713238  12.9056273  62.5264206  28.2830524  13.7741318
  71.9818726   3.2559412  39.9709854  71.2757797   3.8987007  40.0382652
  71.5874100   2.4350872  40.2656593  48.0132561   9.3052235  71.5506058
  47.5375595   9.7779036  70.8675842  48.0691681   9.9260874  72.2769852
  61.7604675   8.9463425  24.0788212  61.4862595   9.5261784  23.3683052
  62.5066605   8.4653339  23.7209740  51.2808685  46.2127724  34.6969070
  51.3222008  45.8554268  35.5839424  50.7547417  45.5799713  34.2080421
  46.8887939   7.1830497  53.5855064  46.3878670   6.3693295  53.5292664
  47.7939339   6.9189906  53.4205017  28.0993385  59.4300079  63.3743935
  27.9264965  58.4986153  63.2370338  27.2313862  59.8321152  63.4090538
  67.2718201  68.6318283  83.9046173  67.6148682  69.0274353  84.7058945
  67.9591217  68.0284576  83.6221390  80.4853058  50.1880951  52.2033997
  80.2585449  50.7392731  52.9524078  80.5668564  50.7999115  51.4717827
  46.3069534  49.0448647  29.6789322  47.0769844  49.5560074  29.4299049
  46.3908310  48.2292976  29.1849270  15.2637205  56.5342331  17.0908966
  15.9043207  57.1300011  17.4793835  14.9622164  56.9871407  16.3033676
  24.1078091  25.3816128  53.4992485  23.5972862  25.8757076  54.1407089
  24.6798897  24.8240738  54.0266037   6.4583516  65.4795074  13.3979282
   5.9760675  66.3062515  13.3868608   7.1744828  65.6282196  14.0153990
  -0.1744054  52.7779274  -0.0013172   0.5570149  52.8737068   0.6086686
  -0.3226106  53.6615448  -0.3381981  73.8337708  51.9135208  65.6611481
  74.1020355  52.0927238  64.7599564  72.9449463  52.2637939  65.7206192
  85.3006668  25.9154148  34.4231758  85.1313400  26.6568241  35.0044441
  85.7170944  25.2613029  34.9843903  46.4025383  52.2270317  18.2332382
  46.9251556  51.5319595  17.8332653  45.9541397  51.7997627  18.9630394
  84.6908340  41.3583488   6.1066747  84.3836517  41.3409615   5.2002707
  84.0524368  40.8302917   6.5860920  17.9905643  46.3647995  70.3613815
  18.8489552  46.4115181  69.9404144  17.9354668  45.4690247  70.6942215
  29.4307365  40.2442284   7.9705977  28.6197853  39.7914886   8.2021503
  30.1153660  39.7607841   8.4329815  36.6681099   9.4850559  84.4642105
  35.9454231  10.0467167  84.7443695  36.8563614   9.7657957  83.5686722
  40.0504761  19.9620514   5.9141951  40.3091660  19.0883541   6.2073941
  40.8512764  20.4826355   5.9770045  80.4307480  18.7169743  29.0726032
  80.5531006  19.6503067  29.2462463  81.3082886  18.3422241  29.1482506
  47.2395020  24.6007214  25.7358112  46.3742981  24.1956539  25.6760464
  47.5408936  24.6567364  24.8290253  86.2091522  26.8982296  31.7972927
  85.9587097  26.6321697  32.6820107  85.6611404  27.6609440  31.6124039
  57.9509544  24.4521675  44.6480141  57.8146820  25.3966637  44.5732651
  57.1291656  24.0668106  44.3440475   7.9872432  66.0337296  82.7638321
   7.9971790  66.9899368  82.7213440   7.9778514  65.7534027  81.8486481
   0.9487315  69.9294662  21.6032009   0.2633212  69.7929077  20.9491386
   1.4216695  69.0977554  21.6317616  65.7996826  34.0061684  54.8516617
  65.8358078  34.6406517  54.1358681  64.9655991  33.5530739  54.7282295
  66.8703537  12.6304235  18.2209034  67.7176666  12.4913340  17.7978764
  67.0768814  12.7027225  19.1527557   2.7575197  24.9566441  43.1021156
   3.2252760  25.7765427  42.9433632   2.6806712  24.5534306  42.2373924
  53.6249428  28.7704124  22.1328602  53.2986221  29.2641239  22.8851871
  52.9691544  28.9127331  21.4502792  62.6125336  57.1955338  66.0693665
  62.3223953  56.3241425  65.7996750  63.2457848  57.4549217  65.4000778
  39.6976662  64.0721130  75.8803864  39.6781082  65.0191040  76.0184174
  39.4441566  63.9582901  74.9644089  50.9574547  16.0191822  48.2912445
  51.3698196  16.8498764  48.0543137  51.5098228  15.6682339  48.9897842
  57.0690880  46.1353302   4.3647852  56.2406425  45.7745209   4.0489993
  56.9989281  46.0970078   5.3186407  50.9384460  34.5169334  49.4616508
  51.3262329  34.3059235  48.6123390  50.5640450  35.3899460  49.3437424
   0.5847130   4.7548723   2.8264363   1.4549520   4.6654382   3.2149169
   0.7052463   4.5081191   1.9094758   3.8849773  62.1479149  39.6286621
   4.1702833  63.0413818  39.8198357   4.1459594  62.0025597  38.7192688
  36.3724213  66.2018967  66.8872070  35.5067215  65.8800659  67.1386337
  36.8818436  65.4098969  66.7155991  77.9237442  59.5477753  56.5843811
  77.9224548  58.8125000  57.1972427  78.8359299  59.8367348  56.5589066
  77.2784576  42.1198006  83.6694489  77.7181778  42.9437103  83.4595566
  77.3507309  41.5991745  82.8694763  56.0930977  64.6172409  84.6958008
  56.6578484  65.1979370  84.1858215  55.4869995  65.2063904  85.1450043
  18.1642303  23.3002853  83.0385742  18.0266685  24.0092430  83.6668167
  17.3817635  22.7546940  83.1180038  60.3599701  19.8002682  43.4545021
  60.1217270  19.7448196  42.5290833  60.6322212  20.7096310  43.5776634
  65.6588364  36.3508492  10.5158052  65.7560806  35.4044456  10.4104586
  64.8702164  36.4527435  11.0486536  53.7203293  56.1445007  10.2511702
  53.0812798  55.4418488  10.3700180  53.2091713  56.9495926  10.3334990
  15.2088709  68.3531723  61.1598549  15.9643450  67.9024277  61.5371094
  15.1344595  69.1615524  61.6670151  56.0262108  67.4425659  84.0132523
  56.6471901  67.9552689  84.5307007  55.4307671  67.0638733  84.6599884
  18.8709259  12.6347990  55.0839691  19.7507381  12.4029636  54.7866211
  18.9958763  13.4262629  55.6076126  75.6702499  35.8075371  11.0236816
  75.6522141  36.0650139  11.9454260  75.6734085  34.8505249  11.0423470
  76.3193436  45.0055122  60.3318443  75.7192154  44.9354362  61.0742493
  75.7623291  44.8906250  59.5619278  41.4549866  52.4654999  32.7243690
  42.0769348  52.1626701  32.0627747  42.0026741  52.7433701  33.4585762
  52.1146507   5.0568218  85.8550949  51.7993011   5.1136999  84.9531250
  51.3225327   4.9352803  86.3785477   2.3001320   4.3650517  79.4240417
   1.9215318   5.2286077  79.5888596   1.6768190   3.9385281  78.8359985
  45.7603149  26.8059654  63.6207390  45.3214989  26.0417862  63.2469711
  46.5616379  26.8979225  63.1053238  45.3799324  51.1605682  41.9022522
  44.7010727  51.6689072  42.3460732  45.1835861  50.2510910  42.1270485
  40.6196060  33.2882156  14.9679890  41.3344345  32.6774101  15.1473351
  40.7856255  34.0290260  15.5509701  41.4188194  46.8749237  30.3828602
  42.0411682  46.7853470  29.6611328  41.8434410  46.4376907  31.1209354
  17.8330364  69.1703491  24.4889393  18.3785725  68.6411362  25.0707951
  17.6363773  69.9581451  24.9958267   7.0559273  69.5529709  18.7776413
   7.3550906  69.9585266  17.9638481   7.1060729  68.6120987  18.6089096
  40.5513496  29.6227894  88.8437424  41.0427246  30.1661987  89.4597702
  40.7388535  30.0038242  87.9859009  37.6286049  34.3051109  75.8980789
  38.1527367  34.7067223  75.2050934  37.9493294  34.7079773  76.7049637
  69.6795502  53.4210625  32.1868782  69.3045197  52.5434608  32.1133881
  70.1338043  53.5578003  31.3554993  76.8720551  46.4043579  71.7474518
  76.4696808  47.2728729  71.7457581  76.2669907  45.8590851  71.2446594
  31.9633884  67.0652466  46.8829193  32.6817856  66.6960144  47.3965378
  31.7434845  66.3801498  46.2516327   1.8071024  27.3713036  40.4930573
   1.7822893  28.1128025  39.8882484   2.7030439  27.3668938  40.8299561
  25.7819138  46.9141541  86.8149719  25.4826546  47.8161392  86.9294281
  26.0253716  46.6290016  87.6956787  11.9619770   4.7120452  51.2591743
  11.0969591   4.4444370  51.5695953  12.1171827   4.1698837  50.4857368
  17.6599751  53.9637718  61.4990959  17.2535763  53.7491074  60.6594582
  18.5379333  54.2681541  61.2693748  23.0165939  64.7018433   2.2358665
  23.7620525  64.2086716   1.8933734  22.4667130  64.8673630   1.4700562
  57.1480751   3.5391874  51.1397247  56.4214096   4.0588889  51.4833794
  57.2406769   3.8278883  50.2318115  73.7123108  27.9733410  81.0696411
  74.4828110  27.4881458  81.3648529  73.0813828  27.8780384  81.7831345
  82.9439774  33.5773010  53.3146477  82.2456665  33.7906036  52.6956940
  82.5037842  33.0976944  54.0163879  67.1146317   9.9775343   7.1407866
  66.8740921   9.4916029   7.9296117  67.1357498   9.3161411   6.4491615
   3.7142513  28.0495358  68.2548676   4.2877536  27.6163311  67.6226807
   2.9079027  27.5339870  68.2392960  69.1823730  12.2563486  76.9538574
  68.6145782  12.2433529  76.1833572  69.9094315  12.8274641  76.7059937
  74.6748886   0.5648929  61.3698807  74.1967239   1.0132489  60.6723366
  75.5785522   0.8649531  61.2719536  72.1864929  52.6630363  13.0129032
  72.2941666  52.4306526  12.0906048  72.5931702  53.5259743  13.0915298
  49.9463081  59.7692223  69.8264160  50.4705086  59.1448135  70.3279724
  49.6811867  60.4287529  70.4674835  73.3112030   1.5127047  86.7003555
  73.8371964   0.7451033  86.4759674  73.1935730   1.9735936  85.8697052
  31.8901787  71.6602325  34.0333099  31.3728924  70.8933640  34.2793999
  32.1045380  71.5186920  33.1112213  77.2593613  13.5220575   0.9936495
  76.4771423  13.1554337   0.5814005  77.9609985  13.3592482   0.3632341
  77.2025909  30.7015820  36.5056915  76.7958832  30.4097023  37.3215485
  77.9712982  31.1985092  36.7856712  47.2446365  45.7550926  79.1712189
  46.8847961  45.2595901  78.4355392  47.6974258  46.4935837  78.7639847
   7.6747117  56.7273521   9.5342083   8.2292223  56.0511665   9.9234667
   7.6999550  57.4488945  10.1626787  43.3776474   1.2944825  76.2380676
  44.1638260   1.3276484  75.6930389  43.1180534   2.2101555  76.3399734
  74.4284439  19.6156673  73.1999664  73.5778275  19.4515324  73.6070862
  74.9925156  18.9182987  73.5342331  57.8833542   4.7613640  64.1802902
  57.7929955   3.8413231  63.9321175  57.0153236   5.0101304  64.4978943
  71.5697098  19.1925774  48.5957146  71.3968201  18.2744617  48.3873825
  70.7219620  19.6251297  48.4934692  33.4681664  62.7480125  20.0461082
  32.6774979  62.2642899  20.2850399  33.6792755  63.2619095  20.8255787
  12.2181501  68.1112137  87.7324753  12.6525106  68.4550858  88.5130615
  11.3611565  67.8200226  88.0439301  61.9257584  56.2752647  47.5051308
  62.4106674  55.4558716  47.4066887  62.4878769  56.8217278  48.0543442
  54.8952141   1.4250036  63.3148117  55.8200111   1.5034109  63.5489807
  54.4247513   1.6759670  64.1097412  18.5938206  52.6924591  78.6351624
  19.3756523  53.2442780  78.6568832  18.0405025  53.0874825  77.9613419
  61.3918839  34.4958382  29.6971893  61.9211349  35.1345978  30.1748009
  61.9851189  33.7606163  29.5430851  10.1201010   5.6928668  61.8196945
  10.5943317   5.9134960  62.6213531   9.2825193   5.3444099  62.1250916
  52.5511589  26.8774185  76.1992035  53.0341263  27.1976757  75.4373627
  52.9653130  27.3113880  76.9451141  65.8677902   4.9347491  79.8995972
  66.8058929   4.9185991  80.0891495  65.7080307   5.8136148  79.5556488
  56.5231590  49.1682091  82.8078995  57.1400452  49.2408485  83.5361862
  57.0602379  48.8903198  82.0659027   5.1134048  55.6469688  81.3635025
   4.1878786  55.7831154  81.1607819   5.5708146  55.8622208  80.5506897
  73.1022568  24.8304119  70.6173706  73.8324585  24.2115555  70.6105881
  72.6624298  24.6727562  71.4527893  61.2290344  13.2412519   3.6578472
  60.7515717  13.8332844   3.0766759  60.5473480  12.8106174   4.1736851
  62.1959572  54.8747177  44.5057564  61.2944527  54.7556877  44.2068443
  62.1999741  54.5289497  45.3983116  65.7532883  52.0375366  68.2716904
  65.1879349  52.0172997  67.4995499  66.0512466  51.1336784  68.3741379
  62.1213646  16.7799149  79.9240265  61.9345970  15.8412504  79.9401245
  62.5708427  16.9204292  79.0906830  83.5020523  65.7961273   7.2379150
  83.1325378  65.8149109   6.3551126  84.1201019  65.0653534   7.2233644
  33.2206230  34.9233017   8.3561163  33.9210358  34.7406006   8.9824362
  33.2672386  34.2027359   7.7277508  72.0669556   6.8079367  12.8349323
  72.3502274   6.3199325  12.0617304  71.9766159   6.1433072  13.5178213
  15.6951799  41.6560669  73.1927261  14.8412313  41.5784111  73.6181412
  15.8267488  40.8106308  72.7635956  61.8429565   1.8206174  49.5208359
  61.5434990   0.9882970  49.1550522  62.7817917   1.8398587  49.3352203
  24.8481846  32.8960991  79.6316833  24.6447525  33.4136467  80.4107742
  24.2644215  32.1395721  79.6875381  86.5455093  45.7905846  41.8267212
  85.7038193  46.0315857  42.2136421  87.0617142  46.5961571  41.8553619
  17.8200016  39.0620422  66.7475662  17.7210045  39.1231651  67.6976700
  17.1799164  39.6828995  66.3996277  72.2191620  18.8869476  58.1790161
  71.7871475  18.3667278  58.8564873  72.3975830  19.7278347  58.6000900
   5.7702141   0.0550590  88.8848190   6.4009275   0.3449430  89.5439072
   6.2937293  -0.0782549  88.0946350  49.2755928  67.7220840  22.9234848
  48.7828178  67.6479797  22.1062241  50.1666718  67.4615936  22.6903458
  20.0202923  56.5573349  78.1533508  20.0206814  55.6306458  77.9136047
  20.6136990  56.6111679  78.9024811  57.5094185  30.6028061  22.6225986
  58.3880005  30.9297104  22.8161411  57.0895576  31.3152771  22.1405907
  32.5971413   0.2933291   4.9964972  33.0561180   0.0087662   5.7868114
  33.2345238   0.8351912   4.5313520  18.9072113  56.6741791  25.7056084
  19.4995365  57.2407188  25.2112274  18.5002995  57.2555275  26.3480167
  28.9399891   0.2156735  18.4696426  29.3304234   1.0803008  18.5969715
  29.3338757  -0.3278404  19.1520500  52.0479851   8.8328247  86.2396240
  52.1394424   8.5126019  87.1370239  52.6440582   9.5801363  86.1900711
  54.5926323   9.7612362  26.0894489  55.0727463   9.9623098  25.2861462
  55.2681274   9.4880991  26.7102032  64.7541962  65.5890121  42.8460732
  64.8504257  64.6537628  42.6663857  65.3284302  65.7493591  43.5949173
  32.7348213  48.4862480  46.4628601  33.1428909  48.8799667  47.2340279
  32.4594650  49.2324409  45.9303093  18.7445869   2.1611907  48.7366714
  19.2710991   1.5540121  49.2566223  17.8447609   1.8547432  48.8490677
   9.6844788   2.6399424  58.6782837  10.1946716   2.9818392  59.4124756
  10.3335447   2.4630411  57.9973640  38.5750084   8.3125544  22.5196648
  38.9832039   8.6120863  21.7073307  37.7398186   8.7789202  22.5541706
  31.4889183  43.4096756  85.8236923  31.3117142  43.0373306  86.6875153
  32.2017136  44.0310135  85.9723358   8.2395115  41.2103577  16.6735554
   7.7471075  41.6024590  15.9524288   7.6881695  41.3494263  17.4435654
  41.1442680  32.7162933  39.8368568  40.8116684  32.1580162  40.5396614
  42.0567703  32.4479523  39.7293243  63.5818634  42.5110664  36.1058464
  63.7808800  43.3676109  35.7277565  63.3447189  42.6993332  37.0138969
  34.0649948  29.5988655   8.3678379  34.5902710  30.2744217   8.7967167
  33.4018250  29.3632603   9.0166292  29.5460968  18.4873638  83.4013977
  29.8553944  17.7741356  83.9598465  29.5369797  19.2537899  83.9747543
  62.0201035   4.3735528  78.9752960  61.3318596   3.7212005  78.8449631
  62.8351479   3.8732960  78.9342957  47.0315781  65.1580276  78.8519058
  46.8427620  66.0431213  78.5401382  46.2000275  64.8479156  79.2104874
  37.1676407   0.8047932  76.4643326  37.9427147   1.2459631  76.1166840
  36.4432220   1.1430950  75.9380264  70.1522446  61.1912956  84.9233551
  70.5482788  61.4860191  85.7434311  69.9873657  61.9971466  84.4338074
   1.4177853  45.7278824  82.0026093   0.9709343  45.3053017  82.7360764
   0.7179414  45.9362030  81.3836975  73.7159424  31.7162437  72.0177612
  74.6167374  31.4727020  71.8044815  73.5821533  32.5528564  71.5723267
  12.8992481  45.4447746   1.5131109  13.3320284  44.9370613   0.8267011
  12.1610384  44.8994789   1.7850091  21.5116463  51.5710640  38.5789604
  22.2944508  51.0257225  38.6567726  21.4172306  51.9787674  39.4398308
   6.9991627   9.4874344  68.7396240   6.5915117   8.9241533  69.3974762
   6.2967572  10.0733442  68.4575500  58.9813423  25.6607361  73.3191757
  59.0967407  24.7636356  73.0059280  59.5654564  26.1833076  72.7696609
  73.7816238   1.2231481  22.5165806  72.8798676   1.2135773  22.1956902
  73.7571106   1.7962826  23.2828369  50.7895584  69.5003967  78.7814407
  51.3977089  68.9036179  79.2176056  49.9980927  69.4708786  79.3189697
  21.1472702   3.9956455  76.1469498  20.7355995   4.5086384  75.4515381
  22.0821381   4.0227346  75.9431839  44.8024292  70.9524612   7.2574806
  45.7391624  71.0709305   7.1002288  44.6562386  70.0141068   7.1376719
  29.2183323   8.2128773  81.6495285  29.2407322   7.6706200  82.4379959
  29.3517284   9.1053610  81.9687576  42.3241882  64.1020889  36.5894394
  42.4101562  64.6122665  35.7841072  41.3803177  64.0481644  36.7392006
  73.1364594  36.3610344  58.9086761  72.5185318  36.7468338  59.5296097
  73.0015488  35.4170341  58.9917297  15.5721073  53.3429298  54.4158020
  15.4319963  54.2443542  54.1259193  15.3060589  53.3429375  55.3352852
  20.0165119  16.3777428  73.7049103  20.7501755  16.9925289  73.7077560
  20.2151089  15.7711325  72.9916000  10.9616804  69.4445343  52.2488976
  10.5119019  70.2675934  52.0578270  10.4959230  69.0869522  53.0048294
  37.9815521  49.5917816  44.8312798  38.2410660  49.1298752  45.6284790
  37.1735687  50.0461197  45.0699730  45.4280815  58.4540863  76.2602386
  45.1067924  57.5959702  76.5370789  44.9699135  59.0753822  76.8261871
  79.3118515  52.9750328  74.6690216  79.8931503  53.6398010  75.0383453
  79.8778610  52.2174225  74.5210571  63.4197121   7.1464543  83.0805435
  63.3174438   6.4440994  82.4383011  64.0333176   7.7570658  82.6720428
  74.9412994  56.3154182  88.6987915  75.0985718  55.3727570  88.7525330
  75.8142242  56.7063789  88.7360077  82.0269547  55.2592659  36.0922050
  82.2879257  55.0027580  36.9766998  82.0260239  54.4407768  35.5959129
  75.8110428   2.5566187  49.5797501  76.5112381   2.1610491  49.0606270
  75.2780533   3.0305505  48.9413567   0.1919313  36.4548416  77.1191330
   0.4994793  36.5922394  78.0151062   0.0210816  35.5145035  77.0661011
  81.8188705  41.7117805  37.4313431  80.9018097  41.4470520  37.5031090
  81.8355026  42.6098480  37.7621422  44.4451675  68.4760056   6.6334424
  45.1251945  68.0308685   6.1278262  43.8494720  67.7763977   6.9016280
  85.9376526  18.8271427  19.1969795  85.1542358  18.4936676  19.6343269
  85.6199799  19.1602802  18.3577347  49.3836174   0.4068018  72.7658157
  50.1980171   0.6920705  72.3515625  49.5208397  -0.5226353  72.9489746
  48.4522247  54.3087730  30.4198532  48.1851196  53.4690399  30.7936630
  49.3735809  54.1867676  30.1908321  62.3892632  34.9303360  15.0499907
  63.3149910  34.9617844  15.2913895  62.3509712  34.3018990  14.3289957
  27.4241524  51.1578140  55.3511658  26.7540627  50.4743423  55.3420944
  27.2195187  51.6836128  56.1244011  19.1709805  19.0358944   9.1991720
  18.3646469  19.0416889   8.6833944  18.8737354  18.9888306  10.1078320
  30.8430290  40.2611465  45.6696854  30.7929745  41.2129555  45.5814438
  31.7726650  40.0593224  45.5634995  24.1561050   2.5113611  41.1420059
  24.2612324   2.1658244  40.2555618  24.7697563   3.2445631  41.1876106
   4.2735610  63.0142784  30.9201832   4.9330206  63.5532455  31.3570595
   3.5275710  63.0155067  31.5199585  66.0349197  60.6483879  46.7295914
  66.8119888  60.9538345  46.2615089  65.6083221  61.4494171  47.0338898
  73.0039978  12.3233347  52.1040344  72.7996063  13.1668749  52.5076370
  73.5605469  11.8800459  52.7443352  17.5955925  36.6516762  63.2499809
  18.0845013  36.5244751  64.0630112  16.7248783  36.9289322  63.5349731
  62.5109291  36.6134796  67.0233917  63.3910675  36.6442871  67.3984222
  61.9879799  37.1776314  67.5930328  60.3806381  31.2042713  31.2883873
  60.1189041  30.6907005  32.0525665  61.3241005  31.3267345  31.3938198
  43.0632057  37.4127388  72.5198822  42.6150818  38.1553383  72.9248047
  42.9563217  37.5525513  71.5789948  67.6705933  17.7269707  67.8544769
  68.6223755  17.8284321  67.8472443  67.3564148  18.3692589  67.2180862
  70.5138779  13.7573709  53.2743530  69.6716537  14.2112122  53.3046455
  71.1613312  14.4427090  53.4397049  29.1868248   6.4023547  83.6656570
  28.4306984   5.9063973  83.9795532  29.7592049   6.4753451  84.4293900
  10.6510077  56.7059517  82.7080917  10.9510345  57.3305588  83.3684616
   9.7866554  56.4308777  83.0138092  27.1980152  45.5959702  53.5380936
  26.4385586  45.7169266  54.1080284  27.8871021  45.2781525  54.1215172
  33.1756096  64.2660980  34.1358261  33.5184517  63.4155426  34.4101410
  32.2531052  64.2458954  34.3903961  41.9757729  57.6853523  21.7712669
  42.1578522  58.6199493  21.6732635  42.6178398  57.3822784  22.4132385
   1.6395777  44.2228394   8.1596041   0.9366929  43.9768791   7.5581980
   2.4413218  44.1147804   7.6479774  44.6996346  45.7550545  19.6051559
  43.9207039  45.7126732  19.0504456  44.3698387  46.0304070  20.4605198
   9.7441921  31.1041088  80.3052292   9.1659164  30.5291100  79.8040237
   9.1750507  31.8120270  80.6071625  73.3892899  35.1523056  87.9933319
  72.5610428  35.1522903  88.4731674  73.2441711  34.5483627  87.2650299
  47.1392288  35.4680099  66.1537476  47.9422836  35.0725174  65.8147507
  46.5780830  34.7232094  66.3696518  62.8308640  13.1733265  35.6985588
  61.8836327  13.0586843  35.6221466  62.9823570  14.0857430  35.4520264
  56.9754868  20.9485645  63.2803688  57.5320969  20.2451038  63.6143837
  57.3085823  21.1197643  62.3994751   3.8928473  11.3265324  15.5817347
   3.8705828  11.4211941  16.5339813   4.5740333  10.6733475  15.4218369
  71.8950882  47.1528625  55.7736778  71.9090652  47.0520973  56.7254562
  72.7725372  46.8935738  55.4924622  54.0618324   0.6207485  67.4340973
  54.2176285   1.1433651  68.2207565  54.2239342  -0.2814075  67.7099075
  28.0855618  48.3764725  27.5575600  28.2290096  49.3197403  27.6344070
  27.3034286  48.2095184  28.0835152  15.3937550  49.2802620  74.9578476
  15.0137396  50.1345024  74.7526932  14.8062801  48.9085617  75.6158295
  37.9366493  50.8095589  37.7726212  37.1219101  50.6685753  37.2903824
  37.6631203  51.2328224  38.5864143  68.1010437  22.1012974  63.1097794
  68.8104630  21.5970879  62.7113800  68.2315140  22.9934616  62.7884521
  14.0397282   6.5176558  55.6483116  14.3198986   7.2787628  55.1399269
  14.0544834   5.7932224  55.0228424  79.3707657  34.8674164  39.2709923
  79.1615448  35.6861382  38.8213768  78.9816132  34.9651985  40.1400337
  46.0474586  38.7221870  11.9330893  46.0253220  38.6219711  12.8847713
  45.5446854  37.9779358  11.6021204  49.2590523  25.9066982  16.9579945
  50.0637741  26.4249096  16.9685402  49.2433014  25.4714012  17.8103447
  36.0669861  15.8204947  86.6179428  35.7528992  16.7122459  86.4684067
  35.6925163  15.3110075  85.8993073  59.2335625  36.7643852   7.3908520
  59.8599586  36.5366745   6.7038250  58.3798294  36.5405426   7.0203543
   6.4686856  52.9147835  14.7835522   6.5253763  53.5303574  14.0527382
   7.3347631  52.9451561  15.1900234  27.0955544  42.2464638  70.2510452
  26.6054287  42.8959465  69.7468796  27.3274155  41.5724792  69.6121292
  73.1107101  16.2315159  73.4665222  73.5612946  17.0461807  73.2439728
  72.1909103  16.4822311  73.5521774  61.3256989  14.0330448  74.6366577
  60.9530449  14.8503428  74.9673920  60.7019196  13.7362480  73.9740601
  54.6327324  69.3549347  50.0732384  54.7531013  70.3019562  50.0032578
  53.6898613  69.2251663  49.9713249  53.9656525  23.8778992  13.4963303
  53.8955536  23.1216717  14.0789433  54.1952019  24.6053085  14.0746164
  84.0995941  34.8821602  70.1463547  84.8331375  35.2951241  69.6907120
  83.4554367  35.5829010  70.2475891  76.2785873  67.0421906  13.2035379
  76.7026901  67.4224625  13.9727993  76.9866943  66.6035004  12.7319822
  59.9897881  33.0142326   7.8656549  59.8862534  33.1996155   6.9323030
  60.8879929  33.2788811   8.0642128  80.0427322  29.4468117  76.0448990
  80.1368484  30.3332653  75.6962204  79.2622833  29.4884129  76.5975266
  86.7765579  28.3030853  58.4089012  86.0726624  28.5705051  58.9998741
  86.4288864  28.4676476  57.5323906  14.0070601  26.4267540  87.7927933
  14.4932108  26.3244019  86.9746170  13.4354353  27.1790161  87.6392441
   1.3814424   7.7974334   4.9783454   1.0902528   8.1040792   5.8370705
   2.0380635   7.1286635   5.1728382  40.6023636  37.1669197  20.0831451
  41.0664177  36.3417244  19.9419403  39.7018814  36.9842644  19.8148155
   0.8303657  54.9895630   8.7104816   0.3412322  55.1646194   9.5144320
   0.1996868  54.5552254   8.1361761  13.8396149  22.5826683  71.7020493
  14.7190361  22.4752235  71.3396912  13.7417688  23.5278912  71.8169937
  12.0909843  65.2953186  19.0221748  12.7887278  65.2500305  19.6758823
  11.3205652  65.5803757  19.5135326  85.8853073  31.8333607  54.8124428
  85.5569305  32.1663094  53.9772530  86.7031784  31.3893871  54.5883789
  69.3728409   9.5569239  66.8134232  69.9287338  10.3335180  66.7492599
  69.2860413   9.4015522  67.7539368   7.3432503  54.3124619  54.4537621
   7.5205808  53.6035461  53.8355179   6.4800444  54.6401215  54.2012787
  48.6720314  64.2277374  74.6861801  47.8092918  64.6353149  74.6100998
  48.8901176  64.3003159  75.6153717  31.0862713  40.2483597  52.8898201
  31.3254929  39.4613190  52.4003563  30.8746948  40.8944168  52.2159653
  36.9897003  69.5608902  59.6411476  36.8219147  69.7338943  60.5675125
  36.3210602  70.0657578  59.1782684  60.4208412  55.0457573  11.3058281
  59.7164421  55.3421631  11.8821945  60.0704575  55.1579285  10.4221544
  70.0914917  16.8346233  57.5800896  69.3642426  16.2506371  57.3649139
  69.9722061  17.0335674  58.5087585  70.9053497  31.3908367  24.8116608
  70.3743057  30.6775780  24.4574299  70.5351028  31.5574245  25.6784954
  68.4169922  21.3784237  81.1106949  67.9399109  20.6239796  81.4562912
  67.7475739  22.0528393  80.9954758   5.8983917  32.6217613  84.0134659
   5.2553353  33.1992149  84.4248734   5.5716324  31.7385826  84.1850967
  17.2373657  64.6390610  30.6348305  16.5586472  65.3125076  30.6800728
  17.3940697  64.5194855  29.6981449  65.8494644  71.2425461   5.6359925
  65.9459381  70.3320694   5.3568068  64.9929810  71.2728653   6.0623193
  54.1668739  39.2092781  52.9461975  53.8743629  38.9316940  52.0780907
  53.4550972  38.9522324  53.5323181  77.6069260  46.0737228  33.8545723
  77.8671875  46.4244423  34.7063293  78.4202881  46.0391960  33.3511009
  42.5791321  58.5630608  41.3067894  43.4721870  58.4529457  40.9803543
  42.0310249  58.5231476  40.5230675  41.0241241   5.4785547  57.7357597
  41.0791435   5.8337526  56.8486061  40.0870628   5.3539929  57.8861961
  19.9339638   4.8603311  14.2869034  19.3852100   4.0767837  14.2529182
  19.5985565   5.3554063  15.0343218  51.6510391  56.5329514  20.2626820
  52.5309639  56.8812370  20.1189251  51.0743256  57.2902794  20.1622677
  10.8410721   0.9529757  23.7374439  10.8284302   1.9003832  23.8734264
  11.4904842   0.6299983  24.3620892  57.1758652  49.1107750  58.6253929
  58.0627480  49.4700890  58.6015778  57.0569534  48.7091866  57.7646828
  14.1465950  20.4757328  18.2584438  14.6835213  20.3867970  19.0458660
  14.4389715  21.2957458  17.8605423  22.5953693  39.2281609  13.7410374
  22.1031666  38.6262550  14.2993183  22.0447578  39.3406067  12.9661732
  41.1264229  41.2934532  16.7666092  41.0497093  41.0316086  17.6840973
  40.2625961  41.1167068  16.3940582  50.9208336  49.6062355  46.5053558
  51.1205521  48.8077431  46.0167313  50.8124390  49.3126869  47.4099617
  26.5790462  52.2849083   4.9107981  27.3180084  51.8787346   4.4578195
  26.6270905  51.9416809   5.8030534   9.9471111  68.9021683  85.5032654
   9.3671417  69.6539459  85.6244965  10.5263767  69.1597443  84.7860947
  73.2464752  69.6333771  85.4803085  73.1270294  68.8480225  84.9462891
  73.2161407  69.3161697  86.3829117  64.7445526  28.8057728  24.7157593
  65.0933304  27.9928989  24.3499451  64.3321609  29.2454720  23.9722328
  50.2330322  47.6684456   8.0896845  50.7314835  47.9024429   8.8726406
  49.6170616  46.9996490   8.3888960  73.1733017  28.7587872  20.3295536
  73.3051682  28.7781277  21.2774296  73.3877182  29.6455097  20.0397606
   0.7082872  41.9713211   2.7557003  -0.0802133  42.1334915   2.2378211
   1.2277924  41.3720589   2.2197583  55.8785133  22.0317364   3.1240158
  56.0956345  21.8853722   2.2033267  54.9463158  21.8235111   3.1862926
  37.8044090   5.8166108  27.7238560  36.9745369   5.4460807  27.4234371
  37.5770226   6.3012762  28.5173473  10.1384382  31.0733318  87.8123779
   9.6768122  31.8999405  87.9532776   9.4732819  30.4000874  87.9557037
   8.6512976  24.8678303  21.0906353   9.0562639  24.0320168  21.3222656
   9.1309662  25.1596966  20.3154163  14.0867071  22.6559601  68.6530457
  13.3968039  23.2453175  68.3482132  13.7964230  21.7857628  68.3796921
  36.0156403  35.0603943   0.7270604  36.3801727  35.1041069   1.6110504
  36.6678391  35.4947014   0.1772901  68.3198547  51.9783478  87.4612350
  68.3676987  52.5504570  86.6953125  67.5931931  51.3847885  87.2718048
  79.4669800   7.3656340  14.2941628  79.5378799   8.2623615  13.9669266
  78.5251007   7.2019773  14.3422108  81.9266663  49.6832733  44.6187019
  81.5596237  48.9646568  45.1335869  82.6323929  50.0320206  45.1632729
   1.1439896  22.6812973  20.5803757   1.2418467  21.7542095  20.7975502
   1.0300633  23.1147003  21.4261971  58.0209312  39.1469917  51.1044922
  57.4536819  38.6523018  50.5130997  57.7362938  38.8887825  51.9811554
  27.2066479  62.2285995  84.0736923  27.5972996  62.8612289  83.4708557
  26.6248016  62.7513008  84.6254807  75.2291412  42.3537407  79.0049515
  76.0806046  42.7584534  78.8392715  75.2291489  41.5651474  78.4624100
  13.9152040  34.7604065  14.4246750  13.8752241  35.5495453  14.9649458
  14.3313484  34.1064644  14.9862957  56.3971519  44.1563072  57.7689018
  56.4365273  45.0265427  58.1656075  55.4965973  44.0770073  57.4543419
  74.6920929  61.7421417  79.4641800  74.0578461  61.0969009  79.1517334
  74.1747055  62.3505211  79.9918289  56.2632179  66.8744888  20.7606773
  56.0894470  66.1209259  20.1966057  56.7968674  66.5224152  21.4730663
  14.9501019  70.8388748  62.6579132  14.0550499  71.1146088  62.4602165
  15.2161713  71.3956985  63.3896065  35.4858932  50.1087799  36.3426895
  34.5921364  50.4460869  36.2822342  35.7179947  49.8826637  35.4420052
  39.9839897  10.3331623  72.1772614  40.0079155  10.8807831  71.3925476
  40.8528519  10.4337397  72.5661011   2.1168144  25.4807892  64.9964981
   2.3498905  25.0405769  64.1791077   1.6111660  24.8299637  65.4832993
  69.6434860  25.7816658  33.9125175  68.7238388  26.0471306  33.9165459
  70.0917053  26.4632206  34.4133301  22.5811920   3.4943233   0.3563107
  22.5955238   2.7450395   0.9517937  23.0860062   3.2056971  -0.4040112
  29.7515945  17.6141586  87.5303955  28.9694233  17.4184284  88.0462723
  30.2219486  18.2682285  88.0472946  60.1155357  65.7288437  43.9755630
  59.8547554  66.2473526  43.2143936  60.4292831  64.9031296  43.6067924
  10.2585583  63.1840210  58.5716438  10.0420694  63.1070786  59.5008621
  11.1887636  62.9635239  58.5233803  45.5441437  51.0773087  81.3742981
  44.8743591  51.5415344  81.8764038  45.2232666  51.0956955  80.4726715
  39.6959152  54.3499413  61.8135986  40.5579834  54.6127129  62.1361237
  39.3003311  55.1624756  61.4981155  56.5091209   1.5732960  70.6569595
  56.7355995   0.6455238  70.7215958  56.8599167   1.8469918  69.8094482
  84.3197632  30.6467724  43.5759239  84.2755814  30.9427834  42.6667175
  84.2660294  31.4508400  44.0924721  48.8173027   0.6763701  80.3352966
  48.9842224   0.9683260  79.4391251  49.3228836   1.2783550  80.8814011
  22.7883835  38.5631905  74.4634705  23.6850147  38.2302284  74.4257965
  22.6555614  38.7899284  75.3838882   2.7978184  38.3592911  65.5778427
   3.4514663  38.8234062  65.0548019   2.9746828  37.4327660  65.4150543
  16.2021217  34.3827820  66.2851028  16.0850430  33.8912239  65.4721527
  16.0340405  33.7437935  66.9776917  22.5815926  60.8430443  65.4749069
  22.1239643  60.7020035  66.3037109  23.3199100  60.2344704  65.5023956
  29.4439735  50.2696609  20.3703365  30.2777653  50.6761551  20.1341400
  29.1392708  49.8601532  19.5605888  14.7531300  41.2672768  63.0208244
  14.7628765  40.5735397  62.3613815  14.2070732  41.9539528  62.6380272
  15.0334425  33.1041565  63.2970352  14.7288532  32.1969833  63.3191299
  14.7528448  33.4302635  62.4419594  68.0067444   5.3354907  35.5518913
  68.4038925   5.1669350  34.6974335  68.6869354   5.0998979  36.1828232
  26.9802151  67.5915985  52.1236343  26.1004028  67.2327576  52.2393646
  26.8357296  68.4776306  51.7915115  58.2063446  52.0028801  20.7648392
  58.9195938  51.6082115  20.2630939  57.6094093  52.3486176  20.1012421
  40.2728653  10.6403055  82.4678497  40.7758636  10.2015018  83.1539078
  40.4868851  10.1587572  81.6687698  46.8485641  47.6922340  72.5621185
  47.1536674  48.3981171  71.9921494  46.0765724  47.3421173  72.1175079
   2.0984797  70.9495087  61.4953766   2.9340596  70.4825974  61.5014114
   1.9951742  71.2439499  60.5904655  73.1398010  35.3750458  35.8778038
  74.0521698  35.4699097  35.6042824  73.1358109  35.6447601  36.7962112
  52.5867615  12.5833359  32.9006424  51.8002548  12.0607042  33.0571518
  52.9678841  12.2103996  32.1057243  86.8343048   7.4771180  40.5857162
  85.8840103   7.3698688  40.6266632  87.1178970   6.8484783  39.9219246
  59.8984528  22.7103519  77.2346802  59.9102898  23.3992157  77.8991776
  59.2916946  23.0314426  76.5676117  36.6510735  63.8728714  49.9071884
  36.3982277  63.4859276  49.0689926  36.8422966  63.1222534  50.4695396
  41.1565742  13.8384495  76.6814575  41.0044289  13.3738527  75.8585129
  40.8068848  13.2544260  77.3544083  39.0258751  47.9882393  31.7591782
  39.9561157  47.9038620  31.5499859  39.0099945  48.4446831  32.6003914
  50.8365517  52.9439278  81.1262741  50.2508659  53.4619408  81.6784210
  51.4982414  52.6061363  81.7298431  25.6041145  54.8020210  21.5007896
  24.8381634  54.2346382  21.4134617  26.2820606  54.2344398  21.8674965
  36.4827347  52.6542473  82.4202423  37.0129395  51.8573418  82.4274521
  35.6353874  52.3813553  82.7720490  39.7460213  66.3356094  31.3816128
  39.1248932  66.0745850  30.7016888  39.8908043  67.2692642  31.2281094
  26.1559010  57.9020615  11.2638016  25.6525917  58.1393318  12.0426559
  25.4945564  57.7457542  10.5896912  74.5546646  58.0627213  59.3776054
  74.3281250  58.6980934  58.6984787  73.7357635  57.6001778  59.5556107
  13.1231918  69.7112961   0.8121991  12.9305849  70.1086731   1.6614496
  14.0262651  69.9686890   0.6266186  28.0758724  66.7700348  37.4849548
  28.7340736  67.0786362  36.8622437  27.3814831  67.4276581  37.4450493
  13.9171410  23.9310532  53.5840683  13.0197134  23.8135509  53.8955956
  14.0055590  24.8759518  53.4592514  66.6920929  19.1322498  72.4300461
  67.3093643  19.4192085  71.7570953  65.8932495  18.9198074  71.9473953
   5.6539006  15.4959869  82.8520584   4.8659062  15.3575811  82.3265686
   5.6297193  14.7993622  83.5080795   6.9184570  38.0339317  41.2500534
   7.6065841  38.5555801  41.6630859   6.6440744  37.4182663  41.9296837
  21.8239651  10.7097721  85.4411240  21.6273384  10.3286715  84.5853577
  22.7254181  11.0220041  85.3628540  28.1722984  58.0290337  39.7528419
  27.5061111  58.5841217  39.3475037  28.7848110  58.6448593  40.1551094
  38.3942795  27.9335670  77.2205887  38.4946098  28.7449951  77.7183304
  39.2652664  27.5367031  77.2313995  43.8826370   4.6530633  65.8364792
  44.1126175   5.5571408  65.6220398  44.1025887   4.1565590  65.0482330
  22.3587189  31.5620995   7.1719923  22.3275661  31.4752026   8.1247311
  23.0755501  32.1756020   7.0107527  39.3785629  40.2696075  86.3012924
  39.6486206  41.1846237  86.2235336  40.1917610  39.7932816  86.4687805
  20.2459946  54.5975151  60.7770653  20.7153053  54.0833282  60.1201096
  20.8516426  54.6516647  61.5163155   0.4686041  31.0821323  47.9191742
   1.1748307  31.2809563  47.3044014   0.2508428  30.1663074  47.7457504
  72.9795609  46.0574646  70.3408966  72.7679520  46.8554459  70.8253326
  73.1218948  46.3536797  69.4418793  12.3234386  62.6704369  60.4686813
  12.7129593  61.7986069  60.5351143  11.9179020  62.8173294  61.3231964
  38.2024612  23.5989952  65.7675171  37.4783859  23.4133759  65.1696091
  37.9306221  23.2127361  66.6000671  12.5634937  59.4440727  17.3664169
  13.2607450  59.9999924  17.7143040  12.2965899  59.8746643  16.5542679
  23.8458958   6.7735538  21.2306919  24.2086697   5.8951979  21.3452263
  23.6489239   7.0691156  22.1195545  52.2581024  45.9262657  11.8502417
  52.5964203  45.7385292  12.7257576  51.6311264  46.6372375  11.9831152
  86.6048431  43.1937561  77.7232437  86.9524918  42.7298355  76.9615631
  86.1242981  42.5255356  78.2119064  85.3243637  16.8142300  61.6752586
  84.4177628  17.0987682  61.5597115  85.8468704  17.5886650  61.4667778
  36.5299950  42.8905220  67.2561493  36.5720978  43.7935104  67.5709152
  35.7851334  42.5093193  67.7210159  16.1614189  33.1306763  88.2407074
  17.1178837  33.1128693  88.2077026  15.9104004  32.2213631  88.4030991
  75.2516251  16.7299271  12.7809763  75.1201859  17.6551952  12.5740204
  75.5112686  16.3330612  11.9495220  75.5534058  16.2634125  27.5311756
  75.4272995  16.1657219  28.4749908  76.4845505  16.0886459  27.3945885
  16.5384922  15.6305590   3.4536836  16.9534035  15.9971857   2.6728730
  15.6786137  15.3370295   3.1525502  37.2610397  68.7590103  27.4873543
  37.7946701  68.0796890  27.0750504  37.8751526  69.2446976  28.0379887
   4.3226085   9.8463192  88.9873123   4.6439185   9.6239758  88.1134949
   3.4238775  10.1428137  88.8437653  62.6925697   1.3671119  27.0922470
  62.0127182   0.9535521  26.5602703  62.2161789   1.7729564  27.8165207
   8.1837015  69.9074020  53.3406982   7.5904055  69.2374191  53.0010605
   8.5438442  70.3267975  52.5592690  42.7635078  40.5623627  22.7707253
  43.2780075  39.9401894  22.2565060  42.7289543  40.1782227  23.6467819
  64.6732941  26.6025772  88.4352112  65.4431152  27.0993042  88.7124634
  63.9733658  27.2536125  88.3853302   4.6015697  68.0733032  45.2431183
   4.1084218  68.7518921  44.7820892   3.9308720  67.4970703  45.6096573
  84.1237946  54.6060982  46.3935852  85.0430450  54.5776939  46.6589127
  84.1499863  54.5887566  45.4369011  74.5711365  55.3341293  28.8483067
  75.2740707  55.9275551  29.1128044  74.4476547  54.7578773  29.6025734
  81.4652023  32.9725418  39.0313568  82.2920914  33.3174248  39.3683205
  80.8208160  33.6488953  39.2400284  84.6093292  63.8963585   4.0130615
  84.5458603  64.6165771   3.3857725  83.7352829  63.5061951   4.0190191
  51.8708153  54.7129822  88.0865936  51.5524902  53.8465652  87.8331680
  52.0426903  54.6398430  89.0253906  15.0967083  41.8005486  23.0103168
  15.0329008  42.2217789  23.8674774  14.7429609  40.9218826  23.1483173
  29.2955990  44.7495575  85.1392059  30.1300278  44.3099060  85.3024979
  29.5147953  45.6811905  85.1234741  76.8018723  24.3068600  60.4390106
  77.5654984  24.8665142  60.5800476  76.9805756  23.8621902  59.6104202
   3.1895707  32.3523788  63.1338463   2.6196630  31.6155090  63.3539848
   3.6541028  32.5473785  63.9477348  21.3846874  28.9328556  58.1587791
  21.7472897  29.7019787  57.7192307  20.5397701  29.2274055  58.4987602
  85.7651520  48.8890076  22.8596821  86.6415405  48.5042038  22.8497868
  85.2155685  48.2225113  23.2719555  76.0428238   1.6384356  20.3366623
  75.9237213   2.5754788  20.4915752  75.7139740   1.2204094  21.1324940
  79.5065613  57.7693863  41.2498779  78.9502258  56.9911423  41.2824326
  80.3137054  57.4694862  40.8317871  82.6811600  53.7176361  10.2708263
  82.7353287  53.7222710  11.2264814  81.8279114  54.1059418  10.0774050
  70.8070221  53.2409286  87.3161316  71.6364670  52.9685173  87.7086105
  70.1377792  52.8985481  87.9086990  37.2366714  13.0527430  35.2410622
  36.4694176  12.6231842  35.6192627  36.9506226  13.3314848  34.3711700
  13.9269476   3.0325978  63.9796677  13.8736649   2.3840714  63.2776642
  14.7878647   2.8897107  64.3729019  19.3948536  24.7312279  75.8429642
  19.8243217  24.7764874  76.6972122  19.6578941  23.8823700  75.4873199
  15.2142935  12.0506344  16.1834469  14.3617496  11.7534933  16.5014191
  15.0477648  12.9260864  15.8340416  69.4814148  61.6411362   0.7323696
  68.6093521  61.8314018   1.0781153  69.7628708  60.8601875   1.2089541
  81.3957825   2.6676395  10.4491529  81.7617035   3.5241413  10.2283831
  81.4503784   2.6226921  11.4037371  37.2761307  51.3157349  18.0217800
  37.4472046  51.4127731  18.9585552  37.4326134  52.1872559  17.6581898
  34.9613609   2.7586961  60.0258789  35.6620407   3.3090165  59.6759872
  34.4577217   2.4939520  59.2561455  13.0771303  17.9261818  17.7421761
  13.6908092  17.5120869  18.3489342  13.2630091  18.8623161  17.8152161
  61.4068069  45.3962555  64.4819031  60.7001877  46.0340004  64.3808823
  61.1794128  44.6891708  63.8781166  61.1653633  44.9624443  61.3785629
  61.0334930  44.0679359  61.0644073  62.0180054  45.2169456  61.0257683
  63.2587891  48.7458229  27.2416382  63.1842880  48.2407150  28.0512981
  62.4666634  49.2827835  27.2205791  77.2577972   0.2891913  88.2349014
  76.6190643  -0.0506018  87.6081696  77.2387314   1.2374816  88.1060104
  56.7170258  46.2505264  45.5168839  56.2324142  45.5020027  45.1688957
  57.2161903  45.8923874  46.2509155  63.0148010  27.9480400   7.7945580
  63.5882950  27.8332176   7.0368309  63.2460251  28.8096390   8.1415663
  36.2438889   2.4796357   7.2558689  35.8636055   2.4379151   8.1332941
  36.5682449   3.3768167   7.1778193  65.8123932  13.3334389   5.2740541
  66.2145844  12.8987350   4.5220537  64.9112091  13.0109282   5.2833705
  69.8974228  14.9785194  21.5803604  70.1810455  14.0849514  21.7735653
  68.9417191  14.9396706  21.6170101  52.8473587  66.2415924  18.3316917
  52.9593048  65.8131790  19.1803150  53.1637230  67.1342773  18.4704628
   7.8467493  60.6354027  39.2687340   8.3363771  60.6926308  38.4482346
   8.1998672  61.3428612  39.8082161  34.1410179   1.6123199   1.5984921
  33.4131622   1.5850003   2.2195473  34.3495293   2.5427628   1.5146459
  39.2835922  51.3717766  56.9116058  40.1114502  51.4856987  56.4448051
  38.8192787  52.1985817  56.7810745   5.7453923  68.4132004   8.7882032
   5.2990227  67.8901367   8.1223278   6.5937233  68.6240540   8.3981934
  27.0827122  68.0596085   8.3197641  26.6763859  67.2072525   8.4766741
  27.9996204  67.9367294   8.5655556  54.4825211  30.9427891  45.6321106
  54.0579376  31.6618423  46.1000061  55.0487747  31.3745480  44.9924469
  47.3417664  21.1809940  12.1598129  47.1561165  20.4297466  11.5964365
  46.5419502  21.2996311  12.6721144   4.8249335  39.7026634   2.7098451
   4.2764325  39.6347504   3.4913604   5.4299817  40.4186935   2.9033618
  43.2728691  51.1857147   4.3811736  43.9400139  50.5026474   4.4487724
  42.5864334  50.7972412   3.8388388  62.6401329  65.3154831  23.0590115
  63.0742531  64.5148315  23.3535061  63.3504639  65.8654022  22.7284775
   4.4931049   3.9713700  18.1050797   3.5852458   3.9300787  18.4056110
   4.6894526   4.9073124  18.0639591  46.7228813   0.6478645  45.5143661
  46.2066498   1.4423578  45.3782883  46.5105820   0.0928313  44.7639694
  47.6750641  47.5734062  44.3948593  47.6454811  48.5290184  44.4413338
  47.9411964  47.3855095  43.4948044   2.6809764  51.1954155  60.9452438
   2.2546008  50.6134949  60.3161163   3.2445717  50.6187706  61.4610672
  46.4026070  56.7588806  48.5793533  46.8002892  56.6795082  47.7122993
  46.4071655  57.6989059  48.7598038  56.4603844   9.5008059  24.1721306
  55.9265404   9.2896509  23.4061947  57.1627083   8.8505354  24.1612110
  80.3138046  19.4489708  16.1084862  79.5371857  19.8407192  16.5080166
  80.9244080  19.3319721  16.8362961  72.0331192  64.7725983  71.0696487
  71.2178726  64.8462677  70.5734787  72.2040176  65.6608353  71.3827972
  63.3584557  19.2420349  68.4531631  63.3401566  19.0863247  67.5088882
  62.4516411  19.1189537  68.7338257  44.2171745  26.7450886   8.9455729
  43.8978806  25.9946079   8.4445114  45.1657753  26.7320194   8.8182192
  66.8125534  57.5557327   3.8710711  66.1113358  58.2015228   3.9575922
  66.9065399  57.1852074   4.7486291  53.0284843  57.0770531  81.9646988
  53.0530052  56.1424141  82.1698380  52.7561684  57.1139565  81.0477982
  23.3243961  70.8505630  10.2574863  22.4273319  70.6705170   9.9762506
  23.5319252  71.6995773   9.8671904  82.1838150  29.5380306  72.7658691
  82.1199493  28.5843220  72.8167877  82.2902374  29.8198071  73.6744385
  49.8126488   0.6993634  25.9379406  49.0328522   1.2485138  25.8567963
  50.0118523   0.4321617  25.0406361  24.3309727  66.0163498  55.5917015
  24.4843063  65.0730667  55.6459122  24.8909683  66.3895416  56.2724113
  50.0403595  25.9465675  72.0368881  50.3677177  25.9885101  71.1383896
  50.3880920  25.1235428  72.3803253  30.7714310  62.4715271  66.2829819
  30.5543938  61.5913811  66.5903397  31.6879711  62.4118843  66.0134888
  54.2337151  23.2143402  85.6515045  54.6132088  24.0743961  85.8318329
  53.3841629  23.2302246  86.0922318  13.5546036  55.3019714  27.0683041
  13.2199373  54.8939972  26.2696877  14.4513454  54.9763107  27.1459541
  45.6499557  39.9068604  54.9906311  45.8292770  39.0604362  55.4000702
  46.4218750  40.0806885  54.4519691  18.1332855  33.4987411  84.8448486
  18.0328560  34.1707954  85.5190048  18.9320087  33.7449570  84.3783188
  68.0318146  70.8799591  36.3274269  68.2671814  71.7794876  36.5547714
  67.2664795  70.6883545  36.8694382  28.0550938  55.4409065  52.6283379
  27.6837883  54.5638351  52.5328674  28.6460075  55.3705254  53.3780708
   9.9276295   8.1238213  30.4906292  10.4870701   8.5778141  29.8604336
  10.0380354   8.6138430  31.3054428  17.7529869   4.9908118  50.6454391
  18.5355377   4.4659019  50.4771652  17.9750957   5.5111923  51.4175148
   2.1786268  67.0995026  80.8036346   1.9537963  66.5556870  81.5585861
   1.4455591  66.9846878  80.1989365   1.5504206  38.5937271  25.6835766
   1.1163068  38.8443413  26.4990330   1.7687815  39.4254303  25.2630730
  40.5350456  31.6652737  71.2912979  40.2644005  32.0579147  70.4613495
  41.3851738  32.0633049  71.4786148   7.7432919  35.8456078  85.0739594
   7.0698910  36.0535545  85.7216644   8.2299929  35.1172867  85.4598312
  68.4923096  31.3831120  21.1279392  68.7260056  30.5882034  20.6486282
  68.8082504  31.2277069  22.0180283  79.2844086  44.0713234  77.2772675
  80.0301285  43.9416618  76.6913300  79.4523468  44.9158249  77.6954041
  55.6700668  69.6892853  45.5706329  56.2204857  69.1072083  45.0467415
  54.9898834  69.1183853  45.9279175  53.0261993  43.3065109  87.3148117
  53.5425453  44.1113625  87.2720261  52.4028511  43.3831673  86.5924530
  37.1359940   1.7099992  26.0682526  36.4517097   1.2125447  25.6204491
  37.0681229   1.4398543  26.9840279  44.3146210   1.5790220  37.2534485
  43.6079140   2.1289728  37.5916023  45.1158867   2.0019326  37.5622406
   1.0678705  49.2594566   0.1440576   0.1197859  49.1308441   0.1153131
   1.3467996  48.8078384   0.9405943  53.7056389  58.8032799  75.9370117
  53.7523880  59.7472382  76.0886154  54.5884857  58.4861183  76.1273499
   9.3188515  58.8526497  14.4962244   8.3657732  58.8377571  14.4087534
   9.5025091  59.6585922  14.9788828  31.1140423  66.9689789  12.7989025
  31.0487690  66.1210480  12.3596115  31.6607609  66.7997742  13.5661697
   1.6528213   8.8798504  48.1479454   1.2142216   9.6147127  47.7191811
   0.9405838   8.2995338  48.4166107  42.8752594   9.3259487   8.8259983
  43.1413803   9.0566072   7.9468708  43.4775810   8.8653765   9.4102182
  12.3769140  55.4732857  88.5918884  13.1869297  55.1232376  88.9627914
  12.6247911  55.7762756  87.7183914  85.1859207  67.2997284  23.7357464
  85.0518265  67.5245895  22.8150482  85.4135361  68.1298981  24.1543598
   8.4450245   8.6598444   1.3163174   8.4512415   7.8101392   0.8756425
   9.3550196   8.8008051   1.5776047  21.7541771  70.2479630  82.1583862
  21.8200588  70.7942810  81.3751678  21.2030983  70.7525177  82.7566910
  81.6833725   8.1526947  75.7968826  82.5885620   8.4639187  75.7986984
  81.5180130   7.9023042  74.8879318  11.4211903  49.2024727  81.7176971
  10.6127014  48.6921654  81.6711807  12.0653677  48.6741142  81.2464218
  26.4387455   1.8287544  58.1468658  26.7634506   2.5262995  57.5774536
  26.3456879   2.2435057  59.0045090  42.3383942  16.5109100  70.0644913
  42.6855927  16.9617653  69.2948074  42.6363907  15.6065149  69.9670105
  18.4294872  61.7664719  10.5211210  17.8561363  61.9200783  11.2720585
  17.8312035  61.6449471   9.7838831  35.8745461  13.2640457   0.6659618
  36.7644272  13.5807161   0.8210844  35.7930374  13.2361050  -0.2873522
  52.7361221  37.1050720  86.6617126  53.2228775  37.8023071  87.1012192
  52.7968292  36.3583374  87.2574768  73.5812607  44.8112602  17.3959866
  73.8513870  44.3089867  18.1647396  73.4267883  44.1508446  16.7205467
  82.0426865  55.1207314  47.9167137  82.5906067  54.7134857  47.2457657
  82.0264359  56.0485573  47.6819725  77.9506454  22.7019653  58.6180916
  77.7393646  22.1284542  57.8814278  78.8014679  23.0780506  58.3924904
  53.6434593  60.6005630   3.2307777  53.9097557  59.6913605   3.0941556
  53.1365395  60.8216476   2.4495034  63.8748207  22.7965660   4.3408790
  64.0346680  21.8563499   4.4225783  63.5487976  23.0597610   5.2014999
  26.3144894  56.4803276  73.4698792  26.7850552  56.2316360  72.6743011
  26.8575897  57.1615868  73.8663177  32.3014755  32.8980865  65.0934067
  32.5088806  32.1371918  65.6358566  31.6897449  33.4099159  65.6225967
  61.9804420  53.4064484  87.5693893  61.5436363  52.5558472  87.5256577
  61.5810661  53.9172668  86.8652649  77.0333786  45.2103043   0.8599951
  76.1845474  45.6522942   0.8789975  77.0123901  44.6857033   0.0596296
  54.8437691   5.8188663  77.8299866  53.8971901   5.7207594  77.9329376
  54.9429970   6.4562654  77.1228027  42.9788475  12.2306414   6.9147153
  42.2713470  12.3628778   7.5457358  43.6014862  11.6626568   7.3685279
  56.8556786  58.0400887  19.5421486  57.6880455  57.6033058  19.3615437
  56.2956924  57.3504410  19.8985786  64.4306030  36.6888199  53.9463501
  64.5750046  36.4762001  54.8684006  63.6924057  37.2981110  53.9538155
  66.1920624  27.3976231  79.8311081  65.5647888  27.5870857  80.5288620
  66.8146591  28.1238823  79.8650436  15.6339512  28.0925617  71.2027435
  16.4442940  27.8437424  70.7581482  15.7226620  27.7288017  72.0836716
  77.6926651  12.5234594  21.3011036  78.3803406  11.9039774  21.0570183
  77.9573288  12.8482342  22.1617470  28.8328457  64.5029373  12.1038103
  28.7030544  64.6054153  13.0466166  28.0742111  63.9979362  11.8110962
  79.1734161  48.9199753  73.0532837  78.4774246  48.2628403  73.0526733
  78.7310257  49.7376099  72.8252563  20.4123344   3.4880662   6.3875794
  20.8309345   2.9982026   7.0954199  19.6640205   3.9167480   6.8028984
  32.7605247  45.5439529  74.5446014  32.0228119  45.1023865  74.1238480
  33.5144043  44.9860382  74.3532104  71.5266647  30.8928699  31.1553688
  71.4503326  29.9396172  31.1967621  72.3623047  31.0473309  30.7148228
  81.9381027  56.2856140  51.3397636  81.8019714  55.4011688  51.6795616
  81.6897964  56.8610153  52.0632858  47.0981064  10.9652843  32.1346741
  46.3285179  10.3964748  32.1140747  47.6753731  10.6118202  31.4578762
   4.1086788  40.9077682  22.8150730   4.8250718  40.7489243  23.4297142
   3.3149705  40.7519112  23.3269005  71.9296875  22.8337574  26.4218998
  71.7917023  22.4551163  25.5536709  72.1540527  22.0863647  26.9762421
  64.7429504  36.7787857  68.6025391  65.1610260  37.2252159  67.8662338
  65.3719788  36.1059990  68.8631516   2.2315972  64.2863312  59.8429832
   1.4241796  64.1023560  60.3230476   2.3157413  65.2393799  59.8721809
  79.3587952   6.5369277  48.0809135  80.0048523   6.7555618  47.4093132
  79.4960938   7.1901250  48.7669983  69.6227493  67.8779907  35.0629005
  68.9287262  67.8760910  34.4036942  69.9272156  68.7851410  35.0875168
   3.6103082  30.5858173  73.7199097   3.3419092  31.5033550  73.6717834
   2.7948933  30.1048431  73.8613129  80.5867615  49.8975487  76.6416397
  80.3093185  49.0115929  76.4085312  80.7543716  50.3248367  75.8016586
  17.8109474  10.3242950  56.1452599  16.8625584  10.3071480  56.2736969
  17.9569931  11.0472965  55.5352020  81.4971848  -0.1780047  38.8273010
  81.0067368   0.3964836  38.2393799  82.3932419   0.1572931  38.7973862
  86.6999207  14.4268360  21.3826694  86.3228073  14.4137039  22.2623558
  87.2398071  15.2170601  21.3652916  20.5348358  68.8857651  39.9691582
  20.0802708  69.3299103  39.2533836  19.9610233  69.0025635  40.7263412
  65.0105896  44.9088440  84.9719086  64.6239166  45.3979378  84.2456131
  65.5254745  44.2209015  84.5501785  21.5592213  27.9468517  75.1578064
  20.7581882  27.4268322  75.0933304  22.2662678  27.3023300  75.1276627
  82.5220871  10.8265219   7.6783905  83.3293152  11.0317135   8.1500931
  81.8796997  10.6539993   8.3667307  82.6771851  25.5671310  48.5813255
  82.5739365  25.7525063  49.5147095  83.5657959  25.8578796  48.3762512
  40.2936096   9.0751238  80.3658066  39.7781181   8.2741680  80.2711029
  40.5939522   9.2729464  79.4787369  49.0706406  32.2053680  70.6240768
  48.6791763  32.9080315  70.1051865  49.7374191  32.6420097  71.1541519
  72.7291031  54.9063148  67.1027298  72.1920776  55.0266991  67.8858948
  73.4130630  54.2936974  67.3731613  21.0484753   6.7671380  77.4819870
  21.4092999   6.9687862  76.6186371  20.2082500   6.3470259  77.2982559
   2.2394457  23.1715412  27.5656910   1.6867836  23.1699486  28.3472233
   3.0187118  23.6635208  27.8244057   9.9979897  43.7693977  43.7504501
  10.1597023  42.8702621  44.0361748  10.8368282  44.0620193  43.3941460
  85.5866547  31.6647472  18.8849239  84.6898346  31.3375435  18.9548073
  85.9383087  31.2350616  18.1052170  62.5123138  66.7273483  86.8037643
  62.3362122  66.4816437  85.8955536  63.4510040  66.9135971  86.8237991
  61.7386322   7.5741262  30.9989491  62.4664726   7.2444534  30.4718838
  60.9549026   7.3075809  30.5183716  30.1026516  35.1769562  70.8704834
  30.7972221  34.6803818  70.4377975  29.3769760  35.1674500  70.2463531
  50.5753250   9.5090466  11.4430981  49.9223289   8.8979626  11.1019163
  50.0840416  10.0787411  12.0349741   5.4803162  63.0885468  25.6412983
   6.1502113  62.4078789  25.5767708   5.1669717  63.0314102  26.5439510
   0.2637340  58.2108955  55.1284447   0.7353548  57.4079208  54.9070053
  -0.1712258  58.4653664  54.3146362  72.6404953  15.3137312  53.5640297
  72.5482254  15.5084467  54.4966621  73.5562744  15.5111866  53.3675842
  27.3553562  52.9841576   9.2513609  27.8791790  53.7203636   8.9353800
  27.9233952  52.5382309   9.8796215  30.7262650  11.6385584  67.4150391
  30.0511875  11.6157570  66.7368164  30.3049107  12.0707502  68.1579361
  48.4732018  69.2561035  30.3696938  49.0249557  69.5818787  29.6585884
  48.0938454  70.0441132  30.7587528   0.4611192  55.5558319  87.8985214
   0.9152501  56.0204697  88.6014557   0.8289769  55.9205780  87.0936203
  56.1413841   7.1796460  45.0371590  56.3222618   8.0859156  45.2865372
  55.3823280   7.2378378  44.4569168   3.2820199  39.3586349  76.6910172
   3.4414816  39.8803749  75.9045105   2.9295108  38.5315971  76.3624039
   1.4764320  51.5237999  47.3604317   1.4350677  50.5937004  47.1380882
   1.9036776  51.9313850  46.6070595   9.3154068  33.0538521  16.1964169
   9.5402479  33.9639168  16.3899689   8.7326422  32.7941551  16.9099808
  39.3873558  13.1295662   0.4277323  39.9802132  12.7627525   1.0836250
  38.9282341  12.3703251   0.0685777  72.3571091  46.1839218  60.4404526
  72.8200455  45.7024384  59.7548141  72.9896698  46.8345566  60.7450256
  15.9737186   1.4709910  69.9519501  15.4024067   2.0926194  69.5009384
  16.8447666   1.6433579  69.5944672  30.7274971  64.1158676  35.1800461
  29.8964729  63.8723869  34.7721863  30.5540733  64.9635239  35.5894775
  70.1295471  63.9676399  36.0957260  70.6484909  63.5122757  35.4327202
  69.6137924  63.2770958  36.5121117  27.0438061  39.8915405  84.1454773
  27.4702492  40.6494370  83.7455139  27.4125462  39.1381798  83.6842728
  37.2739487  68.0640640  76.0286713  36.9929085  67.2955704  76.5253296
  37.9149170  68.4939194  76.5949020  73.1518478  32.3217087  15.5127907
  72.7912292  31.5981045  15.0003653  72.4166946  32.9239807  15.6270790
  62.5986290  46.4205704  41.8469620  61.7471542  46.8554688  41.8927078
  62.8577614  46.4973526  40.9287071  86.7620850  70.5336380  68.3596420
  86.1978226  71.3064957  68.3826675  86.6327133  70.1686249  67.4842758
  59.9169464   4.4222093   8.4040470  60.7014160   4.9323235   8.6056004
  60.0541649   4.1159549   7.5076036  32.0736504  39.1295662  84.4714355
  32.3616600  39.8488693  83.9094009  31.3092651  39.4763870  84.9315109
   2.7351542  15.9790411  75.2181549   1.9519001  15.5576077  74.8644028
   3.2776709  15.2541256  75.5286407  44.3275604   6.5545282  26.8128510
  44.4520340   6.1710291  25.9447098  45.1302872   6.3385658  27.2874260
  41.6825027  55.4662209  63.7512207  42.4682312  56.0087967  63.6843414
  41.0079994  56.0608978  64.0793076  69.9910355   4.3365417  37.1774063
  70.6926193   4.4578424  36.5376396  70.2631302   4.8575010  37.9329147
  46.4408073  24.0401096  18.7073212  46.0226479  23.4250317  19.3098583
  46.1593437  23.7531853  17.8385963  11.5312519  36.6324692   6.3348484
  11.3865795  37.5785942   6.3225698  11.7576332  36.4130440   5.4310598
   4.6795607  32.8286133  11.8854580   4.6772332  33.5385551  12.5274925
   4.5570912  33.2668571  11.0433321  59.7449455  70.3873672  27.7233009
  58.7893066  70.3392029  27.6974220  59.9761162  70.9554596  26.9884129
  20.4319572   4.9792213  17.2468872  19.5992622   4.6363440  17.5713673
  21.0028687   4.9884005  18.0151367  16.9900970  54.0368996   0.6764458
  17.5256405  53.6786690   1.3843284  17.6239719  54.3395920   0.0262054
  25.2792816  61.3866425  56.7226677  26.2326279  61.4600220  56.6781883
  25.1172352  60.8288498  57.4834862  49.4824524  52.6875267  14.3251314
  48.6189995  52.7902145  14.7253056  49.7991295  53.5829010  14.2057600
  49.7851448  54.1917572  83.9552307  49.7546272  55.0090256  83.4578552
  49.6454773  54.4589119  84.8637238  44.9865685  20.6217499  10.0402308
  45.5566559  20.3513851   9.3204155  45.0468483  19.9075871  10.6747150
   3.3739533  33.3759995  73.7850723   2.5915980  33.9156685  73.6714478
   3.6596768  33.5540504  74.6811142  63.6569176   2.3046105  34.6541595
  64.2442627   3.0544736  34.5594940  63.8740005   1.9369943  35.5108795
  57.8057480  31.2103558  33.9296417  58.3239326  31.1920776  34.7342453
  57.8706627  30.3206139  33.5826874  43.1514549  37.0197411  23.9059868
  42.3403702  37.2759056  24.3450279  42.9527168  37.0951118  22.9726830
  34.5347786  65.8466873  26.0403194  34.9239197  65.0126572  26.3033733
  33.7346573  65.6016693  25.5755577  80.2045059  32.6690445  32.7287331
  80.4029312  32.7308388  31.7943668  80.7440109  31.9424782  33.0406189
  32.9669495  69.9567184  50.0439339  33.2444344  70.8003235  49.6867790
  32.0235939  69.9276810  49.8843422  58.4559898  17.4565220  25.6753349
  59.0951271  18.1410046  25.4772930  58.7300148  16.7111130  25.1410065
   8.0876675  35.9533119   7.1974049   7.6415825  36.3429985   6.4454842
   8.8850918  36.4730339   7.2985730  82.0843735  40.9729385  60.7352028
  82.5083237  40.2430458  60.2838135  82.5811539  41.7443085  60.4623909
  36.2917709  10.6089411  62.6163902  36.4495659  10.0886326  61.8285980
  37.1634064  10.8852043  62.8995285  86.0000381  55.3648872  71.1293869
  86.6529083  55.2721939  70.4355545  85.2064285  54.9724846  70.7654800
  42.6530418  60.7853050   9.6465254  41.7137413  60.7607155   9.4639196
  42.8439140  59.9316254  10.0351524  83.4453201  33.8421936  24.8888206
  83.3279190  34.6177368  24.3402023  84.3331451  33.9268761  25.2364254
  76.9215317  11.9286766  32.1720543  76.2987900  11.7681427  32.8810349
  77.6763535  12.3300753  32.6025848   5.3467531  25.9414406  74.3280334
   6.3027930  25.9726639  74.3633118   5.0698280  26.8312740  74.5465317
  27.2010841  51.1139030  72.0953903  26.3046875  51.1744690  71.7651825
  27.1118641  50.7072105  72.9572906  36.3009911  57.7329559  66.6287079
  36.9251785  58.3097725  66.1883621  35.5943298  58.3144264  66.9093399
  22.3176651  24.0650921  13.3003788  22.5006790  24.6118221  12.5362959
  23.1155567  24.1144352  13.8268452  80.1980743   8.2526817  20.1119366
  80.9705124   8.4366589  20.6464691  80.5508728   8.0229187  19.2523003
  84.7210464  64.0896225  69.2741547  83.7680740  64.0082550  69.3123169
  84.8803864  65.0333176  69.2576065  10.1867828  61.5247421  25.5641823
  10.5337410  62.2146111  24.9985561  10.1263018  61.9315224  26.4285355
   7.7670383  45.4250183   3.9144776   6.9113941  44.9988556   3.8645880
   7.7201996  45.9646339   4.7036881  61.3406906  16.6542625  17.4274483
  61.9311218  17.3349133  17.1044312  61.3544502  15.9821367  16.7460613
  23.0116482  38.8009987  82.9829636  22.7691650  39.4085350  83.6817703
  22.2112503  38.6957512  82.4686508  19.7414474  44.2510490  44.1734047
  19.6116543  43.3675957  43.8285866  20.2957859  44.1283264  44.9440422
  47.8933525  51.4510231  82.3597870  48.6398087  51.3729744  81.7656937
  47.1270828  51.3331833  81.7983856  84.9606705  31.4915447   9.2726021
  84.8547440  30.7923908   9.9177341  85.6935043  31.2053299   8.7273779
  24.7633171  29.2727032  69.7741776  25.2332363  29.4519539  68.9597549
  24.9338188  28.3474464  69.9504089  22.1685448  43.8126488  87.2938156
  22.3525295  44.5060387  86.6601028  23.0319767  43.5086327  87.5736160
  59.5847282  26.4525299  77.4548721  58.7254333  26.3096600  77.8516464
  60.1404495  25.7725811  77.8357620  47.8426704  66.9716034  62.3452988
  47.0595436  67.2303009  61.8594818  47.8901443  67.5931778  63.0716705
  27.7323170  50.2395058  44.3347588  27.9674034  51.0404739  43.8663330
  28.5718231  49.8468704  44.5741272  48.6370773  22.2312374  30.1303234
  48.9727554  21.4026985  30.4724922  48.6894341  22.1363907  29.1792755
  54.8728256  55.0780983  45.8061905  55.6105423  55.6861000  45.8545341
  54.6273499  55.0724373  44.8810196  72.9099426  55.0117455  80.9844666
  72.5833817  54.6847763  80.1462021  72.6682434  55.9379044  80.9908676
  68.4487152  31.0428410  39.0143852  68.9877930  31.7279530  39.4096680
  69.0794067  30.4306717  38.6352959  57.0013161   6.1955285  41.9509201
  56.1449356   6.3693419  42.3416100  57.3055153   7.0517578  41.6499786
  56.4477081  45.7911453  63.6035118  55.6153679  46.2477455  63.7258072
  56.8861160  45.8610840  64.4515305  13.5361252   8.6709995  80.5212173
  13.4038525   9.1597471  81.3335342  14.4629450   8.4320831  80.5336533
  36.9207230  56.7375870  25.7041340  37.7791672  56.4418373  25.4010868
  36.8381500  56.3710136  26.5844936  57.4688759   8.9947491  76.2046738
  56.7240257   8.7102623  75.6750488  58.1932220   8.4388161  75.9174576
  76.2925034  29.9265537  68.8985519  75.6796951  29.3873367  69.3984985
  77.1385574  29.4927502  69.0091629  54.6727333  55.6062622  29.6008053
  54.8006668  56.4574890  29.1821442  55.2104149  55.0035057  29.0871811
  66.3210983  33.3424683  84.4029922  65.5824051  33.7364082  83.9388962
  65.9572601  32.5550079  84.8076706   8.9740524  63.9187126  38.3959007
   8.2457170  63.4035912  38.0489044   9.7318830  63.6377029  37.8831062
  83.6595535   4.0186052  34.5487556  84.2679596   4.5771756  34.0649490
  82.8288422   4.4936361  34.5264053  72.4201279  37.4363441  31.3038330
  71.9302444  37.4077530  32.1256790  72.8984985  36.6075630  31.2811909
  33.4655533  68.2476120  25.4286633  33.8624611  67.9626999  26.2517815
  32.5968475  67.8456345  25.4298878  59.8476219  17.7216244  65.4805298
  59.0411758  18.2344494  65.4267654  60.2879677  17.8794842  64.6454239
  67.1324463  21.0242958  25.0852623  66.7948227  21.6653271  24.4597073
  68.0144806  20.8249416  24.7714157  45.3911743  54.4942284  63.5943336
  45.3624649  55.3825912  63.2390594  45.8477325  53.9835396  62.9257660
  85.9938583   8.7551746  82.2360306  85.0566406   8.6443462  82.0760880
  86.0573044   8.9330225  83.1744156  47.2807961  34.4293251  85.0724411
  46.4435120  33.9896889  85.2204514  47.2823105  34.6330490  84.1371765
  21.5693874   1.3674113  36.5456924  22.3036423   1.9814317  36.5366936
  21.4438229   1.1307180  35.6267586  36.8798141  22.8173199   1.6028914
  36.8865433  23.5634174   2.2024961  36.2304192  23.0493851   0.9390661
  24.5248642  53.2738724  37.0496826  24.0268021  52.5799561  36.6176567
  24.6930962  53.9140167  36.3582001  47.2496300  66.4066620  24.4851170
  47.6498184  65.5376129  24.4563046  47.8668251  66.9701614  24.0184536
  41.1758423  48.3551254  20.6780968  40.7421150  47.6313705  20.2261086
  40.8680992  48.2916641  21.5822525   8.5386181  42.6201477  35.3600006
   8.1136875  43.2214394  35.9716492   8.0319996  42.7026939  34.5520668
   2.7873919  36.3184204  31.7825108   3.7205706  36.4436035  31.6100636
   2.6394920  36.7492561  32.6243744  18.3552303   0.6798229  21.2599373
  19.0851631   0.8037025  20.6532383  18.1658821   1.5583647  21.5893955
  10.7518311  19.3733902  85.6781616  10.0550184  18.8130112  86.0197144
  11.2361078  19.6536789  86.4547882  42.4175224  51.9183578   1.7378241
  42.5582008  52.7337532   1.2566024  43.1990013  51.3958893   1.5574116
  49.2199097  27.5160103   1.0901984  50.1337967  27.4612942   1.3695668
  49.1304817  26.8307552   0.4278832  86.2057953  22.5847015  68.2511520
  85.3306961  22.6933937  68.6234665  86.6832123  22.0755177  68.9061584
  32.8943939   3.1119657  68.3376541  33.6293068   3.1165862  67.7243729
  33.3007355   3.2068210  69.1991196  80.3890228  22.2538967  39.1243858
  80.7005310  22.2930603  38.2201424  80.8057785  23.0009556  39.5538559
  82.6884155  12.2413969  30.7371140  82.5093994  12.5426836  31.6278496
  82.0144272  12.6609335  30.2023659  40.1723175  64.8506241  50.3710251
  40.3008232  65.7899704  50.2393608  39.8130798  64.5392532  49.5402260
  38.6686897  33.7333565  68.9406891  38.9127083  33.9164734  69.8479691
  38.7976151  34.5654106  68.4853897   5.7275324  64.8298874   0.5168412
   6.1870322  65.0635452   1.3233761   6.4123640  64.4900208  -0.0591157
  52.1440353   2.6064897  12.1796246  52.6058846   1.7743534  12.0772715
  51.9953079   2.9096177  11.2839546   4.1940141  41.4998016  10.5550241
   4.6233945  41.0345192  11.2729206   3.2585890  41.3695755  10.7107573
  34.2513809  52.3865013  67.0601349  34.5478592  52.1876831  66.1719894
  34.8024178  53.1180267  67.3384552   3.2912321  13.1306477  73.2192612
   3.1688619  13.3403921  72.2933807   3.0056164  13.9178276  73.6829453
  53.2900047  60.9364166  23.8861065  53.9741974  61.6056938  23.8995323
  53.7655869  60.1092072  23.8101254  83.0796585  64.0970688  60.3721504
  83.3636475  64.8659973  59.8778534  82.6571503  63.5365829  59.7213249
  85.0506592  17.3181019  54.1978264  85.0507355  18.2472935  53.9679642
  85.8098831  16.9579277  53.7394753  69.5942688  11.0609570  63.2896156
  69.7923355  10.9758768  62.3570061  70.4280396  10.8910561  63.7280159
  32.7786598  57.4817772  11.1356869  32.0744286  58.0709190  11.4062538
  33.4374237  58.0580559  10.7481756  43.5601845   3.4642403  16.7384777
  43.0613022   4.1862531  17.1206379  43.1723862   2.6767352  17.1201611
   4.6679287  23.9941959   5.6748567   4.5642147  23.8294392   6.6120496
   5.5020833  23.5820122   5.4500828  62.6565514  20.6080818  55.6398697
  62.0084381  21.2765694  55.8619194  62.8991585  20.8011513  54.7342758
  83.0068283  51.9451904  41.2886009  82.9252472  51.7832680  40.3487320
  82.2321930  51.5327721  41.6708145  64.6903992  14.0975494  51.8005524
  63.8321571  14.5090208  51.9022751  64.8675079  13.6991367  52.6526833
  79.8748398  56.5545082  27.9083862  80.2185516  56.0974960  27.1407700
  79.9816895  57.4830780  27.7020588  79.7826309  45.2224350  57.1216545
  80.2727966  46.0180283  57.3290253  80.3768616  44.7113991  56.5721397
  19.3033333  62.6501083  51.7279968  18.9413147  63.4744759  52.0529442
  18.5788078  62.0280151  51.7934914  54.9837952  25.7135067  86.0186462
  55.3005486  26.4442425  86.5496140  54.9977989  26.0458641  85.1211090
  42.8661766  37.8168602  79.6768723  42.9550896  38.6947746  79.3059387
  41.9338875  37.7350311  79.8778076  80.1646042   2.4131362  49.8464775
  80.1558609   3.1944246  49.2935371  80.9869919   1.9745598  49.6284027
  47.8125229  60.5638924  81.1998749  47.2610664  60.4621887  81.9756241
  47.2746964  60.2361908  80.4790497  78.1190262  68.3067093  88.5219116
  77.7624283  68.5834427  89.3660049  78.5574570  67.4763641  88.7077560
  54.6108398  44.9767647  47.6104240  55.5100822  45.2915077  47.7028122
  54.5806427  44.1794281  48.1391754  25.8915272  38.4114647  81.9311295
  25.8824501  39.2102776  81.4038315  25.1577187  38.5159340  82.5368118
  84.7671432  41.9255142   1.8957845  84.5393829  42.8541260   1.9409144
  84.4669266  41.6470413   1.0305928   8.9730577  17.3204880  78.0714340
   8.4374552  17.8420124  78.6692429   8.4298935  17.2189922  77.2898331
  86.4273605   0.7748048  77.5501099  87.2375870   0.2663680  77.5854568
  85.7379227   0.1195682  77.4425354  76.8879395  59.9564705  54.1808586
  76.3994827  60.7387619  54.4370995  77.3649292  59.7024536  54.9709129
   0.4248559  26.9623203  62.2504387  -0.1454990  27.7284946  62.1879425
   0.9829834  27.1403236  63.0074348  25.2915535   2.3468215  67.3060684
  25.6129360   1.6827461  67.9159470  25.4466057   1.9711766  66.4394150
  77.8852692  27.5448208  16.4404869  77.3959122  28.3329983  16.6761589
  78.4737549  27.8285046  15.7408876  61.8727417  28.2158623  32.9922600
  61.7559433  28.6992931  33.8101158  62.6409760  28.6161461  32.5850449
  22.0626774  48.3742027  49.1245117  22.7412510  48.6506348  48.5085907
  22.4602203  47.6516571  49.6104317  27.8871841  27.8755245  72.8767242
  28.0274944  28.7588673  73.2176743  28.5827465  27.3519421  73.2745743
  37.9434280  50.4095230  83.2165375  38.3337517  50.6615143  82.3796539
  37.8705521  49.4562645  83.1694641  38.9533806  60.9344292  47.0031509
  38.3470802  60.2258492  47.2188950  39.4206581  61.1070175  47.8205223
  44.5600662  30.2003899   6.4355245  44.0857887  29.5060596   6.8929105
  45.0450439  29.7456570   5.7468677  58.1607513  18.4806824  44.3693237
  58.9660797  18.9368019  44.1251221  57.4957008  19.1684494  44.3995552
  71.5096054  25.2252560  49.4759407  71.9122238  24.3568516  49.4733582
  72.1948090  25.8079109  49.1484680   4.2406845  19.4988842  54.5499878
   4.7731099  19.6555748  53.7701111   4.6915627  18.7904778  55.0094452
  78.2855530  25.7395058  77.7131348  77.9842072  24.8316936  77.7491837
  79.2344437  25.6728287  77.6064148   6.5070181  61.6013031  65.1587219
   5.7896509  60.9762497  65.0541992   6.5310130  61.7834511  66.0981293
  16.6169701  53.3461456  23.2583637  16.1224384  54.0879211  23.6068516
  16.4771786  53.3883095  22.3123665  27.5560246  66.2274246  81.6958389
  27.1881008  66.9841080  81.2394485  26.8531456  65.9316101  82.2743530
  11.2058887  34.0056953  76.0733948  12.0006742  33.4862633  76.1947784
  10.8411264  33.6952705  75.2446518   0.4231766  19.4423065  77.3127518
   1.1525284  19.2970123  76.7101212   0.7862995  19.2538071  78.1781082
  57.8996468   6.8242011  80.9177399  58.7907524   6.4754372  80.9405823
  57.6758270   6.9698863  81.8369370  28.8060760  63.9427261  46.8408012
  28.9871387  63.7176437  45.9282303  28.2771797  64.7389603  46.7906990
  50.4189224  47.9060860  12.6977892  50.1545792  48.8160439  12.8331909
  49.6127129  47.4029198  12.8121481   2.3876739  47.8390923  33.3818855
   3.2328153  47.7968254  32.9344673   2.5774624  48.2774353  34.2113838
   0.5026780  25.8583050  59.7156487   0.7113575  26.1939049  60.5874596
   0.1627068  26.6173668  59.2418556   9.3243847   1.8891304  80.5292130
   8.4197302   2.0711432  80.2748489   9.4953499   1.0093881  80.1929779
  64.1225586  23.7408199  52.8114929  63.9869957  22.7945175  52.7628593
  63.3206100  24.0774250  53.2112579  15.7040520  54.4494209  79.3664322
  15.4583473  55.3738823  79.4015503  16.1457729  54.3508644  78.5229874
  23.3057041  26.0715466  60.7918320  23.2818394  25.1289711  60.6268578
  22.7899227  26.1881866  61.5897026  13.5140848   6.5208249  14.1282091
  13.9255095   6.1669755  13.3396969  14.0643940   7.2650723  14.3721113
   4.5478992  48.6747627  47.2780800   4.8959327  49.3825836  46.7357750
   4.4293604  47.9441414  46.6711426  58.3696136  47.6026726  38.6048279
  57.6448174  48.2009583  38.4232864  58.3151360  47.4391861  39.5463905
  62.1095886  46.2022018  38.5609283  61.5868568  45.5823021  39.0695610
  63.0094528  45.8893623  38.6537247  25.8949585  59.8030014  51.8882294
  25.1409111  60.3372726  52.1376190  25.5404892  59.1605301  51.2735596
  71.3919754  18.5139065  62.7962723  70.9691010  17.8838177  63.3797073
  72.2632828  18.6406803  63.1717567  35.2727089  23.4365940  78.9421692
  35.9945068  23.9571877  78.5897141  35.3969841  23.4661636  79.8908081
  26.0786934   3.0895257  60.6857262  25.1284294   3.1752186  60.6090088
  26.2533665   3.1889470  61.6215858  49.0946655  -0.1828915  46.7868690
  48.3586845  -0.0640708  46.1864967  48.9150085   0.4200242  47.5082893
  29.4263554  40.1680794  79.5472946  28.8005409  40.8890610  79.4781952
  30.0309486  40.4410248  80.2373657  31.6101665  62.1604309  39.5598145
  31.3377304  61.9834709  38.6594276  31.8340473  63.0910721  39.5637894
  10.6357985  54.1976624   1.6354281  11.1549788  54.9263992   1.2953875
   9.8275518  54.6045341   1.9475582  43.8745804  41.3461533  56.8197441
  44.5657005  41.1162720  56.1986656  43.1921654  40.6914253  56.6718369
  16.0794449  60.0851898  46.6629028  15.2307301  59.6973763  46.8762512
  15.8660889  60.8463058  46.1230812  15.0783644  60.4481239  88.8036423
  15.1354179  59.5096817  88.9833832  15.6978359  60.8471031  89.4146271
   5.6984663  50.1078644  15.3870497   4.8121681  50.1403999  15.0269823
   6.1037383  50.9262009  15.1001463  22.2777710  51.0406837  29.0859146
  22.4254189  51.9642487  29.2895222  22.4922523  50.5794029  29.8967476
  62.8840714  44.3067284  26.5866318  62.6043205  44.4842644  25.6886063
  62.3346710  44.8758621  27.1255913  83.1835022  51.1500969  64.0376434
  83.5200272  51.8109550  63.4324532  83.7584457  51.2091522  64.8006516
  80.2071609  59.7401962  69.1837997  80.4774017  60.4204216  68.5669556
  80.7533417  58.9858093  68.9628448  76.7612457   9.7773266  42.1819077
  75.8748016   9.6139889  41.8597679  76.9128876  10.7058296  42.0055122
   5.0625901  69.3937683  20.7006207   5.7879782  69.5978699  20.1103783
   4.3459883  69.1379166  20.1198864  30.2377224  48.5016479   7.4908924
  30.2914009  48.3754959   6.5435615  29.5471439  47.9021416   7.7736015
  46.1086960  43.3475990  59.5441666  45.6375084  42.5607567  59.8182106
  47.0234451  43.1663971  59.7601128  54.1806602  60.5214081  34.4917793
  54.4008675  59.8663712  33.8294640  53.7957573  60.0172043  35.2086220
  56.1526680  62.9033432  21.1782551  56.7538795  62.2912712  20.7538242
  56.6193161  63.7390785  21.1742153  11.7978382  48.7250786  43.9599266
  11.2475328  48.2831764  43.3133087  12.2900963  49.3714333  43.4538231
  48.7479210  20.1363735   8.4467459  48.6793518  21.0335312   8.1201887
  49.4074020  19.7272816   7.8864226  20.6176624  23.4557495   2.3099144
  20.6292839  22.8763905   1.5480487  21.4086876  23.9870014   2.2189100
  53.9942131  20.3364105  21.0155334  54.6409340  21.0356045  21.1110020
  53.9459801  19.9346867  21.8830147  39.0480080  58.3123665   8.4979630
  39.6084404  58.5442657   7.7574458  38.6490784  57.4798584   8.2449369
  44.4072495  35.9445572  57.3176041  43.4747734  35.8144455  57.1450005
  44.5162621  35.7046013  58.2378044  67.0402832  57.7892570  71.1996460
  66.5741119  57.1299019  71.7136154  66.9843369  58.5867996  71.7259750
   6.7826920  10.7148199   0.8286566   7.3339005   9.9623632   1.0436226
   5.9636264  10.3302937   0.5164019   1.2379874  69.8539581  74.8058548
   1.9559532  69.2216263  74.7756424   1.2564539  70.1947556  75.7001419
  24.1532383   1.9510750   9.3474712  24.3340130   2.0285387   8.4106941
  25.0079212   1.7798315   9.7429771   0.6642912  51.4206734  75.1250381
   0.5123318  51.3363342  76.0663300   1.3444827  52.0900993  75.0512695
  85.0330276  37.5309906  87.3366928  85.8339767  37.1298218  87.6740036
  84.4995575  37.6918106  88.1150131  59.6572876  17.4109421  81.2480698
  59.3257408  17.4096642  80.3501205  60.6002121  17.5468616  81.1550369
  75.1178970  68.8672867  82.4309998  74.9628906  69.7994003  82.2781143
  74.3143311  68.5560455  82.8477020  46.3753319   9.0867424   2.5671134
  46.4454460   9.7337227   1.8651646  45.9397774   9.5534363   3.2803609
  62.8628654  28.0484390  29.5409031  62.6567612  27.8184757  28.6348839
  62.0762558  28.4902229  29.8607540  17.1495972  20.0162144  81.0185699
  17.8491154  19.4153881  80.7618332  16.5145760  19.9636879  80.3042755
  24.9298687  67.1576538  29.5925255  24.1266441  66.6835556  29.8076859
  25.5135956  66.9878082  30.3318825   7.3731399  53.3173981   2.0363817
   7.6840463  52.4264755   2.1970980   7.0399404  53.6113892   2.8841901
  11.0046234  61.5373154  49.2289734  11.7052088  62.1692657  49.0675812
  10.2780762  61.8410110  48.6847954  81.4486313  22.9042931  34.1444168
  81.2908096  23.6697884  33.5918427  80.7112198  22.3216553  33.9627876
  76.4626312  30.4232922  66.0864639  76.0623245  30.5068398  66.9519119
  76.4791718  31.3165855  65.7429733  -0.0644269  61.9715157  19.0665779
   0.8857806  62.0163879  18.9601612  -0.2025483  62.0292664  20.0119972
  35.0255318  27.2999783   7.2671280  34.9337769  28.2006817   7.5778451
  34.5559196  26.7742271   7.9146471  33.4850464  23.3178978  70.8849640
  32.6114311  22.9304142  70.8312759  34.0558281  22.5889950  71.1281509
   3.2084050  49.0652390  36.5854301   3.7739391  48.7571716  37.2935944
   2.4007409  48.5617943  36.6876755  44.5071831  42.8811798  10.9669790
  43.7708893  43.1673584  10.4264183  44.1202736  42.2715225  11.5953484
   4.0201492   1.4969302  77.3270340   3.9803200   1.8626959  78.2107010
   3.8692801   2.2461240  76.7506866  85.7268295  40.2586365  12.0970507
  86.5041199  40.6830177  11.7337961  85.9145966  40.1746864  13.0318909
   2.1018586  24.5255718  84.9216003   2.8651032  23.9640217  85.0570602
   1.3532526  23.9331379  84.9911957  53.9353790  49.8145638  43.2983131
  54.7252007  50.3462868  43.3967361  53.2860184  50.2450180  43.8544426
  82.7120056  14.6986361  52.4451141  82.4053040  15.5734854  52.2067871
  83.6628494  14.7423840  52.3440132  60.6333275  62.9044189  12.5740643
  60.0561523  62.1444168  12.6482096  60.3389435  63.4971123  13.2656460
  16.6484108  52.9537888  37.7126617  16.1979179  52.1227417  37.5621681
  16.0951157  53.4155006  38.3426781   3.2857978  41.6600304  49.4845810
   2.5389776  42.2194748  49.6979179   4.0188856  42.0460434  49.9639626
  53.5774155  26.3326817  30.6925583  52.8839188  26.3829823  30.0347099
  53.1218948  26.4303703  31.5287342  55.4310417   4.0704379  22.1963825
  54.7225990   4.6913304  22.0265808  55.2487526   3.3336897  21.6131096
  81.7661743  33.5288925  58.3275070  82.7173157  33.6096725  58.2564850
  81.4352188  33.8502312  57.4887924  64.4263229  13.0932522  23.0226707
  64.1587830  12.1752186  22.9794464  64.8465881  13.2602262  22.1790314
  21.0298424  62.6903229  49.2375259  21.6151180  62.8467369  49.9786224
  21.6152744  62.5913200  48.4867287  66.7802277  29.6529121  55.3412552
  67.4183502  29.3470573  54.6966705  66.8139877  30.6073856  55.2774506
  43.2512741  14.9547081  66.1763992  43.6097908  14.3652420  66.8398972
  43.6049194  15.8146353  66.4037552  66.9999924  42.8986855  83.5832977
  66.4165649  42.7292786  82.8436127  67.4860229  42.0819283  83.6969376
  30.9292698   5.0162201  16.8964520  30.0049362   5.1512213  17.1052895
  30.9826622   5.1479044  15.9498577   0.8063743  57.6509094   7.6987829
   0.9389814  56.7297363   7.9225888  -0.0290421  57.6660652   7.2317905
   9.4210501  25.8733196  87.4579544   8.5086708  25.6550999  87.2677536
   9.8450441  25.0270481  87.6003799  66.4495239  40.3261871  76.9914398
  65.5326385  40.6000595  77.0149155  66.4329300  39.4702377  76.5632935
  82.1121826  69.6031265   6.1891098  82.6784363  70.3669891   6.2991247
  82.3749390  69.2293472   5.3479886  29.8558407  54.6954079  69.7658463
  29.7126770  53.8943214  69.2618637  30.6310539  54.5096931  70.2957306
  36.8188858  54.6003151  70.5325089  36.6621819  55.2187424  69.8189087
  36.4220428  55.0137329  71.2992096  83.2775116  13.1355801  66.5435867
  84.0555573  12.7380400  66.1526413  82.8142471  13.5315142  65.8054504
  10.3234081   3.2636497  67.6362686  10.3675041   4.1918449  67.4066086
   9.8976917   3.2489657  68.4934616  67.0084381  17.6574154  41.2632904
  66.8599777  16.7180367  41.3717346  66.5794220  17.8736973  40.4354019
  63.7487640  39.7463722  30.3327923  64.2643661  40.5479393  30.4215469
  63.0144806  39.9948540  29.7712593   2.8608515   8.1850834  27.2646503
   2.7006187   8.4886217  26.3711052   2.8962629   8.9863672  27.7870712
  54.4406662  51.0740891  41.0476723  54.2270241  50.3883972  41.6804581
  54.2566185  50.6792297  40.1953583  35.6934929  49.9536438  47.5209808
  35.7658157  49.4237671  48.3148537  36.1993866  50.7431946  47.7130966
  13.5048561  34.9393463   0.8444648  13.4413033  34.3813705   0.0693146
  13.0018787  35.7217102   0.6182989  51.1523895  62.0295067   7.8020720
  50.7274170  61.2531738   7.4374628  50.7731819  62.1219177   8.6760817
  17.0614262  24.9366989  80.8849411  16.3778076  24.2670135  80.9054871
  17.5826206  24.7711029  81.6705399  29.1598091   1.3099270  27.3891315
  29.7872829   1.5729935  28.0624104  28.3307972   1.2153238  27.8581944
  -0.0148554  29.7287216   2.4667966   0.9298449  29.7255211   2.6209488
  -0.3472512  29.0078278   3.0016413  41.2393761  58.3187027  38.9695358
  42.0156212  57.9324112  38.5640106  40.6435165  58.4822769  38.2384872
  62.2797394  64.0085678   1.7741739  62.1480598  64.4131165   2.6316311
  62.8074112  63.2306557   1.9548547  67.8893356  23.4460087  51.7359161
  68.4654160  24.1108227  51.3585777  68.2871017  22.6129208  51.4829788
  11.4275646  45.0072517   7.1027699  11.6571274  45.9261436   6.9643126
  11.7214737  44.5643806   6.3067093  40.9625702  61.3055382  79.9946899
  40.1881752  61.6435013  79.5448837  41.6149445  61.2003174  79.3021774
  70.5880432  51.7448082  50.3943596  69.6731720  52.0226936  50.3494682
  71.0821609  52.5602379  50.4789658  60.2469292  59.8772736  78.6261292
  59.8593979  59.4592781  79.3951111  61.0463448  59.3778992  78.4594269
  30.3688278  20.9298935  65.9212875  31.2300396  20.5139217  65.8824081
  30.3636837  21.5393772  65.1832275   3.5206466  29.9143848  56.7019997
   3.9379025  29.6892223  55.8704796   3.5712304  29.1113911  57.2205315
  84.0586929  60.3682060  40.3440895  84.4460373  60.4599609  39.4735870
  84.5487671  59.6532478  40.7501602  15.1629429  15.3429966  66.8572617
  14.4981976  14.7278767  66.5474625  15.4531965  14.9804926  67.6942596
  32.5670471  55.7996635  74.6288986  32.7379570  55.7401619  73.6889648
  32.7951355  56.7008133  74.8572388  82.1168442   0.8989537  26.2525215
  82.5407486   0.2985257  25.6393108  82.1463928   1.7493550  25.8141422
  63.7440758  16.6785240  82.4570923  64.1646576  17.5368042  82.4051514
  63.2950287  16.5806389  81.6174469  28.3688812  57.4193573  88.5514069
  28.0462360  56.5752106  88.8669205  29.0598965  57.1940231  87.9285431
  73.8608704   7.1616516  34.7517357  74.5740662   6.7946019  35.2740898
  73.8990784   8.1028099  34.9220085  20.3497467  15.6868877  81.0867767
  21.0628452  15.1438761  81.4227295  19.6596317  15.0631666  80.8610687
   2.5437510  65.1496735  15.3826380   1.6924807  64.7307434  15.2558928
   3.1551960  64.4213867  15.4920044  10.7746029  14.8839579  75.4795380
  10.9705200  14.0325127  75.0885239  10.4419279  15.4104719  74.7526627
  82.2246857  40.0356674  69.8327560  81.6638336  40.0561714  70.6081619
  81.6226196  39.8765297  69.1058273   6.9068599  45.4373550  64.8182831
   6.9821420  45.0891037  63.9298630   7.0697384  44.6837540  65.3855438
  77.1957092  70.9621964  37.1282921  77.0515747  70.0480576  37.3728523
  76.4085007  71.2069626  36.6418419   7.8024063  32.4466209   2.5939717
   7.0515032  33.0267334   2.7198539   8.5039892  32.8483505   3.1064422
  76.1249542  71.2171860   1.5607893  76.1873474  71.4515381   0.6348205
  75.1846390  71.1845551   1.7367659  46.4700470  37.2237663  77.8729858
  46.2275963  37.7874374  78.6076431  47.3103867  37.5699577  77.5726242
  76.0879440   1.8163847  11.0269346  75.4129181   1.2863276  10.6031313
  76.2299271   2.5481777  10.4264765  60.1461525  24.8253727  24.3368149
  59.9807701  25.2457047  23.4928932  61.0919914  24.9029236  24.4617462
  65.8563843  22.4227180  64.5827484  65.7736588  21.5403595  64.9444504
  66.7922440  22.5235176  64.4088440  13.3132973  46.1276321   9.5455637
  13.3560219  45.6842003  10.3927784  12.6479187  45.6444588   9.0556192
  29.4069500  49.4905739  75.4631500  29.5514259  48.6915588  74.9562607
  29.8272438  50.1797981  74.9487991  46.6779327  66.1547546  43.8796501
  46.1296921  65.9630966  43.1187744  46.2671356  65.6738052  44.5980988
  24.1033516  28.8346329  81.8129272  23.9422226  28.0814934  82.3813019
  24.1849422  29.5751495  82.4139404  44.0248642  67.3956528  19.6942768
  44.5386581  66.7155151  20.1297741  44.3029861  67.3569031  18.7791939
   3.6994221  27.1078053  23.4434662   3.4656394  26.4361000  22.8028488
   2.8628418  27.3817730  23.8193760  30.3721333  53.9184914  38.1804352
  30.7034111  54.1348114  39.0520401  31.0033417  53.2877655  37.8340340
  30.5814323  21.4537392  87.0542145  30.1602039  22.2769489  87.3014526
  31.2759438  21.3359776  87.7023010  48.1469460   5.4273839  24.8308868
  48.2654266   4.7569652  24.1580334  47.5170860   6.0396829  24.4506245
  72.5471344  20.1063976  27.4373817  71.8479385  19.6168346  27.8706036
  72.9858932  19.4593277  26.8850956  71.3475571  42.8815041  22.8816223
  70.4704819  42.7106590  22.5384178  71.2025986  43.1381264  23.7923164
  83.4304123   4.0697293  85.0556183  82.9338226   4.8484230  85.3071442
  82.7706757   3.4632299  84.7192612  40.8821945  33.3679047  50.5191650
  41.7783546  33.6548538  50.3436966  40.3611298  34.1696739  50.4756813
   1.0490742  46.9608574   7.9802594   1.1367292  46.0078583   7.9986820
   0.9436085  47.2094765   8.8985720  13.1442966  55.3748245  71.0555496
  13.7215385  55.4014359  71.8186493  13.1489735  54.4570885  70.7835846
  82.3825073  44.5775909  21.7966347  83.1755295  44.8902130  21.3611813
  82.1593475  45.2726784  22.4157314  13.3816729  63.5742493  26.4208488
  14.2579708  63.8054428  26.1128178  13.4473839  62.6491508  26.6577263
  16.3129559  36.5683861   1.8140801  15.7083168  35.9098511   2.1560993
  16.0846577  37.3703117   2.2842155  58.2491150  19.2858620  33.8633041
  59.0926514  19.6313610  33.5712280  57.6685333  20.0468407  33.8716431
  11.3241453  46.5915985  27.4454460  11.2985067  47.2081070  26.7136726
  10.9334736  47.0708237  28.1761665  39.3839455  22.2937431  88.6607361
  38.6038857  22.7445736  88.9839935  39.7917404  21.9279842  89.4456940
  45.5648575  69.8529510  71.0478668  45.6917229  70.5615997  70.4170303
  46.3386383  69.2990189  70.9446487  66.6040115  66.5850601  76.6690521
  66.1496735  66.6397324  77.5097809  67.4427261  67.0205002  76.8212967
  33.1228600  53.0339508  62.4117088  33.0916901  53.9895859  62.4567146
  33.0533524  52.8357582  61.4778366   7.2574739  59.9077568  43.0904617
   7.2259893  59.3040695  42.3483009   8.1758528  60.1719093  43.1455460
   7.5159068  69.9597244  60.3995476   7.7444134  69.4525986  59.6205444
   7.5709043  69.3310394  61.1192474  37.9171371  43.4901199  78.3073196
  37.8470688  42.5749321  78.5788956  38.7167053  43.5235672  77.7821503
  84.2153625  37.1198120   3.9715033  83.5580826  37.6858101   3.5667179
  84.7229233  37.7057533   4.5330105  85.5980072  22.7581196  74.9339447
  85.0605164  22.2171860  75.5125046  85.6984406  23.5855427  75.4046021
  32.4097519  15.4765787   8.9619541  32.8396645  14.7429543   9.4015036
  32.9732094  16.2285595   9.1443548  52.2716141  55.6591988  76.6651154
  51.9043236  55.1338654  77.3760071  53.1852837  55.3795815  76.6080475
  17.0701981  38.2628937  58.0719795  16.8324928  37.6709785  57.3582840
  17.2309647  37.6856461  58.8184166  71.5568848  31.7762566   8.9417067
  72.2612610  32.3931389   8.7428398  71.2770386  31.4486046   8.0869770
  13.9897842  39.0549316  67.6170959  13.7356167  39.0516281  68.5399323
  14.1636829  38.1359978  67.4132690  74.7269440   4.0275507  47.3618317
  75.5959930   4.3601336  47.1374016  74.1306000   4.7389598  47.1283798
  54.7024422  25.9103489  14.9724808  54.6978607  25.5825062  15.8717747
  55.3705864  26.5957756  14.9708281  70.0825424  24.8249340  18.9910259
  70.8258514  24.2391052  18.8477917  70.3136215  25.3168221  19.7789860
   0.1694444  45.2679176  73.0864029   0.5134314  45.6995735  73.8684311
   0.8460400  45.4005432  72.4224243  56.5359344  40.0715866  80.2078476
  56.3112106  39.4376678  79.5267639  57.3752708  39.7660332  80.5519104
   3.7779577  39.5973282  15.4882746   4.6976352  39.3693047  15.6240358
   3.7044129  40.4965286  15.8080578  12.5099764  44.2628593  26.9289989
  13.0231743  44.3129425  26.1225548  12.2155828  45.1607704  27.0817032
  18.9800014   8.4076958  74.8311768  18.6794968   8.1124840  75.6907043
  19.2293034   7.6037002  74.3754730  13.0373383  62.2817574  12.2593622
  13.9056902  61.9708633  12.5153732  12.4585667  61.9787102  12.9589481
  65.9968262  44.1641159   3.6642482  66.1299973  43.4183846   3.0791128
  65.0492477  44.1998978   3.7947955  46.0153542  20.3747292  64.0260468
  46.1867790  19.4369545  63.9398804  46.0592117  20.7095184  63.1303787
  27.9508953  54.8061485  80.2939682  28.0544205  55.3819466  81.0515747
  27.5044899  54.0332489  80.6397705  42.2731514  58.6009445  84.1959152
  41.4539871  58.4030190  83.7420120  42.5761299  57.7541046  84.5234756
  80.2977905  34.7941895  85.5685425  81.0117569  35.1507607  86.0970688
  79.6108017  34.5875130  86.2022400  83.5759735  10.6527634  11.2612181
  83.9430847  11.3362827  10.7006235  84.2436752  10.5087099  11.9317827
  35.0784264  60.7291718  67.5631332  35.9698486  60.7312546  67.9118347
  34.5450325  61.0983009  68.2670288   8.1074448  -0.1004836  76.4960251
   7.7669110   0.6056567  77.0452347   8.9450350  -0.3329490  76.8968201
  10.2674799  66.2456055  26.0511818   9.3889284  66.3398132  26.4192905
  10.6298571  67.1314240  26.0665550  66.3905258  65.4269562  20.4937572
  67.1732254  65.4646454  21.0434818  66.6846619  65.7355881  19.6367512
  10.8772879  67.0033112  73.5806885  10.6418915  66.1845474  74.0170975
  11.6131372  66.7700729  73.0146866  69.2459412  11.2359619  29.8595695
  68.3622742  11.5645227  30.0251293  69.8152542  11.8126106  30.3690777
  18.9783192  54.6869507  19.4750805  19.4503117  53.8802719  19.2683945
  19.6433868  55.3734474  19.4237156  20.1032448  65.3986511  13.3577623
  20.7017937  65.2767105  12.6208086  20.6757717  65.5696411  14.1055641
  82.9408264  52.4773560  82.8143311  82.1736679  53.0252762  82.6485748
  83.6454620  52.8959312  82.3198471  18.4752388   4.5181231  68.4346771
  17.8430767   4.6272655  69.1450882  18.3214321   3.6303587  68.1114883
  20.5229053  22.2525425   4.7923894  20.3468494  22.4928246   3.8827188
  19.6693611  21.9967289   5.1420374  12.3128633  42.1834679  12.3404341
  13.0504599  41.9854698  12.9174776  11.5379076  42.0277367  12.8802710
  66.2715988  35.5469398  74.7765579  67.2202606  35.5181389  74.6522903
  66.1047134  34.9311790  75.4901581  23.0738125  71.1823578  28.8036232
  22.5188770  71.1602783  28.0240135  23.9488525  70.9669342  28.4809303
   6.6107473  41.9010620   2.4855702   6.1164336  42.1498871   1.7045636
   7.1937122  41.2027512   2.1876664   8.0362663  15.7576141  24.2820358
   7.8194466  15.1310873  23.5916119   7.9666328  15.2539415  25.0930214
  69.5945282  46.3941422   6.3073673  69.0713654  46.0629654   7.0373359
  68.9497299  46.6599159   5.6517529  85.9880295  18.0954437  73.2525253
  85.1065369  17.9529133  73.5973358  86.3082886  17.2179317  73.0436325
  20.9762611  29.0122890   2.7048116  21.4947624  29.7391376   3.0498888
  20.0892944  29.3645630   2.6311536  83.2342987  17.5942497  58.5418739
  84.0508347  17.1832676  58.2579842  83.0506210  17.1986046  59.3939056
  40.5469208  25.4895515   5.1163988  40.9985809  25.6927891   4.2972965
  40.2457237  26.3382473   5.4407887  86.0411453  24.7602997   7.0191059
  86.2502975  25.3673744   7.7289977  86.8728104  24.6283474   6.5639634
  81.1704178  64.9001083  40.5985832  81.3040161  64.8428497  39.6524811
  80.9335327  65.8147354  40.7521019  75.9799728  31.1025810   3.8360188
  75.5587997  30.3164272   4.1835914  76.9079666  30.8738556   3.7835796
   3.7381768  25.0825672  31.0267658   4.2377725  25.7186184  31.5387001
   3.3326416  24.5138779  31.6812630  59.7359428  10.3741045  87.0585938
  60.3013687  10.7666254  87.7237625  60.0359726  10.7557974  86.2336502
  68.0570679   6.6848588  82.9865189  67.4796524   6.1523438  83.5335617
  68.8914261   6.2157621  82.9914627  19.4261494  54.2184334  39.1987457
  19.2904625  53.2807999  39.0621490  19.2639503  54.3503380  40.1328354
  38.0167351  19.1424294  62.3017235  38.7487106  19.6932545  62.0241699
  37.2429237  19.5690937  61.9337463  18.8175087   1.6911855  82.5990677
  18.2505684   2.3975797  82.9086075  18.2583809   0.9143059  82.6072388
  58.9112396  24.5736389   4.0245457  58.2391586  24.7053089   3.3558145
  59.6123505  24.1060047   3.5706780  35.3855782  63.3559723   2.8125584
  35.3199310  64.2206039   3.2179315  34.9377518  63.4509354   1.9719261
  61.0931282  68.5969620  63.9261932  61.1808510  68.9912643  64.7939835
  61.9514656  68.2114944  63.7503815  86.4664001  18.4085369  88.0204697
  85.9533234  18.5631790  87.2273331  87.3440552  18.7226562  87.8030167
  14.6016407  26.1108456  26.9079952  14.4993038  26.0852051  25.9566269
  13.7888851  26.5041103  27.2258053  77.3464050  20.2454853   2.1969156
  77.5860596  19.6846180   1.4591986  78.1362152  20.7555923   2.3764398
  68.8220978  59.3574371  86.4794083  69.4320297  58.6743507  86.7579880
  69.3784256  60.1136475  86.2926483  73.0386658  62.4741325  64.1287766
  72.8752594  61.5312119  64.1078720  72.2316055  62.8493195  64.4810867
  50.8635521  38.0440674  10.1767778  50.3094292  37.2754784  10.0409613
  50.4515343  38.5109367  10.9037638  84.2403183  39.0382538  82.4876328
  84.3487396  39.1736374  83.4289856  84.9864883  38.4938507  82.2364502
  43.5350571  55.4902649  88.9237137  44.3982010  55.8274689  89.1635284
  43.1731262  56.1541977  88.3368301  75.2394333  26.8675041  33.1379051
  75.2871323  27.6135597  32.5401115  75.5719070  27.2052975  33.9695206
  78.9954529  32.9729958  25.5291843  79.0485229  32.7577248  24.5980167
  78.3873825  33.7111092  25.5700932  77.3912201  18.1856766  53.8620949
  77.3132019  17.7078609  54.6878319  76.7469101  18.8901730  53.9312363
  58.2477646  14.9380112  31.0648098  57.8660698  15.5196877  30.4073963
  58.2315750  14.0722284  30.6568985  50.4451332  23.4196548  15.7276917
  49.9681091  24.2149220  15.9648142  50.7235603  23.5678482  14.8239508
   7.7978969  64.2751312  24.1191349   8.1158428  65.1109390  24.4605618
   7.3007431  63.8942528  24.8430119   0.6900105  54.9329643  74.8085022
   1.1429869  55.2926445  75.5711746  -0.1956111  54.7480621  75.1210938
  19.1621208  34.7077293   7.0397053  18.2380581  34.8198433   6.8166170
  19.4550819  35.5828819   7.2937012  37.3366928  21.3991013  67.1279755
  37.4187355  20.7824173  66.4005127  38.1102142  21.2368183  67.6679306
  44.9202156  63.1923370  68.8226013  45.5602341  62.8273010  69.4336319
  45.1848564  62.8531075  67.9675446  20.8041363  61.8082314   4.0692315
  21.5643692  61.2479630   4.2253685  20.5019779  62.0513077   4.9443569
  66.5847015  69.2413940  10.2941084  66.8190231  68.6728363  11.0276403
  66.2578049  68.6430893   9.6222458  83.8661652  44.4203148   8.0346479
  82.9896698  44.6870270   8.3118668  84.3336105  44.2474899   8.8518724
  33.6485786  49.7832108  22.3560982  33.5813599  49.8798714  23.3060284
  32.9298859  49.1952324  22.1237278  48.4697723   9.6980228  26.1971226
  48.1093445   9.3067179  25.4013824  47.7027206   9.9039459  26.7314053
  17.4310894  26.7909756  69.7722702  17.5050354  26.1594429  70.4877625
  18.3311958  27.0709190  69.6059189  21.9507504  17.3206978  24.4894733
  21.3533459  18.0582085  24.6136398  22.8227291  17.6950378  24.6149902
  37.6399956  28.0943928  60.8446846  36.7206802  27.9406910  61.0625420
  37.8895950  27.3388844  60.3125763  47.4604416  26.4861050  59.5798950
  47.7345390  25.7366524  59.0512886  47.4897346  26.1666374  60.4817352
  24.1125793   5.9565196  23.9836063  24.4003239   5.0492754  24.0853043
  23.3652039   6.0385852  24.5759964  47.4215469  40.2054977  86.9791641
  47.7063446  39.3674622  87.3436127  47.1076317  39.9904251  86.1008530
   6.2925296  66.4118652   3.5485575   6.9641194  65.7424469   3.6792345
   6.6206794  67.1760635   4.0224299  25.0394497  54.1450424  56.0832062
  25.3244877  54.6563950  55.3259048  24.1994667  54.5315399  56.3307533
  15.5620508  50.4140663  61.6262436  16.0923901  51.0139008  62.1508102
  14.6708002  50.7553329  61.7000237  52.4115448  61.3206635  38.3574181
  51.7747345  61.4337273  39.0630531  53.0482178  62.0221138  38.4947014
  64.3415375  60.4070854  23.6740417  64.1063995  59.7094612  23.0622730
  64.5292053  59.9523849  24.4951763  24.9055901  12.3720884  81.2024994
  24.1014900  12.8816490  81.1024857  24.7874660  11.6215096  80.6203384
  67.7898254  17.8354683  80.5206985  67.1086349  17.2923374  80.9171982
  68.0682297  17.3441734  79.7478104  30.9786320  66.8488770  85.8713531
  31.8245182  66.7677765  86.3119507  30.5464039  67.5785751  86.3151321
  35.5712242  25.6475468  87.9196625  36.1156120  26.1254120  88.5453720
  35.1058235  26.3304291  87.4366455  26.2552547   0.9396718  20.6123867
  26.7351208   1.0259993  21.4361038  26.7264462   0.2597401  20.1308231
  13.0767097  25.3486366   3.2064569  12.5055542  25.9618950   3.6689816
  13.9246168  25.7913723   3.1708174  72.0556793  10.3726292  64.2409973
  72.7540512   9.9117823  63.7761040  72.3121643  11.2941599  64.2059326
  77.6704483  62.7042198  41.2768669  77.7520599  62.9042015  40.3443565
  77.8948517  61.7760696  41.3433113  27.3297234  67.5357513  32.0173111
  27.6798573  66.8436127  31.4564323  27.2450848  67.1263809  32.8784027
  58.1758614   6.3329544  27.6802883  58.8155823   5.6858602  27.3832054
  57.3288956   5.9012184  27.5685730  49.4566956   2.7339973  52.2120171
  48.9172401   2.8646243  52.9918594  49.2894630   1.8274688  51.9541969
   4.7207394  30.4106426  35.1280212   5.5359378  30.7020683  34.7196617
   4.8683157  30.5264072  36.0666618  11.4024076  26.5639591   4.9895496
  11.9642105  26.8100662   5.7244239  10.9226437  27.3643265   4.7763104
  69.8477936   1.6988190  82.3895569  69.9151077   1.0506088  83.0906448
  70.7500000   1.9784954  82.2345123  46.9341545  59.1892929  25.7107716
  47.5562515  59.4211464  25.0212288  47.0646820  58.2506371  25.8453999
   9.7810402   5.5744238  78.3286896   8.8418827   5.5363278  78.1476822
   9.9337893   6.4755468  78.6130753  41.9390297  65.0476685  82.4510498
  41.9970207  64.5682907  83.2775345  42.8127518  65.4185715  82.3274841
   6.4260468  52.3063507  58.5008698   6.3170462  52.1155701  57.5692291
   6.7541151  53.2052650  58.5244904   1.6123550  19.4600639  66.4923325
   1.7824146  18.5651722  66.7864151   1.0737176  19.8416786  67.1854935
  77.5117645  68.1381607  45.3556747  76.8541870  67.4747849  45.5648537
  78.1877441  68.0243607  46.0237617  55.2148933  12.4449158  47.8764038
  55.0753021  11.7738380  47.2082710  55.1267090  11.9777489  48.7071915
  59.3381958  35.1061745  58.4460564  59.8827744  34.5079727  58.9577408
  58.8522873  35.6073151  59.1010246   2.5640509  48.8589783  85.4818649
   3.4186246  49.0013046  85.8889008   2.5334394  49.4895782  84.7623901
  43.0167427   3.5309060  78.4485168  42.6699905   4.4171767  78.5510864
  42.5494308   3.1769586  77.6918335  29.7579975  21.5252247   7.4041562
  30.1669960  20.6598473   7.4127116  30.2447987  22.0136623   6.7403154
  60.7371063  57.3794594   7.4378514  60.2948418  56.7066193   6.9202414
  61.0671463  58.0018082   6.7897859   8.5873251  18.4238415   2.9375806
   7.7461419  18.2129841   3.3427742   8.8661633  19.2307110   3.3705270
  25.3893108  57.0200653  77.1555176  26.3430233  57.0936432  77.1908875
  25.2134438  56.5846672  76.3214188  32.8708420   4.5366306   7.7788444
  33.3440704   5.2014928   8.2790890  32.9682961   3.7353497   8.2933187
  25.7894077   8.4036865  56.7375183  26.2758427   7.5860739  56.6320572
  25.6631680   8.4870663  57.6826859  45.5021973  16.1824703  26.3179550
  45.5545731  15.4285250  25.7305412  44.7434731  16.0015621  26.8727875
  42.0428085  25.8567486  82.7431641  42.1682739  24.9112167  82.6627808
  42.9301262  26.2135944  82.7826996  65.3074188  25.1978016  47.5399513
  64.6705399  24.9022179  48.1905251  65.2701645  24.5352936  46.8500748
  68.3801956  53.7878723   1.7703521  69.0787582  54.1644135   1.2351298
  68.7540054  52.9775047   2.1164782  40.0693550  29.4265518  60.6647682
  39.8592644  30.0157852  61.3892670  39.2252846  29.0593567  60.4022026
  84.6710587   1.0947092  70.4332809  85.0593338   1.2671191  69.5755157
  84.5125885   0.1507367  70.4390793  51.3688660  63.8331108  14.9450941
  52.1338234  64.0084381  15.4931173  50.8848801  63.1566200  15.4187555
  69.7426682  35.5110054  83.4600601  69.8067932  34.6307526  83.0895462
  69.8450699  36.0951614  82.7087250  43.1494637  55.7117996  61.0410728
  42.5846825  56.4827423  60.9871941  43.4945946  55.6053123  60.1546326
  29.5871735  43.7007713  52.4055328  30.2542515  43.1884384  51.9486313
  29.9312344  43.8051071  53.2926445  61.4992943  71.2818680  43.0284042
  60.5931816  71.0660019  43.2488365  61.5580406  72.2285843  43.1569290
  81.7589493   2.6938181   7.0476146  82.2061920   3.3633106   7.5652857
  82.2711792   1.8980792   7.1913090  34.0985527  58.0934944  78.8617172
  34.8083687  58.7325134  78.7980728  33.3153763  58.5788307  78.6022644
  31.5595570   0.8480116  69.9036331  30.8906765   0.2773335  69.5252686
  32.2144508   0.9408863  69.2117386  54.9085846  51.8302002  77.3688431
  55.2583122  51.6192894  78.2345428  54.4577942  52.6659088  77.4897308
  55.1260071  30.2190399   9.7638941  54.7824974  29.3300686   9.8531370
  54.7041702  30.5607929   8.9755468  63.4195061  61.1450233  74.5767975
  63.5929070  61.9810028  75.0095825  63.9008102  61.1983910  73.7511292
  18.7171459  62.9773369  63.7148361  18.9215240  63.7705612  64.2100754
  18.1083565  63.2688942  63.0361595  67.6879654  46.7116318  87.5250931
  68.3233643  46.8672142  88.2238693  68.1237946  46.0935936  86.9383087
  12.2721930  51.5387688  18.9811401  12.5797777  50.6766319  19.2610435
  11.8458719  51.3792114  18.1391029  48.4301605  33.5867920  60.5223503
  48.4827843  33.2746696  61.4257011  48.1494942  32.8215370  60.0205078
  79.9439850  40.8660812  20.3422451  80.0284729  41.5736122  20.9813805
  80.6187820  40.2351303  20.5928059   3.9162817  29.6102352  65.1538773
   4.0675230  30.3549919  65.7358551   3.0187833  29.3366470  65.3432922
  13.9173336   8.2210140  45.5501900  14.7509499   8.0318308  45.9809189
  14.0697632   9.0429649  45.0839386  79.1532669  18.8629208  59.9628830
  79.1279831  19.7913761  60.1943245  79.1413651  18.4060211  60.8039131
  71.0874481  57.4612160  68.2822266  71.1451645  56.7523499  68.9228592
  70.1511154  57.6487198  68.2161942  53.7954941  26.7156944  67.3420105
  54.1407013  25.8259907  67.4160995  54.0405464  27.1370583  68.1658020
  77.2790070  42.2512741  76.3709717  78.1050644  42.7012062  76.5482178
  76.6108627  42.9295769  76.4695663   0.9873075  15.6488857  28.7374992
   0.8048723  16.5543232  28.9887600   1.5053200  15.2989073  29.4623508
  83.3330002  38.7158966  50.8007889  83.0114517  38.7924118  49.9024658
  83.8123398  37.8874664  50.8138618  31.0471516  30.9491482   9.2898531
  31.1577263  30.1820011   9.8515387  31.7147312  31.5651798   9.5916405
  58.8511200  14.2416840   0.8109726  58.4853172  14.8083344   1.4901837
  59.3765144  14.8283768   0.2669306  24.8426342  46.2374458  54.7548523
  24.3578072  45.6968689  55.3785095  24.4586124  47.1096191  54.8446960
  73.0038300  66.3725204  56.6851654  73.8429794  66.7427063  56.9590721
  72.5957489  66.0762711  57.4987640  52.2414246  13.6602392  21.2325535
  53.0028229  14.2181091  21.3915768  52.0725746  13.2394323  22.0755501
  65.0644760   9.0004282  67.3284149  64.2501984   9.2157497  67.7831879
  65.5077133   8.3829746  67.9102478  37.3258591   4.9910588   6.9323559
  36.6704216   5.6354265   7.1996121  37.5673256   5.2497606   6.0429754
  28.2928791   2.2686419  12.1534767  27.5916348   1.9908147  11.5641537
  27.9451523   2.1099911  13.0310574  56.9681702  56.7241249  16.5675011
  56.6092796  55.8391037  16.6320267  56.3060379  57.2814865  16.9763603
  51.5274429  69.7267685  54.8635788  52.2731438  69.1588745  54.6695175
  51.0749779  69.2897797  55.5850716  11.2735291   0.3774922  42.5015106
  11.6687222   0.0618204  41.6888580  10.3363008   0.4194096  42.3115692
  80.0021439  61.0398941  10.0717573  80.6928711  60.6994019  10.6402569
  80.4678116  61.5449562   9.4051991  41.8807793  28.0408554  77.7169113
  41.6051750  27.4155331  78.3871689  42.7370186  28.3486748  78.0141144
  15.0919733  61.9829979  62.3939171  15.4729471  62.8595810  62.4458199
  14.4094238  61.9783669  63.0649872  69.5086823  57.9625626  48.0945473
  69.5707397  57.4409599  48.8947449  69.0802536  58.7731209  48.3696251
  40.4593658  24.4886646  64.0934677  39.6154175  24.1246700  64.3608475
  40.5004196  25.3413601  64.5264282  18.2697048   2.7832303  14.8521643
  17.4791737   3.0200968  15.3371229  18.5843124   1.9873829  15.2809772
  28.9814396  24.0494823  54.6247368  29.8676682  24.3706474  54.7911186
  28.6044674  24.6889458  54.0204124  76.7904739  13.6391821  52.1795921
  76.8658218  12.6895857  52.0856667  76.9406967  13.9797583  51.2977371
  47.8558769  53.9665146  16.1855221  48.4278603  54.4767570  16.7588615
  47.2681084  53.5044594  16.7832375  40.9904671  67.5476379  25.7748737
  41.0018654  66.7436142  26.2941513  40.0689354  67.6736832  25.5487633
   8.4800301  45.4870567  10.8586531   8.0726013  44.8402367  11.4347258
   8.1742907  46.3307419  11.1917439  35.0628319  11.4927998  35.5804024
  34.8244095  10.9343872  34.8404274  34.5365715  12.2836781  35.4629593
  71.0087509   8.3971910  52.6474686  70.9993515   7.9015441  51.8286400
  70.9843826   9.3138361  52.3728752   2.6497431  31.9734783  60.3487511
   1.7480487  31.6583214  60.2866592   2.8005702  32.0844536  61.2874565
  77.2784271   4.5947113  13.8220654  77.5981445   4.7256479  12.9293909
  77.2606430   3.6441383  13.9330921  26.4574203  66.3676224  40.5789528
  27.0507622  65.7176666  40.2024803  26.2417507  66.0218048  41.4450531
  11.6850109   6.5031433  76.3240051  11.5495987   5.8893557  77.0459137
  11.8313656   5.9455914  75.5598373  53.7833595  36.4017601  26.0921612
  53.5680962  36.2735710  27.0159893  54.6749191  36.7500343  26.1000690
  81.2207031  61.4616737  67.3847961  81.0106812  62.1176949  66.7201462
  82.1448898  61.2598877  67.2385254  67.7491684  53.2922211  79.5953064
  66.8135376  53.4819679  79.6647339  68.1708603  54.1508522  79.6294022
  70.3962173  44.0547600   5.3766108  70.1352005  43.2895851   5.8890605
  70.4457855  44.7655449   6.0157981   4.4007120  61.0286827  57.0052185
   3.5161252  60.9132957  57.3522415   4.9725699  60.9143105  57.7642517
   3.3282301  67.7125320  31.3322372   2.6410370  67.3798752  30.7548866
   3.7174990  68.4399414  30.8468761  29.8182125  68.6304550  69.9259491
  30.2946758  69.2516327  69.3751755  30.4029198  67.8759384  69.9970627
  25.1409683  65.2887497  22.8100910  25.6580029  65.6307144  23.5394516
  25.2630177  64.3403778  22.8538952  80.9205093  14.4055471  78.5462265
  80.0671463  14.6297340  78.1750793  81.1361542  13.5583477  78.1563721
  26.8203964  54.4887810  64.9347763  27.7382565  54.4058647  64.6761398
  26.3761520  54.7982712  64.1454086  35.4021950  48.6231689  16.0914612
  35.5204659  47.7068710  15.8411779  34.5036659  48.6681061  16.4183483
  57.6716042  20.5352764  30.1951427  57.3372421  19.9620743  29.5053043
  57.0624390  20.4140530  30.9234676  64.4069290  70.1072388  74.1958389
  64.5047379  70.3350525  73.2713013  64.5528793  69.1617279  74.2262726
  10.1993656  11.0183411  87.3457336  10.8897505  11.3378038  87.9267197
  10.6622791  10.5062656  86.6826172  65.2373505  70.5616837  36.9717064
  64.7914047  71.1545486  36.3668327  65.0293045  70.9050369  37.8406487
  32.8189392  59.1866531  22.4972248  33.4520302  59.8329124  22.8099213
  32.3158989  58.9479637  23.2758198  42.7019882  60.9344292  51.2227440
  43.3188171  61.2688446  51.8738327  42.0539894  60.4493637  51.7336655
  22.8477249  63.3881302  62.4409637  22.2666035  63.7876434  63.0882034
  22.7142887  62.4463692  62.5482521   5.3929687  12.6099234   6.2713313
   4.7206683  13.1497326   5.8555794   5.8372884  13.2042627   6.8759570
  32.4536018  14.2564564   4.0603166  32.5127487  13.5572453   4.7113447
  32.1267319  15.0117722   4.5490789  75.4260559  22.8480396  37.0723991
  74.5055542  22.8517418  36.8099098  75.7569885  23.7030582  36.7973366
  51.3410301  46.0635452  40.1925354  52.0727654  46.5781479  39.8519745
  51.5698280  45.8979721  41.1071205  38.3980675  53.0238686   5.4969778
  37.8605080  53.6807594   5.9394221  38.7726746  53.4863510   4.7473054
  15.1589823   8.5193014   3.7979653  14.9646578   7.6661181   3.4099588
  16.0116711   8.7588787   3.4349809  49.4423943   3.2165551  17.3750229
  49.1534538   2.3265235  17.5764904  48.6583710   3.6533363  17.0422211
  84.3827209  53.3982964  13.1802988  83.5660095  52.8999863  13.1502743
  84.7753601  53.1641731  14.0212803  30.8106651  46.7333794  30.3207779
  30.1306381  47.1546860  30.8464165  30.6958275  47.0984802  29.4434261
  20.2329044  30.8379250  76.9879913  19.7630520  30.0281830  76.7885132
  19.6993484  31.5278187  76.5935364  71.4964676  44.4031487  13.5678062
  72.1925964  44.4386139  12.9117689  70.7571259  44.0019150  13.1110592
  70.1967545  49.5374451  52.1638260  69.4154816  49.8162460  52.6414452
  70.4124756  50.2818832  51.6021271  62.5026054  66.4564819  49.3735619
  62.8563690  66.9090271  50.1392555  61.6619186  66.1070099  49.6691093
  61.0926208   1.7618587  10.4930296  61.9426384   1.7333342  10.9322252
  60.7468987   2.6309218  10.6965857  21.6091900  46.0570564   3.0776210
  22.2729053  46.3759499   2.4660487  21.1510811  45.3681908   2.5961304
  61.4750710  62.3214645  85.2617798  61.6010056  62.5540314  86.1817245
  62.3590240  62.1582031  84.9328308  43.8469925  24.8605938  62.2421684
  43.4012451  25.6478062  61.9293747  43.1384888  24.2676544  62.4925156
  15.7537575  69.1406021  15.7543402  16.7020912  69.0570679  15.6547594
  15.3933058  68.4381180  15.2132101  66.0558853   0.2919450  23.3928699
  65.5941162   0.4830985  24.2092419  66.9626007   0.5454732  23.5655460
  67.8939438  60.3239746  49.1635971  67.5764389  60.9639626  48.5265388
  67.8345032  60.7747345  50.0059242  53.5617371  14.6100073  34.3172607
  52.9585609  14.0333719  33.8483276  54.1490974  14.9444065  33.6394577
  76.7898788  67.0688858  72.9616623  77.5365295  67.3122635  73.5089417
  76.9396286  66.1479340  72.7480011  47.7155380  57.7925568  55.2801170
  48.4890442  57.8182716  55.8433762  48.0651741  57.8445816  54.3905754
  61.3626556  45.6407394   6.0275459  60.5211983  45.3086815   5.7146177
  61.2232780  45.8055229   6.9600973  60.4242325  37.2594185  21.2143574
  61.3134651  37.2544060  21.5685787  60.0233879  38.0458794  21.5845356
  10.0878868  23.6910572  14.3363333  10.1921263  22.9432430  13.7479963
   9.6118145  23.3394146  15.0886202  40.4674759  18.4499092  64.2785339
  39.9526863  19.2268028  64.4968491  41.0030251  18.2912464  65.0558701
  46.3799858  19.0708046   7.1143847  47.0965385  18.6736107   7.6093812
  46.8151321  19.6108093   6.4546299  28.6230125   4.6918321  10.8044538
  28.8360481   4.4093614   9.9150391  28.5595989   3.8785944  11.3053083
  58.4342232  65.1766357  39.2882805  58.5973778  65.7454224  40.0406761
  58.2582703  65.7795486  38.5659447  51.8043442  38.0954056  54.0207443
  51.2608528  37.4235306  54.4323654  51.2079506  38.5587883  53.4326782
  28.6077003  63.5161781  44.0596962  29.0177708  64.1231003  43.4434738
  29.0270729  62.6743507  43.8816948  30.5333672  34.2876015  61.9983788
  31.1740303  33.9385757  61.3787270  30.0490875  33.5191994  62.3004723
  28.0638580  48.3235359  48.3767624  28.4188461  47.7511024  49.0568619
  27.1283092  48.3761177  48.5722466   7.6744452  15.5835447  10.1163960
   8.5385408  15.8530378  10.4277554   7.1191449  15.6132002  10.8954935
  85.0255585  34.1283722  64.6264648  85.4438400  34.8370476  64.1375351
  85.6681442  33.8854866  65.2930450  66.4754562   3.8951232  26.9018269
  66.1315842   4.7528892  27.1512661  67.3128662   4.0863857  26.4794540
  73.3664246  35.0945435  14.4437084  73.7623978  34.2493362  14.6559772
  73.8041840  35.7167664  15.0245981  67.8108902  28.9650173  65.9143524
  67.9815216  29.6936111  66.5112305  68.1568985  28.1969604  66.3688812
  17.4849644  36.3669090  20.4000111  17.0335274  36.4008217  19.5566330
  17.2339725  37.1797028  20.8388767  48.5808029  21.6688232  16.4375687
  47.7021141  21.9904194  16.2357979  49.1660767  22.3581791  16.1237621
   1.2789563  50.0156479  54.0835686   1.8574220  49.4498024  54.5948715
   0.5156867  50.1484795  54.6457138   2.0085948  66.4757080   6.3335338
   1.4783007  65.8597641   5.8279300   1.5693401  66.5293732   7.1823020
  40.5843124  34.9985085  79.5412674  41.1847458  34.3525505  79.1691818
  39.8592300  34.4792213  79.8888702   7.4709678  57.3559151  59.4448013
   6.9369330  57.7433243  60.1383095   7.1568198  57.7699852  58.6410027
  34.5949478  68.1691132  54.9601860  35.3317108  67.5692596  54.8436165
  33.9589081  67.6704407  55.4730339  73.0604935  34.3157272  25.5609894
  72.2332153  34.7777634  25.6965237  72.8733826  33.4110336  25.8114853
  83.8549957  45.6815453  36.5993729  84.4945068  44.9929504  36.7813034
  83.5142136  45.9253731  37.4599838  12.9152117  60.6452980  44.6993294
  12.2466879  60.4198112  45.3462143  12.4513245  61.1734047  44.0496025
  43.1397858  64.3084030   9.3556719  42.2338867  64.4508286   9.6300621
  43.3920670  65.1268616   8.9282265  51.7030144  11.4159756  82.7755203
  52.3849716  10.7613029  82.6252823  51.4387512  11.6922607  81.8979874
  83.9600372  69.5927277   8.5831556  83.3711319  68.8489685   8.7106018
  83.3782501  70.3495712   8.5128126  63.2838974  51.0015945  11.2370567
  63.1989861  51.2765083  10.3241253  63.9281082  51.6036453  11.6095619
   2.4140122  10.1163387  55.8044243   3.1652493  10.2940693  55.2384834
   2.7999582   9.8211536  56.6291313  14.1667395   7.7917552  73.5610123
  14.2343540   8.3492699  72.7858734  14.9876385   7.2996421  73.5744324
  84.8596420  40.7908058  78.5488739  85.0492783  39.8729210  78.3545609
  83.9138794  40.8713455  78.4252701  11.7469797  56.9919968  21.2212181
  12.0239830  57.0947189  20.3107510  11.4398279  56.0871658  21.2774925
   2.7099662  34.8274956  21.5916348   2.0815392  34.3130455  21.0850277
   3.0625398  35.4594460  20.9650879  35.7227249  55.2267685  14.4103861
  35.3733482  54.5692558  13.8088474  34.9610367  55.5258560  14.9069815
  51.3271484  13.8359146  58.2954750  52.2500572  14.0417814  58.4441147
  51.2630386  13.6913090  57.3514366  62.2401733   9.5724411  66.0195312
  62.9749260   9.2314348  65.5095444  61.7889366  10.1676865  65.4209442
  28.8133297  39.2699814  65.8688507  29.1915112  39.7677383  66.5937271
  27.9988232  39.7285461  65.6626282  21.8556023  47.1050568  21.3254509
  20.9818459  47.4952240  21.3489342  22.3096943  47.5764122  20.6269836
  33.0500450  47.0218887  23.3243084  32.5064621  47.2558517  22.5719700
  32.6252213  46.2486000  23.6955032  54.4935112  63.4543343  63.8522034
  53.6491241  63.0039673  63.8319130  54.8630028  63.2321434  64.7068024
  57.8952446  14.2459288  78.3113022  57.4908943  14.0759706  79.1620941
  57.1595726  14.2861414  77.7002335   6.1458912  28.1977997  86.0800858
   5.9673109  27.3655167  86.5178604   5.2826905  28.5911827  85.9521561
  36.0918999  60.4002075  26.5330524  36.3009911  60.1266060  25.6399384
  36.1897964  59.6047249  27.0563622  14.3150368  29.7826405   7.0736675
  14.8683128  29.0862484   7.4274411  14.8774729  30.5571651   7.0706401
  73.7993774  64.7433167  17.4470768  73.0287933  65.2552338  17.6927776
  73.8679428  64.0725708  18.1265144  32.5707779  62.8188095   4.6874366
  33.3943138  62.4365692   4.3842640  32.7714844  63.1596718   5.5590801
  42.2933884  55.9674339   6.0814705  42.7938652  55.9573936   5.2655940
  42.3352585  56.8769188   6.3769617  66.1184616  41.9877663  29.3469982
  65.7275543  42.8063164  29.0413876  66.0279007  41.3879814  28.6065369
  16.9592304   1.0355351  57.7932816  16.8811855   0.4787417  57.0186081
  16.3378925   0.6635231  58.4192047  16.3973904  39.9446373  54.2643661
  15.5910788  40.3338509  54.6029015  17.0938301  40.3469963  54.7833214
  81.4690323  49.6278496  36.5625458  82.1321030  49.2870522  35.9621925
  80.9310150  48.8671913  36.7819939  47.7958946  54.8271523  55.8952827
  47.4802284  54.1266251  55.3244553  47.7742271  55.6112289  55.3466606
  68.8929520   8.7263317  25.8710670  69.7451859   8.3211155  26.0314674
  68.6273346   9.0709553  26.7236576  42.8506050  23.0126076  66.0727692
  43.1328697  22.2154465  65.6243362  42.5948944  23.6066303  65.3670959
  33.7255249   7.8556652  86.9301376  33.0405350   8.3992319  86.5408325
  33.6878777   8.0562429  87.8653259   1.4613844  17.9902000  55.5817032
   1.3310434  17.6746864  54.6874466   0.5896010  18.2610321  55.8695831
  59.8361473  64.3235397  60.9157448  60.2089691  65.0998306  61.3336143
  58.9095650  64.5347519  60.8014297   2.1541142  70.9235840  77.1756897
   2.7772732  71.6377716  77.0421066   2.5727203  70.3588409  77.8253555
  21.8824120  57.1212807  84.3816681  21.5583916  58.0192528  84.3117599
  21.9720612  56.9715958  85.3228378  35.7148438  47.1432304  45.9544640
  35.4529610  48.0608292  45.8792114  36.5026054  47.1627731  46.4978638
  29.2903557  63.4828529  70.3692169  29.7291126  63.8834496  69.6187210
  28.7078762  64.1669464  70.6993179   3.4601328  23.1216507  61.2746544
   3.5540571  24.0086098  61.6220932   3.1555893  23.2474594  60.3759575
  73.1154633  31.4120998  48.3436966  73.7483368  30.7415657  48.0866318
  72.2919235  30.9359570  48.4500198  21.1002750  60.6369324  80.1711960
  20.2362747  60.2337112  80.0866470  20.9179115  61.5481453  80.4006805
  41.6205254  45.6271935   0.6925743  42.5255394  45.3165245   0.7184892
  41.4436874  45.7724762  -0.2368630  22.5540276  24.1931248  76.4680176
  21.9199543  23.6380482  76.9219742  22.1016121  24.4718266  75.6718521
   7.0834851  49.8490410  44.2710953   7.0259409  48.9477844  44.5883598
   7.8407178  49.8489571  43.6855774  62.2597847  11.9463644  10.9948683
  62.6823997  12.1686172  10.1652727  61.8759727  11.0825119  10.8442669
  44.0838623  37.2885475  66.2703094  44.9351883  36.8653488  66.3815536
  44.1761055  38.1322098  66.7129822   4.5658917  52.3420525  68.2511673
   5.0015945  51.7734375  68.8860474   5.2668924  52.8922920  67.9017868
  80.0973663  19.2360725   3.6499019  79.6995544  18.3659039   3.6219146
  80.6913757  19.2521133   2.8994801  83.0850143  48.0840874  20.2789936
  83.7048187  47.3691216  20.4235554  83.6097412  48.8789330  20.3744831
  13.9732943  59.0360146  67.7979126  14.8636913  59.1538048  68.1288910
  13.6659193  59.9240952  67.6160812  46.8344955  56.4739418  26.4760780
  47.7342567  56.5922623  26.7804852  46.8420486  55.6272125  26.0297337
  14.6665239  68.6465988  42.4648743  13.8524227  68.1445312  42.4275208
  14.9184427  68.6260529  43.3881035  50.5147209  31.1967850   8.9875288
  49.6504173  31.6022263   9.0569820  50.4596329  30.6478882   8.2052832
  40.9407272  12.0960360  86.1727982  40.0948029  12.5056143  86.3541565
  40.9446259  11.9641333  85.2247391  66.7762375  22.6552372  16.4501266
  66.9910736  23.5857048  16.3844910  67.1219864  22.2721443  15.6439466
   2.2787976  14.8522959  78.8498306   2.2252848  13.9369345  78.5750961
   1.5320805  15.2740269  78.4246368   3.7317958  42.4392853  65.0447388
   4.0700788  43.2612419  65.3999634   2.7964025  42.4579086  65.2470398
  58.1434250   4.0094070  24.6228542  57.6981812   3.2089190  24.3449860
  58.2793388   4.5013142  23.8130474  15.9859705  63.9244308  54.9783859
  15.5869465  64.3677216  54.2297134  16.2786236  64.6348419  55.5492630
  85.2500534   9.0617981  29.2906208  85.7540054   9.7177486  29.7722759
  85.9118500   8.5019264  28.8846684  15.8619385  66.1356049  66.3135376
  15.8012314  65.6307449  65.5025711  16.4852943  65.6487656  66.8526535
  77.3066025  24.0581551  83.5659103  76.6387253  23.5222759  83.1381226
  76.8558655  24.8740883  83.7834396  12.9551878   8.5182571  77.8010864
  12.9411020   8.1502771  78.6846161  12.6494303   7.8056250  77.2399216
  78.7786026  59.2155495  63.8875732  78.4418793  59.6297989  64.6820831
  78.6780624  58.2768898  64.0458145   9.3608475  35.4476509  63.4430084
  10.2752895  35.1722603  63.3782921   9.1304684  35.2996216  64.3602066
  19.6507206  58.2318344  15.1293983  19.3892803  57.6689529  14.4006701
  20.2034206  58.9022903  14.7278442  21.7879124  20.1765881  74.9440079
  22.6308842  20.3578129  75.3596878  21.9880352  19.5273972  74.2696686
  17.5956554  26.2178707  84.3993683  16.6657257  26.3775520  84.5605011
  18.0191231  27.0545654  84.5913315  32.4767265  23.5193520  76.7643661
  33.0887108  22.8243275  76.5221939  32.0661583  23.2067852  77.5705719
  77.5928345  25.8900318  73.7638474  78.3054962  26.3250961  74.2318954
  76.9788437  26.5939255  73.5546112  69.6127090  48.2368431  15.7000551
  69.0720520  48.5280190  14.9657927  68.9940033  48.1178474  16.4206657
  27.0470314   6.0938458  55.5726280  26.2122841   5.8113976  55.1989288
  27.5399666   6.4356499  54.8266945  59.7328644  61.7092285  49.0559845
  59.2910881  62.3082047  49.6578941  60.1282654  62.2801056  48.3972054
  62.9430351  12.6390734  48.3793297  62.0172424  12.8755636  48.4359894
  63.1418228  12.2444124  49.2284241  22.0156631  70.3045197  43.9560547
  22.7424068  69.7944717  43.5983925  21.6082077  69.7231979  44.5981407
  59.1334343   6.4652390  30.4042282  58.7251320   5.7276688  30.8575611
  58.9498253   6.3084173  29.4779854  78.7368011  25.5975151  23.0123539
  79.1931915  24.7958431  23.2678146  78.3273773  25.9077854  23.8200302
  34.1755867   5.6314378  58.9308510  35.0079498   5.1809931  59.0740280
  33.5283623   4.9280915  58.8794899  59.2995338  23.0088291  36.2384567
  58.7716675  22.4408379  36.7996826  59.6786270  23.6520252  36.8374710
   7.4223475  39.6495667  84.8490601   6.9405890  40.4668427  84.7217789
   6.8879333  39.1501884  85.4665222  10.2693291  47.5980988  14.7477140
   9.5446758  48.1671371  14.4882812  10.7969294  47.5054283  13.9544411
  46.8381348  39.8459549  73.1195908  47.6270103  39.3134651  73.2213898
  46.2007027  39.2554054  72.7181320  34.2590752  36.1211166   5.1813798
  34.9805870  36.6897430   5.4502897  34.0785980  35.5825691   5.9518523
  20.0795441  14.5660830  67.4592819  19.2583122  14.0958242  67.3155212
  19.8306828  15.3284369  67.9818878  19.3115768  69.1716995  63.6717911
  18.5191917  69.0311813  64.1900711  19.1220932  69.9524384  63.1514244
  60.6991463  11.6185074  31.5744019  59.8777580  11.8104019  31.1219330
  61.3545418  12.1420937  31.1133766  40.1347847  51.4119682  87.2927170
  39.9397964  51.7036476  86.4021301  39.4120560  51.7524986  87.8199081
  68.2153168  64.8136368  43.9540253  67.8597946  63.9651871  43.6894989
  67.4476776  65.3269730  44.2059250  53.7891045  14.9438667   9.9700022
  53.7667694  14.2113600   9.3542366  54.6534004  14.8879051  10.3775444
  76.0748978  58.5237999  68.3194427  75.1857300  58.5852470  67.9703903
  76.5721970  59.1745415  67.8240051  77.6692810  65.3104553  42.3227348
  77.7515335  64.3701553  42.1636772  77.1239166  65.3739319  43.1068153
  20.5718498  66.9114685  43.0996552  20.8013973  66.4162064  43.8859482
  20.0852528  67.6680984  43.4267120  28.9077015  36.7091942   3.4419973
  29.6482906  36.1226120   3.2881081  29.2893429  37.5868187   3.4231696
  62.7225456  30.4000835  41.7981873  63.2321930  30.9029617  41.1628914
  63.2217789  29.5925770  41.9203644  82.4120712  47.9712563  67.4208908
  81.9222946  48.7931671  67.3925400  82.0047836  47.4263802  66.7474976
   3.0925963  65.8330917   0.1369686   3.4059942  66.6130371  -0.3209616
   3.8789876  65.4531860   0.5287494  59.6379395  18.6090736  55.2009697
  60.2561493  18.9728680  55.8347740  59.8791656  17.6851711  55.1342697
  14.6053619  64.8549194  43.8041954  15.5247116  64.7522049  43.5582733
  14.6286316  65.3802948  44.6039925  78.4139557  51.0296516  34.7167168
  78.9946060  50.6969986  34.0323029  77.7729340  51.5641479  34.2480621
  77.4029770  23.0786362  20.9721775  77.4226608  23.2267075  21.9176502
  76.6220245  22.5438042  20.8297119  18.7565670  61.1441345  59.4267960
  17.8876457  61.2331581  59.8183098  18.6608982  61.5072479  58.5463257
  54.0056038  54.4665375  25.5148525  53.9277191  55.3766098  25.8010826
  54.9484711  54.3178215  25.4432964  76.4613495  10.7693005  19.2270393
  76.6055374  10.5425186  20.1457405  75.5211182  10.9383078  19.1667786
  77.8664398  19.9549465  84.2219238  78.5512466  19.4596176  83.7725830
  77.1238937  19.3524246  84.2646561  68.8599777  57.0450706  15.9126930
  69.1368408  57.9018288  15.5878172  69.6619797  56.5226707  15.9241905
   8.3126421  14.2206221  72.9334793   8.2732382  13.3708429  73.3722839
   8.1505661  14.8573666  73.6295547  34.9003716  52.8537025  37.2094994
  35.1695518  51.9965706  36.8792000  35.6795998  53.4017639  37.1163979
  69.8158569  29.8088055  87.0835953  70.5286713  30.2158222  87.5760040
  69.8743134  30.1984997  86.2112656  14.3262167  39.9800720   6.6186080
  14.9598970  39.3379555   6.9385514  14.3974066  40.7124176   7.2308450
  83.7959824  50.5861778  71.0054245  83.2118378  50.0412178  71.5326996
  84.6742401  50.3656502  71.3156815  60.2936401  19.7367268  32.1837463
  59.8964310  20.5353260  31.8363361  61.1030579  19.6344566  31.6831303
  14.9335966  26.8211899  12.1166067  14.1019688  27.2603531  12.2948256
  14.8234034  26.4448318  11.2434263  44.2536964  52.5732994  54.5509834
  44.1166115  51.6641464  54.2847595  44.5873642  52.5130424  55.4461174
  46.4638062  59.1722145  79.4206619  47.1256943  58.6576424  78.9587555
  45.8692017  59.4706688  78.7324753  83.6442490  39.9830170  32.5458183
  83.3597031  39.9467888  33.4590302  83.9194183  39.0884781  32.3450241
  73.8552475  11.1009216  32.1756821  73.2761307  10.3936472  32.4596214
  73.2720642  11.7351856  31.7587337  15.7770662  15.0239258  86.9235535
  15.0028105  15.2892151  86.4271851  16.3838463  14.6922760  86.2616882
  26.7584534  10.7573338  54.9241982  26.4255638  11.5896816  54.5886192
  26.0672131  10.4396639  55.5051498  21.0684872  50.4984779  86.2452011
  20.3249741  50.4480324  85.6444702  20.9516869  51.3318176  86.7014160
  84.9832840  54.4123573  66.2781677  84.4156799  55.1594429  66.0886536
  85.8652496  54.7831383  66.3080063  27.0065765   7.7032962  20.2963982
  26.3520546   7.2112617  19.8006821  26.5177479   8.0848923  21.0255508
  80.6313324  16.6118660  15.1724691  80.0971680  17.0927181  15.8046694
  81.1040726  17.2916508  14.6922150  80.0432205  19.9651852  34.6110191
  79.8279190  19.5075283  35.4236870  79.4779892  20.7376728  34.6141930
  36.7164688  54.9590759  21.7686138  37.2440605  55.3973160  22.4363117
  36.7668686  55.5362053  21.0066319  23.0473022  69.0773621  53.2389641
  23.2677402  69.5779800  54.0244751  23.6914539  68.3696671  53.2173538
  73.0989990  57.5139275  55.4587288  73.1878357  58.4472122  55.2655411
  73.9038010  57.2882309  55.9251976  17.1856937  59.9540825  42.9817047
  16.3725204  60.4584618  42.9575157  17.8160820  60.5362167  43.4059258
  37.9888039  56.0892067  13.3438072  37.1292496  55.9005013  13.7203503
  38.3794136  56.7237701  13.9446297  55.8883400  19.7519703  45.2426186
  55.5660553  18.8511009  45.2708473  55.1884193  20.2693367  45.6409607
  38.8870735  54.9351273  43.2268219  38.5893364  55.1515045  42.3432083
  39.7947960  54.6540642  43.1115913  73.3306274  50.4764023  58.9600449
  73.1310501  49.6763077  58.4739914  73.1790161  51.1824455  58.3317528
   0.1892910  22.3256264  54.3922844  -0.5593914  22.8919411  54.2052193
   0.8791383  22.9260921  54.6747437  45.4446983  39.1033516  37.6035004
  45.1840134  39.8274841  38.1726303  46.3530922  38.9234009  37.8457184
  38.3180389  40.9698029  24.2289219  38.3770027  40.3633423  24.9671383
  39.1375847  41.4634628  24.2584515  67.9852142  35.7290611  78.1528091
  67.6672668  35.0622902  77.5440750  68.9227600  35.7922745  77.9704895
  37.2337685  56.6310997  55.1359901  37.6055946  57.2460861  55.7682686
  37.1523628  57.1380730  54.3281631  31.7257767  51.2893600  88.6242828
  31.4514599  51.7569389  89.4131775  31.3037071  50.4331055  88.6944122
  50.3916626  17.2653351  53.1565437  50.5550461  16.6120682  52.4762650
  50.5920334  18.1024418  52.7378120  12.2629633  65.7628937  28.0726566
  12.3950195  65.0458832  27.4524212  11.7862587  66.4263382  27.5738335
   9.0588770  60.7915115  56.8209839   9.4375353  61.4224205  57.4331932
   9.5672159  59.9918022  56.9562263  69.5340881  31.1312027  33.2179527
  70.3831940  31.3487377  32.8333473  69.2268372  30.3798332  32.7107353
  23.9743576  22.1132221  56.0543327  24.7283592  22.6796646  55.8904533
  23.2704010  22.7153091  56.2955093  65.4570541  64.8630447  28.0261383
  65.5119629  65.7698517  27.7246075  64.6707458  64.5173645  27.6037006
  44.0318909   3.1414266  86.1056290  44.6882439   3.8378787  86.1254044
  43.9586029   2.8554614  87.0161743  50.6992302  46.7421951  53.5518417
  50.0634003  46.1067543  53.2229538  51.5156898  46.5168152  53.1059341
  83.2230072   9.0484762  45.4202385  82.9967194   9.6825161  46.1006966
  84.1641159   8.9093037  45.5259628  39.3822975  53.9275017  31.7978039
  39.6749458  54.6747398  32.3195534  39.9472046  53.2060928  32.0747223
  16.7833405  16.4277821  23.9040871  15.8780155  16.4910107  24.2084255
  16.7730789  15.7116556  23.2690334   4.0546727  45.5549469  23.3536377
   4.2222886  45.1151619  24.1871376   3.6422606  44.8851967  22.8081284
  50.2435417  60.0221863  82.4902344  50.7846336  60.7584763  82.7754135
  49.5650139  60.4205818  81.9451523  80.4464722  63.0082245  13.7993021
  80.9659653  63.2260284  13.0254059  79.5829391  62.7837143  13.4526920
   4.9341836   3.9512360  85.1038742   5.4536633   4.1159029  84.3169479
   4.2576165   3.3365188  84.8199539  72.6106186   0.8982455  34.7245331
  72.4393158   1.6993723  34.2294769  72.5928040   1.1744908  35.6408310
  39.5092278  48.0234261  13.5177364  39.7076225  48.2618294  12.6121778
  39.4452362  47.0684471  13.5054750  32.0307083  46.7741966  68.3642731
  31.9678860  45.9606056  68.8646317  31.4396744  47.3781395  68.8138962
  85.1195526  34.2310066  18.6703873  85.9485931  34.6557961  18.4502087
  85.3391724  33.3025131  18.7472229   2.2960956  51.3672333  21.1696491
   1.4016997  51.0263062  21.1622887   2.5808477  51.3123665  20.2574348
  26.5410233  20.1163368  85.5464706  26.2371788  20.6359692  86.2907104
  27.3933830  20.4911995  85.3246765  57.3953781   4.5846624   9.4023457
  57.0282822   5.4567332   9.2575598  58.1949196   4.5709906   8.8762474
  15.2293520  37.5375290  53.1145782  15.5626574  38.2084236  53.7104301
  14.4279099  37.2226601  53.5326462  24.6512680  32.9285774  84.1341629
  24.1587257  32.2299805  83.7033539  24.5464859  33.6858482  83.5581512
  63.3683662   0.0689736  32.5962753  63.2147408   0.7556016  33.2452545
  63.0566597   0.4438886  31.7725582  82.1775513  37.4411507  38.2942390
  81.7113190  37.8863564  39.0018082  83.0752487  37.7675018  38.3563919
  58.5433083   1.0336993   2.2342157  59.0741501   0.3012162   2.5471170
  57.7758598   1.0348799   2.8062756  45.4961624   8.9973555  13.3431587
  44.5857582   9.2880983  13.3966866  45.9862213   9.6516800  13.8410845
  82.7562561  46.1789932  42.8667297  83.5057602  46.5666389  43.3186226
  83.0621796  45.3139648  42.5940323  66.1012878  31.4006958  17.8398552
  66.7389603  32.0905075  18.0235958  66.4289627  30.9767056  17.0467014
  77.5113144  28.5891552  28.8274632  77.9210281  27.7799263  28.5216694
  76.7276535  28.6805038  28.2854614  29.4791374  32.8612022   0.6371395
  28.7631016  32.2451935   0.4820335  29.9864483  32.4652710   1.3457323
  11.0941467  46.8991661  18.5636597  12.0060539  46.7822113  18.2972393
  11.1233988  46.9081383  19.5203705  85.5997772  45.9421349  26.7427940
  85.9540329  45.8415756  27.6263218  84.7194595  45.5697632  26.7939014
  77.1474457  10.4171515  11.2426071  76.4724045  10.5540190  10.5779123
  77.1107407  11.2037735  11.7867680  81.9394989  12.7566242  33.6272316
  82.1036072  13.1302738  34.4930763  82.3114014  11.8757687  33.6720886
  12.2694445  15.1695004  25.9494457  12.4355850  14.5668011  26.6742783
  11.6297140  14.7146912  25.4016094   9.0843554  24.7253685  72.2281113
   8.3021755  24.5689106  71.6990128   9.4448538  23.8529053  72.3864746
  59.8997612  65.1231308   3.4883597  59.0693436  64.7425232   3.7743344
  60.4897537  64.9965134   4.2313981   2.6477251  53.4157524  73.6446609
   1.9756582  53.9350471  74.0861206   3.4356277  53.9576149  73.6874161
  63.0567970  37.7016525  82.5214233  62.9983635  36.9051514  83.0490646
  63.9931145  37.8105888  82.3550644   8.7187996   6.6891394  85.8906403
   8.4007301   7.5744572  85.7137909   8.0229921   6.1159282  85.5689011
  45.8529396  70.9156952   3.8551629  46.4479752  71.5465469   3.4499586
  46.0016365  70.1023026   3.3729646  75.4254227  27.9522038  42.8460236
  74.6942978  27.3994713  42.5700188  76.1855545  27.5880699  42.3923340
  50.7429466   2.4149826  80.9899750  50.8041306   3.3598943  80.8498688
  51.2243538   2.0324140  80.2564087  55.8120804  55.1371574  85.3500824
  55.2775574  54.3630753  85.1731339  55.4053268  55.5386848  86.1179047
  51.9949913  18.6077709  30.6699619  51.6571846  18.2222805  31.4783649
  52.2427597  19.4992790  30.9150181  81.9463654   7.3551512  88.4917984
  81.5048141   7.4229126  89.3383636  82.6883087   6.7726974  88.6545868
  11.7535143  58.2503433  30.1192074  10.8020411  58.2552757  30.0147686
  11.9985819  57.3286018  30.0381870  83.8574066  20.9757328  82.2775955
  83.4118958  21.4355297  81.5660248  83.3230362  21.1561985  83.0509720
  54.1163406  60.5836792  86.0816727  54.8115921  59.9488220  86.2543335
  53.4959488  60.1138268  85.5243759  64.5969162  21.5140553  72.8098679
  63.6585884  21.4050636  72.9644318  64.7567062  21.0648174  71.9798737
  44.0920219  54.9533005  72.8802032  43.5786400  54.1958275  73.1611099
  43.5492630  55.7082024  73.1077194   0.0628303  61.9087143  24.2011814
   0.7203059  62.4132080  24.6801853   0.3769835  61.0054855  24.2426510
   9.8418207  51.5698166   1.8548042   9.9025564  51.4102287   2.7966504
  10.0323763  52.5027657   1.7571806  62.6477547  16.2235851  71.9331207
  62.5956993  16.2201118  72.8888931  63.3154488  16.8793011  71.7319946
  51.2691269  62.3114586  83.2163544  51.1716805  62.7059593  84.0830154
  51.0451164  63.0144997  82.6066132   6.6193323  12.4496746  76.0721512
   7.3105783  12.1744738  75.4699249   7.0370374  13.1024199  76.6340027
  24.0159111  48.7189865  54.0501823  24.0266151  49.5230026  54.5694847
  23.2434692  48.8049965  53.4914627  32.0678787  66.2636414  18.6448231
  32.6400185  65.7351837  18.0883865  31.9712353  67.0904312  18.1722584
   9.0195732  50.6295433  66.0207291   8.3332100  50.3741455  66.6371002
   9.8371849  50.4246178  66.4743271  70.1259918  59.6968231  78.1240921
  69.2434769  59.8826065  78.4448471  70.2274323  60.2641525  77.3598480
  60.3771248  49.9432259   2.9641752  59.5347481  49.4981842   3.0567451
  60.1970749  50.6769028   2.3763566  65.1602936  64.9975891  72.7466583
  65.0784836  64.3503647  72.0462036  65.5495300  64.5140381  73.4752960
  43.2044296  53.4113884  34.9223099  44.1343269  53.5119209  34.7188034
  43.0876732  53.8817902  35.7477341   2.8526645  40.9107399  73.7217560
   2.7837334  41.5618210  73.0234909   3.0679400  40.0955009  73.2686768
  23.2493343  49.0746918  86.3778839  22.3674469  49.4203758  86.5157547
  23.5861263  49.5687981  85.6304474  10.7076721  13.1174212  24.8390236
  11.0838614  12.7874374  25.6550045   9.7686605  12.9524117  24.9242401
  61.6578712  55.0901909  33.6392860  60.7408676  55.3625450  33.6051903
  61.7023964  54.4916687  34.3849525  50.6802368  28.6558800  74.6836472
  51.3833885  28.1271801  75.0608521  50.5485039  29.3640556  75.3140106
  85.2931900   1.9952912  40.5024452  85.1739807   2.8358369  40.9446068
  84.8614349   1.3605400  41.0742073  41.8271370  10.5856009  77.8171616
  41.7003555  10.5981293  76.8684845  41.2833862  11.3037329  78.1409760
  10.4661751  66.5738831  61.8896904  11.0553551  66.3581238  61.1668167
   9.8790379  65.8205719  61.9531403  54.2423325  71.3395767  24.2494507
  54.0750008  70.7176285  24.9575558  53.7742081  72.1323471  24.5113716
  59.1614304  50.6843987  53.2157211  58.3223877  50.3450165  52.9041824
  59.4491920  51.2820129  52.5255852   4.3205323  22.1212025   0.6642891
   4.0409417  21.6781559   1.4653950   4.7301259  21.4327755   0.1403295
  58.1576691  23.8477097  55.6606598  58.0869446  22.8933048  55.6791382
  57.7399178  24.1029510  54.8381233  77.9734726  11.1900349  75.1290436
  78.9249573  11.2741585  75.0672150  77.6850357  11.0628757  74.2252350
  53.8864555  20.1432228  58.3879051  54.4772949  20.8944149  58.4412956
  53.8155212  19.8297386  59.2895279  75.2651138   9.7589645  59.1060638
  74.3138733   9.6706829  59.0462379  75.5996246   8.8835363  58.9112320
   6.4023867  32.0821571  78.7860641   6.1044626  32.1913795  77.8829880
   7.1151838  32.7139015  78.8811874  85.5410233  42.0511284  29.3383636
  84.7882919  41.4603920  29.3126431  85.6254196  42.2915077  30.2610378
  18.9574738  12.6687155  84.1915894  19.4956131  12.2094040  84.8363113
  19.3025494  12.3842268  83.3452911  40.9044418  28.9329643  74.1237793
  41.7253113  29.2014217  73.7110672  41.1026917  28.0855961  74.5223999
  26.3283634   3.5861573  24.0242367  26.8586769   2.8503807  24.3302307
  25.8287697   3.8578684  24.7941780   0.9160208   6.6640821  79.5168228
   0.1149119   6.3317242  79.9217834   1.0308344   7.5364170  79.8937607
  55.5914726  69.4315948  20.8095722  55.0411758  69.5126572  20.0305767
  55.8223953  68.5033112  20.8441486  78.0814285  25.3207798  18.0680141
  77.7265549  26.0464058  17.5544376  78.0676651  25.6373730  18.9712372
  20.3667908  37.7092285  14.9679718  20.2144718  37.2682381  14.1321726
  20.0459175  37.0926476  15.6260738   1.7586355  10.9610319  63.3709526
   1.2226659  10.5419645  62.6976395   1.8624202  10.2905321  64.0461502
  38.0760307  37.8902588  78.1842499  38.6542969  37.3722229  78.7441406
  37.2794342  38.0038986  78.7026596  73.8455811  33.8650665  49.5183945
  73.6219635  32.9405365  49.4112854  73.1150208  34.3361664  49.1176605
   4.8803029  48.2397652  38.5059395   5.7911782  47.9749680  38.3778076
   4.4166946  47.4224701  38.6884956  68.6865616  37.2502823  60.0111427
  69.2617493  37.0667419  59.2683754  68.5099640  36.3915062  60.3952599
  76.9342117  17.1649971  47.2063904  75.9913940  17.0749664  47.3450279
  77.0309448  17.2361050  46.2567482   0.3065446  12.5937977   8.2812996
  -0.2592570  11.8221788   8.2547426   1.1804105  12.2569456   8.0835094
  10.9149771  27.5612335   8.9244108  10.5425062  27.7947598   9.7746840
  11.3133526  28.3715515   8.6067410   5.6312752  70.5785294  77.2219543
   5.1005034  71.3346939  77.4724045   6.4169040  70.9573898  76.8276443
  40.4625778  61.2546425  24.3751774  40.1096916  62.1037827  24.1093464
  41.4114342  61.3551331  24.2990055  14.0894022  48.9283791  69.3669968
  14.4481516  49.5281105  68.7128983  14.6303396  49.0698738  70.1439133
  62.9279785  69.2422943  49.3050385  63.8034744  68.8924408  49.4703941
  62.6643753  68.8455276  48.4747849  64.1062851  39.1805763  70.3599014
  64.0038986  40.1322784  70.3628845  64.3583374  38.9696159  69.4609070
  68.2283325  55.0242233  74.2052002  68.7335434  54.9727058  75.0165863
  68.1552048  54.1164474  73.9105377  21.9781895   7.3460331  67.1175919
  22.0486507   7.7763720  66.2654877  22.8278599   7.4953547  67.5323105
  84.4868774  46.7583656  24.2906532  84.7900238  46.7585220  25.1985798
  83.5523376  46.5600510  24.3502140  75.8973083   4.7473764  20.4014645
  76.6444016   5.3398304  20.3172760  75.4190445   4.8465261  19.5782623
  36.6605110  15.3976784   4.9716473  37.3597336  14.7669640   4.7998457
  36.5821304  15.8958855   4.1580877  58.8166542   4.4884901  19.8080177
  59.1085129   3.8168464  19.1916199  57.8624916   4.4850526  19.7319126
  32.8159142  33.4881897   6.1822810  32.9438744  32.5418663   6.1164761
  32.1702805  33.6902428   5.5051074  21.7516346  67.5392151  11.1523542
  22.7049103  67.5584946  11.0679264  21.5075359  66.6465530  10.9078236
  56.8419495  65.9554291  62.5705681  56.2625542  65.2362442  62.3189659
  57.3596840  65.6037445  63.2947884  34.7701797  43.3809319   5.5722675
  33.8801308  43.1925697   5.2746682  34.6984901  44.2210960   6.0252748
  14.5974703   2.5782137  58.5974731  15.0769749   2.2172120  57.8518295
  14.6449823   3.5265322  58.4763641  76.5535278  38.0510635  19.9042015
  76.8290939  37.3452225  20.4890766  76.2151642  38.7287216  20.4894562
   7.9156528  54.5381470  24.6742840   8.4173937  53.9299431  24.1315365
   7.1382594  54.0431023  24.9327831  84.3822479  42.4513168  57.2846832
  83.4806519  42.5472221  56.9778175  84.3574829  42.7434921  58.1958656
  64.7007599  52.8947029  87.0413666  63.7462502  52.8236465  87.0316696
  64.9612579  52.5078888  87.8772736  51.5401802  17.9069786  58.2384262
  52.2853165  18.5077991  58.2343025  51.9351425  17.0358086  58.2744408
  85.0638199  66.3951721  10.0375214  85.6298904  66.7329254  10.7315817
  84.3088455  66.9836044  10.0365992  33.4499397  41.3266792  83.3321838
  33.6161079  42.1688080  82.9085770  34.1148911  41.2683296  84.0182343
  10.2565203  14.0506697  22.1791420  10.6571436  14.9158373  22.0941830
  10.5963402  13.7095613  23.0064259  75.5713730   2.1982005  64.3920288
  75.0158920   2.6840000  63.7823792  76.2824554   1.8579451  63.8490562
  76.0754700   4.9248009  56.7463379  76.2329559   4.8246098  55.8075142
  75.3394394   5.5342178  56.8020325   3.3654280  55.5986671  23.1585808
   3.6601033  56.4353561  23.5182323   3.3726168  55.0008125  23.9060764
  17.2747173  41.9340248  67.2839050  16.6877613  41.3924446  66.7562637
  16.7075443  42.6091766  67.6563492  40.4385109  58.9980774  36.2411118
  41.2027893  59.1064568  35.6751022  40.0243454  59.8609657  36.2521400
  41.8088570  27.3995342   3.3007400  42.3165092  28.1026745   2.8956313
  41.5102959  26.8650875   2.5648994  16.5792122  18.5646706   7.5129180
  15.6951990  18.7248287   7.8432212  16.4794502  17.8292274   6.9084311
  10.7271786  52.2315292  14.6714745  10.6929464  51.4439964  14.1284704
  11.0696449  52.9094391  14.0889034  63.4150581   1.1978761  30.0657024
  63.0960312   1.8368024  29.4283428  63.7734222   0.4873524  29.5337582
  65.0336533  53.4407806  29.1621075  64.2319031  53.9619293  29.2049980
  65.3652878  53.4371643  30.0600147  39.5568237  36.2617035  13.2920122
  40.4541206  36.1100464  12.9952106  39.5261993  37.1968346  13.4940557
  68.6165237  41.6800156  72.3207779  67.6763763  41.8577385  72.3485794
  68.9726410  42.3628044  71.7522659  43.2717552  38.7570763  58.5063667
  43.8133507  38.0507851  58.1541481  43.8969917  39.4398499  58.7495422
  47.2586708  41.1407623  80.1371689  47.9875107  41.7463531  80.2723923
  46.7185898  41.5615540  79.4682312  37.2025986  55.5362816  47.5382347
  36.3985062  55.7346687  47.0583305  37.7157059  54.9994240  46.9342995
  15.6353712  64.5192719  -0.1901347  15.6152706  65.4583359  -0.0057978
  16.4116154  64.2012558   0.2708859  72.7288971  61.7407684  41.3444824
  73.5463028  61.6470299  41.8336601  72.9260406  61.3846359  40.4781494
   4.7048202   8.5163574  32.4629021   5.3453255   7.8265243  32.6364365
   5.0938954   9.0323133  31.7567558  37.8422890   9.6661386  82.0032501
  38.7788963   9.5869389  82.1841736  37.7602997  10.4886580  81.5205841
  70.6926193  57.5255852   0.5018911  70.0596008  56.8531761   0.2501094
  70.2195053  58.0793800   1.1229452  60.5145721  48.5796547   5.6171937
  60.2455826  48.7069855   4.7074342  61.4348869  48.3225441   5.5610986
  38.3624229   4.7106729  14.3446770  37.4690781   4.9986668  14.5323668
  38.3469810   3.7661242  14.4990168  51.0757866  19.0423660  28.1118183
  51.8976631  19.3603344  27.7381229  51.3264923  18.6635132  28.9543419
  14.8880262  67.2184677  88.3315582  15.3500166  68.0466690  88.4614944
  14.5277967  67.0074539  89.1929169  63.2541771  59.1405602  39.7912445
  62.8206139  59.8902588  39.3835640  63.8897362  59.5291710  40.3923149
  64.0873566  63.5689125  75.6639786  63.7150612  64.4484863  75.6009140
  64.7281570  63.6302872  76.3723907  26.8743782  22.5679245   1.3720825
  27.3866119  23.3544903   1.5595999  27.5238991  21.9165974   1.1072675
  30.3707047   4.4879246  82.2380142  29.9726486   5.1991773  82.7399139
  29.6343651   4.0657415  81.7955246   6.0626431  52.9293175  37.7598114
   6.1139951  53.8796883  37.8617134   5.1592555  52.7659531  37.4888229
  85.3706512  27.0089703  17.9088383  85.6253738  26.9691372  18.8306618
  86.1299744  26.6688061  17.4356117  22.6025314  62.6853752  77.7362366
  21.7054710  62.4284668  77.9495697  23.0295849  61.8695679  77.4748688
  48.0129738  41.2319107  63.7271118  48.7668114  40.6723061  63.5405502
  47.7186890  40.9557915  64.5950928  42.0650177   4.9545908   6.6746740
  41.9478455   4.8873148   7.6222901  43.0123329   4.9058585   6.5464158
  29.6960430  63.7392044  18.9654808  28.7874432  63.4494438  19.0474358
  30.1105862  63.4615784  19.7823715   6.6029091  67.1442261  52.9295273
   6.3124170  67.6791229  52.1907959   5.9192681  67.2565308  53.5900230
  62.2471085  54.3901520  22.4170914  62.5631981  53.7846870  21.7464733
  62.7718430  54.1855087  23.1910458  48.5363693  62.3757858  88.7674713
  47.9276352  61.6371040  88.7722397  48.8141441  62.4513512  87.8545837
  57.0517540  60.9243469  79.5449905  57.5388489  61.0560570  80.3583908
  56.4879532  60.1714897  79.7226715  73.0973969  44.6382370  74.5593643
  73.3841705  44.3338699  73.6983490  72.7293015  43.8601570  74.9780807
  65.5892868  37.5780220  82.0478973  66.2979202  38.1712265  81.7985382
  65.9971008  36.9589081  82.6533890  15.8606968  26.4178505  65.0823135
  15.8829412  26.4084473  66.0392075  15.0446281  25.9710464  64.8573074
  84.7382278  56.9991112  28.9393406  84.0560608  57.5987244  28.6371040
  84.8496323  57.2106895  29.8661938  56.5968895  33.3103218  48.9373016
  56.0096664  33.9283371  48.5020370  56.9416466  32.7675476  48.2282372
  68.0752029  22.4605122  76.4028015  67.8504333  22.8295135  77.2569427
  67.2310562  22.3090172  75.9777069  29.9455776  48.9759102  67.7768097
  29.8414402  48.4643631  68.5791245  29.4730244  49.7903290  67.9489899
  52.4693565  31.5442791  75.4958115  53.2976532  31.1394081  75.7531815
  52.4747925  31.5134964  74.5391235   7.2433033   1.5669734  32.1630669
   6.3598413   1.2164618  32.2765045   7.7642407   1.1250187  32.8335381
  42.0779419  46.5811043  72.7628632  41.7225304  46.1273727  73.5270920
  41.3063736  46.8716393  72.2765427  15.1894426  62.4243851  44.9299316
  14.8113928  61.6605301  44.4942284  14.7553711  63.1728630  44.5205536
  27.8830204   8.7130194   6.1536155  28.3282166   9.4322491   5.7055736
  26.9912987   8.7297277   5.8060760   5.5586843   0.1867058   6.2910480
   5.6713881   0.1802348   7.2415676   6.2487712   0.7682669   5.9719882
  24.6780720  39.8566551   5.9697609  25.3189583  40.3727264   6.4588079
  25.0346203  38.9683418   5.9711232  49.1934242  33.3284531  87.0217590
  48.4297104  33.5816536  86.5032349  49.0962753  33.8110733  87.8426514
   1.3477069  11.8324366  82.1285477   0.6145267  11.9955902  81.5352020
   0.9513004  11.4031897  82.8867264  17.8119411  70.2327805  85.2004471
  17.2252026  70.5159073  85.9017410  18.6756210  70.5452576  85.4699860
  71.3433380  26.3827705  29.8760586  70.6725616  25.9215527  29.3724957
  72.1710052  26.0174370  29.5634480  35.4549446  51.3897095  29.5591640
  36.3510895  51.1059494  29.7398071  35.1553116  50.8071098  28.8612900
  20.1322231  51.5160484   9.6383238  19.4360790  51.0369949  10.0879059
  20.5786648  51.9987259  10.3339834  63.0844650   5.2818341  46.7189522
  62.7075386   5.6416483  47.5218811  63.2077026   6.0420952  46.1505814
  44.6404343   3.0104120  14.4171791  45.5434113   2.8564456  14.6949625
  44.1585274   3.1453209  15.2331429  19.2783718  31.2260303   6.1173530
  20.1190186  31.6746826   6.0264945  19.5069637  30.2982845   6.1744714
  54.8088951  22.7057705  58.2051315  55.1294212  23.5438251  58.5385361
  55.2545204  22.5959492  57.3651390  22.5014553  31.5657806  66.9354553
  22.6081696  32.1195450  66.1620255  22.4397812  32.1824760  67.6649170
  42.5744591  33.4841270  83.6561584  41.6186867  33.5332184  83.6380920
  42.7677269  32.5495720  83.5820694  83.8109207  65.8026123   2.3788960
  82.8661346  65.6707001   2.4576623  83.9409714  66.7293320   2.5801752
  63.0122108  43.8100204  32.6309090  63.8121338  43.2843361  32.6344185
  62.3038368  43.1685905  32.6856689  82.0879593  29.6389427  57.2046776
  82.0910034  29.1968727  56.3556786  82.7419586  30.3322392  57.1160622
  76.5466080  33.9706268  48.3408890  75.6620102  33.8688850  48.6921082
  76.7193298  33.1470985  47.8845978  63.2149239   7.7048998   4.4664340
  63.9985046   7.2593551   4.1443734  63.2880707   8.5957108   4.1238894
  54.4747505  56.3075600  18.0615311  53.9216385  56.5696716  17.3255978
  54.2005272  56.8756371  18.7814789  18.8234768  67.2405777   4.0191083
  19.7558460  67.2897568   3.8081570  18.6840382  66.3294220   4.2771683
  67.7654953  40.8455849  26.5123825  66.8761215  40.9991341  26.1935349
  68.0718613  40.0889664  26.0124779  22.1593475   7.3142323  75.1048126
  22.6150208   8.1464005  74.9779663  22.6757069   6.6801500  74.6072769
  16.1744137  59.0017776   6.7001176  16.0629292  59.5997658   7.4391794
  17.1124420  58.8117447   6.6851711  82.0712891  68.0989075  87.2111206
  81.3426971  68.0932159  86.5903473  81.7906570  68.6963501  87.9043350
  45.0593605  25.6218319   4.2437558  44.7953796  25.0367374   3.5336771
  45.9975204  25.4633350   4.3484521  74.3315887  13.8093185  19.6345139
  74.4662704  14.0800867  18.7263412  75.1539383  14.0264292  20.0736389
  69.0150681  39.0303841  86.4349594  69.0922470  38.1092567  86.6835480
  68.0922318  39.1400681  86.2056580  80.9893341  50.8860588  74.2385483
  81.5641479  51.6454735  74.3340073  81.1984634  50.5346565  73.3730927
  71.2370148  50.9054604  47.6824074  70.3161850  51.0257797  47.4504166
  71.2601929  51.0111542  48.6334724  55.5650139  67.4462814  24.6089153
  56.5204811  67.5036850  24.6040192  55.3230057  67.5590363  25.5281277
   6.5875936  41.6799660  56.5135384   7.0076971  41.2305222  57.2468491
   6.0656986  42.3701134  56.9228745  72.3088608  40.6025314  13.4273510
  71.4601059  40.9494705  13.1526127  72.1291580  39.6941757  13.6699028
  13.1283398  26.2332306  82.9949875  12.8090057  26.8700333  83.6343155
  12.9082031  25.3822861  83.3740158  -0.0207975  36.4494591  64.0974350
  -0.0993306  37.3988953  64.0045166   0.9223856  36.2862701  64.1001663
  70.4334641   7.5975213  41.8114700  70.5832214   8.3285036  41.2119102
  69.9318237   7.9780130  42.5324478  81.7047882  24.8547478  46.1879234
  81.8229828  23.9190750  46.0242882  82.1702499  25.0150032  47.0088348
  70.6865387  22.8165569  79.7848129  70.9566345  22.2440872  80.5028381
  69.7336655  22.8644161  79.8621063  78.5531921  38.8830299   3.7509308
  78.9996490  38.8710060   2.9043095  78.0810776  39.7156410   3.7609384
   4.5890765  60.2464752  83.7242126   5.2293663  60.7173157  84.2576675
   4.8452306  59.3271751  83.7983856  34.9594536   7.2887745  84.4300156
  35.6071854   7.9700923  84.2498016  34.6019325   7.5190058  85.2875748
  29.2215881   8.1948299   8.4694490  29.7230434   8.9991913   8.6027813
  28.6082706   8.4087076   7.7663622   2.2319467   7.2042894  42.8950615
   2.6737912   8.0301809  42.6978073   1.3541818   7.3085775  42.5277939
  48.7722473  29.2945614  35.9432983  48.0502319  29.5548038  35.3712845
  48.3554153  29.1044731  36.7837448  66.1725769  64.4267426   9.7088909
  66.4005737  64.0807800   8.8460102  65.3141861  64.0484772   9.8994341
  84.3333359  64.0587616  55.3292313  83.7695389  64.5325394  54.7177544
  84.8355713  64.7432098  55.7714005  67.5991058  22.0265179  11.7766457
  67.6906662  21.7077160  10.8787518  66.6626282  21.9556789  11.9616289
  71.1355438  69.8469467  32.1499367  71.5128937  68.9707336  32.2279205
  71.8136673  70.4308701  32.4896622  35.7267532   7.0236702   0.6592486
  35.9927750   6.1892571   0.2729585  36.5476875   7.4349031   0.9297871
  44.3888245  48.4816818  74.5719986  43.6824875  48.0559273  74.0861511
  45.1793976  48.2796097  74.0716019  43.2478752  47.0947189   3.0491116
  42.6136475  47.6581688   2.6058199  43.6118126  47.6438332   3.7435563
  12.4788828  21.9570866  78.8721848  12.1860209  21.7834530  77.9775848
  13.2552443  22.5071297  78.7675476  36.7841606   9.0936193  57.2725296
  36.0214882   8.8559284  57.7998543  36.4874878   9.0014515  56.3671455
  47.2011261  16.2595367  62.2532845  47.1091232  17.0778713  61.7653351
  46.9469872  16.4844799  63.1482964  26.9548645  55.1404228  29.8167324
  27.4490070  55.0218887  30.6279068  26.0527096  54.9236183  30.0519867
  33.1993828  65.9075699  62.9487762  32.2513962  66.0399551  62.9542542
  33.4289322  65.8579712  62.0208321  82.3225632  49.3363342  10.1819410
  81.6996536  48.8577805   9.6349497  82.1533508  49.0209389  11.0697050
  56.7743645  57.8621597  30.7390366  56.0878792  58.4532356  30.4298401
  57.5914841  58.3195305  30.5406551  65.6549225  26.5677872  42.8905830
  66.4065323  26.2073727  42.4200287  65.1277008  25.8029652  43.1214752
  30.8127937  10.6282139  70.3722382  30.4950562  11.4056425  69.9130249
  30.1458454  10.4528427  71.0360565  27.7395840   9.9620953   1.3547440
  26.8390121   9.6626139   1.4792932  27.7297192  10.4042425   0.5058382
  30.8345184  62.9064178  27.8596020  31.5117512  62.2400436  27.7432804
  31.0232182  63.2929688  28.7147064  79.3339615   4.3537335   6.5324459
  80.0110474   3.7636678   6.8635244  78.6474838   3.7716956   6.2065501
  68.5637817  45.0116234   8.5042086  68.1058273  45.6065750   9.0979643
  68.0659103  44.1954842   8.5518818  28.7863998  20.8657818  68.3983917
  29.3699474  21.1208630  67.6837997  28.8541737  19.9116478  68.4339752
  19.3594780  43.1205978  60.3815651  20.0643616  43.7321892  60.5944710
  18.7493477  43.6334572  59.8515244  34.7700424  60.2130470  24.0126190
  35.6662102  60.3904648  23.7268925  34.5608559  60.9339752  24.6065350
  65.7056808  55.0538979  47.8904877  66.3243561  54.5375137  47.3739433
  66.2580338  55.6075783  48.4423714  49.4078827  13.4668484  25.6563091
  48.8354301  14.1515980  26.0022106  49.0153160  13.2280283  24.8166122
   1.3867726   2.9619169  84.4982452   0.7207267   3.3571241  83.9357224
   1.9144871   2.4270759  83.9052048  81.3027039  31.2186356  54.2792091
  82.1584015  30.8959866  54.5618935  80.7168961  30.4692135  54.3860970
  83.1269913   9.4812412  72.9004745  82.5251694   9.2519274  72.1923370
  83.0980835  10.4372206  72.9392166  10.3945837  22.7199383  21.1651459
   9.9727440  22.0492344  20.6280804  11.3195162  22.6738796  20.9230480
  38.4560585  69.8970108  65.6989822  37.8635139  70.1048126  64.9765320
  38.7677574  70.7485199  66.0055923  86.3143158  49.5791092  19.2377911
  85.8013306  49.5144806  18.4322472  86.9216309  48.8404922  19.1949005
  24.2802639  25.5003567  69.1944962  25.0977135  25.8494606  69.5496521
  23.6544876  25.5761166  69.9148407  63.2757149   5.1242428  84.8751450
  63.5257721   5.8017607  84.2469177  62.4848022   5.4651079  85.2928772
  35.8263474  14.7373323  68.4957733  36.6325073  14.5006151  68.0371857
  35.2850952  13.9491205  68.4510880  51.6594048  52.1391029  75.4453888
  51.6265030  52.7728386  76.1619949  51.6192360  51.2861519  75.8779297
   0.5231957  48.6847725  40.9605026  -0.3725253  49.0072861  40.8610077
   1.0183463  49.1387405  40.2786140   9.9286366  56.5314407  40.7940674
  10.5760574  57.0020599  40.2690964   9.1698275  57.1144409  40.8176155
  74.9811249   4.2204990   2.6167085  75.7761993   4.2648749   3.1478562
  74.2661438   4.2723632   3.2510076  33.0383072  55.8720970  15.1344490
  33.2429924  55.2036896  15.7883329  32.0927391  55.9999542  15.2105284
  57.0182800  37.2314301  78.8013306  56.6737518  36.4639549  79.2579651
  56.5804100  37.2203178  77.9502258  59.0976753  13.3767681  64.9922028
  58.8986244  13.9324951  64.2386932  58.7291870  12.5232391  64.7643127
  61.5836372  21.1741695  62.7742195  61.4002914  21.9891052  63.2416573
  61.7523193  21.4479294  61.8726463  59.3880310  39.6250267  22.6025143
  59.2093391  39.4552269  23.5274315  59.8999329  40.4338417  22.6020241
  45.6826210  29.3177013  72.1289978  45.9712219  29.8570805  72.8652115
  46.3421783  28.6269531  72.0651093  13.8747749  26.3592033  77.6920624
  14.5490341  26.4024010  78.3701019  13.0761709  26.6546993  78.1292572
   5.5156937  56.7999916  40.7477875   5.6645098  56.1034927  40.1082764
   5.9121809  56.4725723  41.5551453  44.9760971  40.0375481  28.5172234
  44.7601433  40.7807083  27.9539242  44.6797180  39.2709923  28.0265255
  68.1064224  45.6640739  48.3292923  68.8728638  45.2935410  47.8916855
  68.4525452  46.0463982  49.1356773  65.2609100  41.9534225  81.6327286
  64.9965591  42.1804695  80.7412109  64.6366959  41.2801704  81.9035110
  56.3153534  66.5880966  53.4856758  56.4242554  67.5373001  53.4275742
  56.7014961  66.3539276  54.3296509  40.6216278  15.6581440  66.2988663
  41.3565254  15.0462294  66.3403168  40.4722137  15.7899399  65.3626251
  40.1301689  37.8157082  79.8845444  39.5990448  38.0395241  80.6487732
  40.2223701  36.8639221  79.9273758   3.7629421   4.3512602  48.3672256
   3.7697001   3.3966451  48.4371948   3.7579939   4.5223579  47.4254570
  19.2210941   4.8804688  53.0662384  19.3477707   3.9582458  53.2891502
  18.3295193   5.0762343  53.3543358  85.4948349  28.2404118  81.9474411
  86.3085480  28.6776028  82.1983719  85.5015488  27.4202671  82.4409485
  75.4681320  27.4552212  76.6017761  74.8332901  27.0805607  75.9911728
  76.2420502  26.8988152  76.5139999  54.1382828  62.1039734  59.0383224
  53.2723274  62.4540939  59.2475357  54.1758270  61.2662354  59.4998627
  55.7649841  29.9979630   0.9573125  56.2687645  30.6201344   0.4325846
  56.3968849  29.3202190   1.1973011  79.5742416  23.2416630  76.9334030
  79.9787140  22.8334751  77.6989212  78.7379074  22.7869377  76.8333435
  22.1361542  54.3829269  28.3240280  21.8591404  55.2965126  28.2543335
  21.4593296  53.8912659  27.8588295  76.9813690  34.8874969  25.2132130
  76.9056320  35.6456985  24.6338787  76.3899002  35.0816269  25.9403343
   3.2618556  64.0074387  11.2700825   3.9504874  64.6722488  11.2768507
   3.0553567  63.8859177  10.3433552   4.2534733   5.0718970  64.3001251
   4.5635800   4.3602729  63.7400742   3.5484567   4.6807771  64.8160782
   2.9588137  60.5769234  17.6274338   3.7390528  60.2537918  17.1768284
   2.2308185  60.1281433  17.1974907   7.9042864  40.8177834  58.8410606
   7.6256361  40.0541344  59.3464584   8.7713432  40.5828590  58.5105209
   6.7587752   7.3531780  46.2892036   6.8807201   7.9872122  46.9958572
   7.2151337   7.7378535  45.5408745   3.2058485  24.6667480  67.9308395
   2.6021514  25.2825508  67.5154266   2.8041813  24.4718609  68.7775421
  36.0224876  51.6732750  68.9559555  36.3401299  52.5760345  68.9370041
  35.2564392  51.6768150  68.3820343  80.1649857  24.5053291  12.3977652
  79.2471237  24.3259315  12.6016502  80.3218994  24.0440731  11.5738392
  59.5228653  51.6688881   9.9412365  59.6206360  50.7315941   9.7734613
  59.1522636  51.7170906  10.8224630  14.8497276  10.9041214  51.4773598
  14.6122723  11.7725601  51.1523018  15.7992458  10.9426928  51.5920715
  33.8048134  69.1328278   6.2275434  33.4708595  69.3329239   5.3530898
  34.2114944  69.9481430   6.5209713   2.7063944   3.2255201   3.5831416
   3.3609958   3.3424838   2.8946297   2.8241017   2.3213484   3.8744318
  45.2628288   2.9787188  41.1381569  45.9673500   3.3648314  41.6585426
  45.0822105   3.6291533  40.4595222  46.6278877  26.2117729  15.9444780
  47.4995079  26.4287548  16.2752819  46.3386078  25.4820690  16.4922752
  62.2561989  12.2368126  76.6960220  61.5563583  12.4182138  77.3233566
  62.0555305  12.7955217  75.9451523  15.3845596  54.4934540  68.0272064
  15.1770229  53.6033783  67.7427368  14.5569077  54.9682808  67.9512711
  59.9417152  66.7563095  41.0751534  60.1696930  66.6370468  40.1531792
  60.4891319  67.4861603  41.3647690  82.8088837  66.8740463  78.7754669
  82.2905350  66.4994507  78.0632706  82.8870850  66.1648026  79.4134979
  67.2608261  13.1522493  24.6604557  67.0363312  13.9229984  24.1391277
  67.4341202  13.4976158  25.5361958  76.1342773  62.6418190  63.5288277
  75.2143936  62.3978119  63.6313324  76.3667908  62.3364716  62.6519394
  68.9084167  68.9573288  86.1255264  69.4741211  68.2976379  86.5267868
  68.7360687  69.5843201  86.8279495  66.5818558  18.2394104  26.0524826
  66.8390732  18.9323311  25.4442635  65.6592178  18.4140205  26.2381573
  42.9299736  58.6730843  46.0574265  42.2537994  58.0148392  45.8970108
  42.8442116  58.8828316  46.9874153  82.2819672  33.2265091  46.7263374
  82.3910141  33.0905838  45.7851334  81.3370209  33.1707916  46.8684845
  51.4901657  56.5930252  59.7640762  51.3145103  55.7969170  60.2656593
  50.6970940  57.1194496  59.8647995  37.1796875  44.1063843  21.7377071
  37.1598015  43.2104988  21.4012108  37.8570557  44.0932693  22.4139004
  80.6842117  63.2844429  65.1729279  80.7022705  64.2344055  65.0568542
  81.3939896  62.9617653  64.6176529  84.7855072  55.4506378  17.9152870
  84.4258957  55.6847305  17.0596504  84.0210876  55.3916016  18.4883518
  70.1163330  18.9922485  18.1148129  70.0016022  18.1359940  18.5270004
  69.2263641  19.3285294  18.0094547  22.9213696  19.9387112  29.4411221
  23.7556744  19.4695911  29.4507751  22.3711967  19.4365940  28.8399410
  53.2531013  50.8414345  82.4983902  53.3890953  49.9111023  82.3189011
  54.1334152  51.1888733  82.6418076  55.7172432  57.1102486   8.4456482
  55.1515808  56.7853241   9.1461363  55.1478539  57.6708145   7.9185877
   8.7822037  47.4362030  53.4156990   7.8360157  47.3522453  53.5336494
   8.9573021  47.0128479  52.5752563  67.7349854  13.3585186  45.7052994
  67.0426102  14.0142012  45.6220398  67.5586014  12.9288950  46.5422821
  59.9121933  61.1448097  69.3511124  60.7525406  61.5847282  69.2225647
  59.2843552  61.6816902  68.8675690  76.2641830  48.6147270  21.5031128
  76.4193268  47.6776886  21.6219501  75.5312195  48.8119965  22.0862694
  76.3746109  33.7208862   3.6239011  75.7384186  34.2228012   3.1144204
  76.0215149  32.8313141   3.6384449  22.4148140  19.8799343   3.9966860
  22.2897892  20.0359077   3.0605917  21.8716640  20.5419331   4.4244452
  76.1456680  24.2223701  14.5523748  76.6822815  24.9537029  14.2467098
  76.6733170  23.8067608  15.2343483  32.4334297  52.7789040  43.7592010
  31.9014626  53.5737953  43.7219086  33.3260117  53.0798492  43.5890350
  73.3682861  55.1402130  72.9167862  72.7839890  55.2385788  72.1650162
  74.2454224  55.1039658  72.5352707  46.8075142   2.5921121  38.6274490
  46.8935585   3.1410413  37.8480263  47.6061668   2.7596583  39.1277580
  68.8769455  62.5835037   5.0917768  69.5367661  62.0065002   4.7071533
  68.8531189  63.3422508   4.5087128  69.5374603   9.9280615  79.7406235
  69.3057709   9.8237286  80.6634827  68.7045135   9.8545341  79.2747726
   6.4462967  52.9054070  78.8333969   7.1791654  52.7928009  78.2280350
   6.8449855  53.2571564  79.6293488  21.7227612  58.1546211   9.3694658
  21.3254757  58.2044983  10.2388964  21.7312622  59.0596008   9.0577450
  67.0527954  49.9235039  52.7826767  66.6531906  49.0567589  52.8554688
  66.6398087  50.3137207  52.0123482   4.1063356  19.0332413  85.5022430
   3.4527662  19.0725956  84.8040085   4.8404794  18.5552864  85.1164703
  64.5641556  68.6879654   4.4544115  63.8962479  68.0586700   4.1821661
  65.3950958  68.2555313   4.2575288  31.6970081  43.4458466  62.9081535
  30.8816414  43.1489830  62.5040741  31.5470085  43.3499374  63.8486519
   0.5355476  49.7667122  31.4762745   0.8264619  50.6689987  31.3440819
   1.1027120  49.2463913  30.9072208  39.5617905  18.4705029   9.0491590
  38.9681549  19.1939297   8.8479595  40.4346542  18.8199005   8.8695345
  41.5945206  70.6925735   7.2916985  42.3483276  70.3874359   6.7868299
  40.8355904  70.3489151   6.8203630  38.1568871  36.3782043  19.3187695
  38.3156166  36.1641350  18.3994160  37.3144989  35.9695702  19.5178490
  80.1469574  45.2162361   3.6856365  79.8108826  44.3424988   3.8852985
  79.4683990  45.8121414   4.0029569  72.3683472   4.7837234  35.8058662
  72.2267456   5.6897879  35.5315933  73.2690430   4.5923200  35.5444298
   8.3362589  43.8234596  41.3802109   8.8191471  43.4454193  42.1151505
   7.4295502  43.8631172  41.6844139  69.0900497  17.2368526  49.3520279
  68.7590714  17.4226780  48.4733047  68.8127670  16.3375969  49.5272064
  59.7509575  29.4064407  53.1563606  59.2745743  30.0969658  52.6954193
  59.8363457  29.7315903  54.0525856  84.5930939  42.6778870  26.5610943
  85.3010635  42.8426819  27.1838779  85.0282593  42.2938919  25.7999001
  16.9352627  57.8970451  66.7151947  17.5889301  57.6207695  66.0728378
  16.1014175  57.5989265  66.3517990  18.1065102  42.6308289  12.0200472
  18.1200771  42.3180580  12.9246025  18.3445358  41.8645859  11.4980803
  82.4645309   1.3177624  48.8457565  83.1077652   0.7313961  49.2440834
  82.7769394   1.4427054  47.9496422  59.7885818  62.0724983  45.1373558
  59.2046776  62.0659790  44.3789062  60.6196404  62.4037399  44.7969818
  13.3421679  49.1237068  83.9152985  12.5039034  49.2139359  83.4620819
  13.7629690  49.9773178  83.8127823  39.7597160  46.8737183   2.6728747
  38.9463539  46.6768646   2.2082043  40.4365044  46.4133568   2.1766295
   4.1792655  46.4755592  41.9911919   4.4339471  47.2850037  42.4341011
   3.4631505  46.1270828  42.5222054  52.5542641  27.2961159  17.1722260
  52.8712463  26.5476494  17.6777477  52.3449860  27.9585476  17.8307228
  38.6819305   1.7706817   6.3266888  37.8194084   2.1665504   6.4514751
  38.5608673   0.8520559   6.5669017  57.2323074  16.3314724  86.4976044
  56.4618988  16.4150066  87.0594940  57.5918198  15.4702883  86.7105484
  59.2104073  16.8418903  78.3953705  58.5956535  16.2213020  78.0039902
  59.2104950  17.5887775  77.7967148  68.4701080  58.7473183  36.3473091
  68.0881577  58.9136238  35.4855156  69.3423996  59.1388779  36.3022957
  36.9108429  66.1559601   2.1407220  36.6617584  66.1231079   3.0643616
  37.3077545  67.0199585   2.0302742   2.4550619  14.2736034  19.8291893
   1.8767056  14.1743727  19.0729542   2.0924070  15.0161295  20.3122711
  13.4843235  45.2769508  17.8035774  14.4369993  45.3558273  17.8527737
  13.2544241  44.6952019  18.5281067  36.1127853  39.1000443   4.9307513
  35.1868591  39.3179016   5.0376725  36.5764046  39.9052582   5.1607862
  58.6202965  52.5557899  12.5793591  57.9742393  52.8738480  13.2099781
  59.0902023  53.3418045  12.3007832  57.3410912  16.8855362  15.3935633
  56.9314270  17.3026447  14.6356535  56.8546486  16.0693951  15.5098305
  53.7873001  27.8722477  12.2796869  52.8420906  27.8841782  12.1291409
  53.9170876  27.1850052  12.9332047  82.5186157   8.3780985  21.4939270
  83.3116455   7.8844461  21.2850246  82.1674042   7.9483008  22.2737713
  23.1890774  57.0263176  46.0176048  22.9316158  57.2639542  45.1268311
  23.5511246  56.1440887  45.9349747  78.1719055   5.0761981  11.1316462
  78.8607788   5.6893134  10.8751869  78.1904373   4.3987074  10.4557066
  68.2667236  15.1132345  15.3827648  68.6909943  14.8205299  16.1893291
  67.4068146  14.6930523  15.3983698  23.3294144  21.5144386  70.5317307
  23.8641548  21.4656143  69.7393265  22.5647163  20.9721279  70.3384247
  24.0288792  65.1576080  18.5241661  24.4326286  65.0628586  17.6614723
  24.7417126  64.9934921  19.1415539  73.4789810  50.4442711  71.5585175
  74.1373215  50.4431992  70.8636703  73.9865265  50.4110374  72.3694000
  27.6945572  15.8361130  84.6543350  27.7265129  16.3640079  83.8564987
  28.3908520  15.1890717  84.5414505   6.9273424  57.1828499  76.3326263
   6.0959620  57.5277405  76.0069122   7.5497088  57.8990402  76.2062683
  81.3010025  56.4828224   2.2524495  81.0544815  57.4040146   2.3352833
  81.2322235  56.1355743   3.1417866  22.1544781  26.0387325  71.0856628
  21.4953804  25.3461514  71.0392227  21.6961918  26.8256569  70.7907791
  50.0870056  56.3750000  23.6753502  50.8870811  55.8638000  23.5537777
  49.6854401  56.4015312  22.8068600  20.7342415  66.1511078  51.1418037
  20.2888355  66.2192612  51.9863167  20.1313152  65.6498108  50.5928001
  37.9279099  66.8314209  62.5753326  38.3911705  67.2567596  63.2969360
  37.3587456  66.1902313  63.0009575  27.5849380  45.7607346  66.9707184
  27.5402184  46.6459770  66.6093674  26.9449539  45.7599754  67.6825180
  28.3684883  52.7051201  87.7565994  28.4033432  53.2511482  86.9711914
  27.5409489  52.2299767  87.6814499  75.9281311  39.3290749  55.8138046
  75.7042465  38.5108604  56.2572365  75.4260406  39.9985199  56.2785416
  13.0223398  18.6085567  68.3285294  13.5693693  18.2434788  67.6330338
  12.2923956  19.0216045  67.8672256  52.7396584  69.1584244  15.2244539
  52.5350494  69.3273773  16.1441383  52.3777657  68.2887344  15.0544329
  36.4749413  41.8627777  30.1976624  35.5473328  41.6395035  30.2746201
  36.7626610  42.0050545  31.0994396  81.8206863  63.7420540  45.4013634
  82.6544266  64.2113342  45.4310570  81.3118744  64.1998444  44.7322083
  75.7293091  26.5038185  71.2133636  76.0876770  26.7703419  70.3667374
  75.1574554  25.7638779  71.0091553  86.1348495  43.0613861  54.9764099
  85.7306595  42.7900581  55.8005714  85.4994125  43.6598701  54.5836334
  27.8035049  50.1049004  10.2632227  28.0618420  49.5668411  11.0115433
  26.8904915  49.8673935  10.1012745  27.1043015  47.6604424  40.3132286
  26.1845894  47.7322159  40.5685921  27.4573097  46.9743233  40.8796730
  14.4274750   1.1154799  39.0477562  14.3486814   0.4757183  39.7553749
  15.1289654   1.7015591  39.3317528   0.5313095  60.8055611  52.1276894
  -0.0255489  61.5260277  52.4227524   0.7060493  60.9995575  51.2067871
  12.3467255  50.4740639  13.2311230  12.1304636  50.2461205  12.3269634
  12.7948742  49.7002411  13.5725794   3.7216434   1.6255208  82.9240723
   4.6530766   1.6246754  83.1446762   3.5242305   0.7125678  82.7148438
   7.4502430  57.0021477  87.8306885   8.2102261  56.6677170  88.3069382
   6.7697978  56.3441582  87.9730759  54.9573708  56.4552383  55.1276741
  54.9693489  57.2760010  54.6352921  54.8078499  55.7806816  54.4652176
  23.7553520   9.7148581  75.0560150  24.6651478   9.8335505  74.7832260
  23.2593212  10.3211193  74.5058975  43.9422493  63.6171455  73.4547348
  43.9926910  62.7836723  73.9227142  44.6188507  64.1602097  73.8591156
   9.4467392  42.0355263  65.2501450   9.7843914  41.7928352  66.1123123
  10.0076876  42.7579575  64.9679031  63.0433235  33.4994812  17.8588562
  63.5568390  33.2849884  18.6376534  63.6927299  33.7768822  17.2126770
  35.7176743   3.5773156  30.5686016  36.2161179   3.7760212  31.3612537
  34.8240700   3.4296997  30.8783016  53.4089966  39.1336288  56.3247337
  52.7870102  38.6755333  55.7594757  53.8629150  38.4354401  56.7966690
   4.4994259  44.5328979  47.0222740   5.4173360  44.2886353  46.9039192
   4.3190627  44.3471870  47.9438019  14.6025801  60.7789688  18.4264069
  15.2005415  60.2905960  18.9922371  14.5539227  61.6486549  18.8232861
  11.9875565  38.3091660  82.5391388  11.6136713  38.1588860  83.4073868
  11.6729622  37.5744171  82.0124435  79.8251801  45.5001297  84.6054001
  79.6061859  46.2288704  85.1860962  78.9835587  45.2181015  84.2471161
  33.4243889  61.9345894  65.5775070  34.0477219  61.5765038  66.2095337
  33.7301636  62.8277168  65.4192200   4.6650939   7.0555992  54.0015259
   5.4799404   6.7722435  54.4162140   4.4774585   6.3766298  53.3534317
  17.9133759  47.4350014  13.3086224  18.8465691  47.2220764  13.3019667
  17.7968578  47.9766617  14.0891724   1.6507993  60.6763840  56.3204727
   1.1565002  59.8585129  56.2658119   1.4654279  61.1239052  55.4948845
  73.8010712   7.5628095  78.7008591  73.7441483   8.2824831  78.0723267
  73.2172165   7.8209724  79.4140854  14.0224838   6.9709826  19.1790848
  13.5439272   7.6498051  18.7032528  14.3666334   7.4179397  19.9524040
  81.8835373   6.6494269  23.8296604  81.0694046   6.4332018  24.2842655
  81.9582367   5.9860897  23.1436329  71.6549530  22.7285423  14.7974844
  72.2844467  22.6875668  15.5174036  71.8479843  21.9560242  14.2662725
  81.4233551   9.8608084  33.8949776  80.4865112   9.8419247  33.6995087
  81.5767975   9.0680676  34.4090309  40.6873245   4.7275505  29.2825909
  39.8306007   4.3186059  29.1600075  40.9667397   4.9676247  28.3991184
  17.9034214  32.4669037  18.2615376  18.8399162  32.6623192  18.2296009
  17.6158638  32.8100433  19.1075859  61.7286377  24.1625156  53.8078575
  60.9228554  24.2489605  53.2984695  61.4656448  23.6810455  54.5922394
  18.3483620  56.9208374  57.1857300  18.7137280  57.4269905  57.9113693
  18.7500229  57.2992325  56.4036064  78.3166733  58.5921402  10.3387861
  79.1102524  59.0675392  10.0928955  78.3711853  58.5114136  11.2910166
  83.1003036  27.9579678  13.9855633  83.3882065  27.3161240  14.6346989
  83.1354446  28.7964764  14.4458895  55.7260284   7.4965630   7.7792406
  55.2491150   8.0630598   7.1727195  55.1011772   7.3183622   8.4821177
  56.0949593  34.7121162  37.8851891  56.4569664  35.0595360  37.0700340
  55.1481934  34.8164597  37.7904549  85.7094955  32.0813828   1.1897739
  86.4083710  31.5274792   1.5376182  86.0818710  32.9631805   1.1867052
  79.4825439  22.0016594   2.3237798  80.3418579  21.5900249   2.4152901
  79.6729813  22.8876381   2.0155480  28.6606445  61.3779793  74.5372849
  28.5976124  62.2785606  74.8554230  28.6717606  60.8436584  75.3313904
  20.3891315  62.4118500  54.6533775  20.8987179  61.6370506  54.8905220
  19.5062637  62.0782356  54.4937668  25.2057190  21.0172653   3.1175218
  25.8481312  21.3591633   2.4957135  24.6735630  20.4105320   2.6028230
  42.0608673  71.0275040  79.4898682  42.9579048  71.3599701  79.4578705
  41.7537231  71.2511826  80.3684235  21.5057297  41.8464775  12.5723886
  21.1831818  41.4627571  11.7569418  21.9418831  41.1225090  13.0216904
  28.6956482  32.8958092  58.1766701  29.3620720  32.6282578  58.8095436
  28.8322468  32.3176308  57.4261513  18.0087929  68.7317657  14.1565142
  18.7775459  68.7735825  14.7252855  18.1375751  67.9376984  13.6377573
  50.9062500  50.4893646  27.0500965  50.3805008  49.7949791  26.6530495
  50.3614464  51.2731094  26.9782372  47.8461609  12.9875507   1.9155351
  46.9197578  13.0582724   2.1457734  48.2928467  12.8683796   2.7536902
  28.8196793  65.2523804  56.1858253  29.3722763  64.5081253  55.9471588
  28.3486652  65.4687500  55.3811150  31.6793633  41.9492188   7.6594367
  31.6064739  42.6334076   6.9940014  30.7894192  41.6090431   7.7516842
  60.3839302  34.0926552  26.3825245  60.8978996  33.9244957  25.5927238
  60.8772888  33.6679649  27.0842838  57.7134781  36.0909462  18.3740654
  57.7280807  36.8856468  18.9074192  57.3542557  36.3735123  17.5330257
   2.5018904  35.4452362  64.2628021   2.4347606  35.7380524  63.3539658
   3.4192629  35.1921349  64.3657532  15.3733969   5.2812052  12.4708166
  15.6340742   5.5580196  11.5923796  15.5853443   4.3482437  12.5007029
  73.1003113  57.0498123  21.9561367  73.4609604  57.7855034  22.4510326
  72.1516190  57.1545868  22.0284843  59.5033531   2.0571427  42.2754898
  59.2281570   1.2632432  41.8169899  58.7875443   2.6764224  42.1328545
  22.5531006  53.3764687  47.4891548  21.6529369  53.5691147  47.7514954
  22.6761150  52.4543419  47.7145004  70.0157928  15.6606665  39.5105820
  70.1427155  16.4240685  40.0739098  69.7389832  16.0263500  38.6704140
  34.2643433  28.2424984  68.2378998  35.0275917  27.7834167  67.8872910
  33.6019211  28.1649494  67.5513077  78.0422211   5.7773514  74.8959198
  78.9993362   5.7666454  74.8890076  77.8106461   5.8944798  75.8172684
  10.0721874  71.1258621  79.5336151   9.8137121  70.2234573  79.7209320
  10.1933556  71.1481705  78.5843735  65.4691620  60.3593330  10.6842737
  66.4240723  60.3754539  10.7484264  65.2934799  60.2736320   9.7472458
  14.2566786  37.4536781  21.6100960  14.2084026  37.7132225  20.6900215
  13.7773247  36.6261635  21.6509914  60.5620003  48.0144119  36.8750496
  61.3138123  47.6801147  37.3641853  59.8003922  47.7034531  37.3644257
  67.5998459  69.5058746  62.2947693  67.5230713  69.3966675  61.3469200
  68.5417404  69.5690994  62.4530716  77.4466782  69.6356964  42.8945580
  78.0616837  69.7496567  42.1699753  77.7822418  68.8800812  43.3769302
  10.1270380  31.5873337   5.9607768   9.9136105  32.5034904   5.7837644
   9.2918530  31.1902599   6.2078209  13.5833483  10.0354004  82.8584518
  14.3970385  10.5392408  82.8415985  12.9168167  10.6659298  83.1312180
  58.8951683  55.5704193  69.1030731  59.3622818  55.3761597  69.9156570
  58.2158165  56.1936913  69.3604584   9.0203485  56.7710075   7.0356379
   8.7894640  55.8998489   6.7131400   8.8246326  56.7393799   7.9720817
  67.2018738  14.8053789  81.4347000  67.3627090  14.3710938  80.5969849
  66.2506332  14.9043636  81.4744263  61.0597801  23.6248436  64.0787201
  61.6151924  24.3956394  63.9619980  60.1672249  23.9706402  64.0792618
  74.4110641  20.5527859   2.7162230  74.2149658  19.8227539   3.3034480
  75.2619934  20.3331280   2.3368897  34.9280586  27.0725994  12.2991400
  34.8105240  27.9083920  12.7506590  35.4837608  26.5595131  12.8857975
   0.8661640  41.7229385  52.6267357   0.1366898  41.5957718  53.2333069
   1.0853142  42.6512566  52.7069511  66.0097046  15.2993717  28.9876194
  65.4292679  14.7772083  28.4338398  65.7230759  15.1096067  29.8809662
  36.4244118  51.1532478  12.2779579  36.5278511  50.7400970  13.1351843
  36.4973335  50.4312592  11.6537409  25.0673065  65.0754013  62.0552864
  25.3087826  64.2746582  62.5208321  24.1353874  65.1891556  62.2418747
  51.7493553  52.3318214  62.7731018  52.3540764  51.8879509  63.3676796
  51.6774292  51.7435036  62.0214729  34.8410072  28.3836823  84.5386429
  34.8794975  28.0198326  85.4231567  33.9104195  28.3712616  84.3148346
  38.0487099  30.9746323  77.6334152  37.6936340  31.6131897  78.2518005
  37.7004662  31.2448025  76.7837296  21.1778889  24.5833187  85.3968735
  20.8997002  25.4843349  85.2325134  22.0237389  24.5094147  84.9549332
  73.6142273  47.9940300  42.8121109  73.3752213  48.2167816  41.9123917
  73.1934433  47.1487923  42.9694328  50.9931030  59.6146317  41.7980728
  51.4451599  60.4032211  41.4980736  50.7159805  59.1766319  40.9933434
  66.8811111  26.4818649  32.9151573  67.2913742  25.6221485  32.8213272
  66.2007141  26.4973087  32.2420616  60.4585495  25.8575382  21.5461025
  60.0191689  25.6955070  20.7112846  59.9548302  26.5650368  21.9485245
  26.8399334  11.3024940  58.1941338  26.1230679  11.3939877  57.5664673
  26.6259193  11.9196787  58.8937836  32.7215385  67.5581894  38.2537537
  32.6499710  68.2169342  38.9445229  33.2478065  66.8595734  38.6426125
  73.3027267  47.0237083  67.6571960  73.1106110  46.2490807  67.1287308
  72.8882294  47.7452316  67.1840897   3.4660776   4.6166210  60.0568466
   4.2726541   5.1043057  60.2236710   3.1570938   4.9462109  59.2129707
  65.2772751   8.9420719  82.0901489  64.9578094   9.8285818  82.2582932
  66.2272491   9.0385094  82.0231323  33.2875328  66.4757538  80.4983597
  32.4859047  65.9527588  80.4882126  33.4735413  66.6109848  81.4275208
  76.0906525   6.7563457  24.9746895  76.8012466   7.3830409  24.8385429
  75.6870804   7.0272660  25.7992878  77.7821198  41.6935577  28.9576969
  76.8855133  41.4156990  28.7702732  77.8119202  42.6093254  28.6807232
  15.6606274  45.4614182  75.4194260  16.1969185  44.6822014  75.2730026
  15.6957703  45.6020241  76.3655930  79.0791092  54.2136612  20.8446579
  79.4377518  54.3302536  21.7244396  79.8330917  54.3135300  20.2634792
  62.7429504  42.6572609  54.1554604  62.7631111  41.9722633  53.4871750
  62.7158318  42.1813431  54.9855194  13.0835915  71.6870346  34.1161156
  12.6130009  71.4559937  34.9169884  13.2407227  70.8493118  33.6805038
  34.1693077  39.5447998   2.0249841  35.0290222  39.9253349   2.2047405
  33.5995064  39.9098511   2.7019598  61.2435760  70.5695267  16.1333885
  60.6064186  70.2009659  16.7452927  61.5191154  69.8257141  15.5976171
  80.7441254  51.0350533  42.4555359  81.1707001  50.4624634  43.0930328
  80.6240082  50.4845009  41.6817818  20.4521713   0.3749345  80.3072891
  20.9335403   0.8774936  79.6500549  19.7585220   0.9660127  80.6000519
  30.4475594  61.2557220  44.2688255  30.9711208  60.8584976  43.5728912
  30.1195660  60.5128212  44.7755318   5.8469176   9.3241959  16.2256413
   6.1357012  10.1613321  16.5890121   5.6699347   8.7787199  16.9920387
  71.1641922   2.9419746  51.0075417  71.7428360   2.1868432  51.1132851
  70.3218079   2.5645931  50.7541656  38.0677910  42.3945541  37.6460190
  37.2401924  41.9637909  37.8599281  38.1889915  42.2295876  36.7109642
   1.7134024  34.7862358  37.3837090   2.4318309  34.2456932  37.0552216
   2.0810013  35.2369347  38.1439552   2.3194892   2.3143079  57.6336174
   1.9589759   2.3602378  58.5191422   1.6865102   1.7888418  57.1442757
  40.3899155  50.8154068  44.1515808  39.5327759  50.3901024  44.1259232
  40.3451462  51.3989944  44.9089775  75.2685318  46.5957527  46.7662659
  75.6664352  47.4563828  46.8974953  75.4955597  46.3616219  45.8663330
  47.9399261  53.3322639  22.3205490  48.3120155  53.5390472  21.4632149
  47.1104164  52.8973618  22.1230526  65.0183792  46.9851151  80.9211349
  65.9628983  46.8310242  80.9016495  64.9086761  47.8503380  80.5266953
   4.1451392  18.6345005  60.2769127   3.8251009  18.5662117  59.3773880
   3.4943233  19.1771278  60.7221375  28.2493801  67.6904984  14.0938292
  28.6069489  67.1526260  14.8002768  28.9315281  67.6882782  13.4223394
  53.8295822  11.6412039  35.2346420  53.4181976  12.3531151  34.7445641
  53.7438011  10.8771210  34.6645126  10.4745436  44.6166916  47.0469093
   9.7416391  45.1335831  46.7123871  10.0976181  44.0992699  47.7585526
  50.7033653  30.8791180  15.1154070  51.5360603  30.4143162  15.1979418
  50.4919395  30.8280678  14.1832457   1.7778151  52.4498291  71.2629929
   1.8581051  53.1291924  70.5934830   2.3050513  52.7709656  71.9945145
  17.3249760   6.1009984   1.8410380  17.5441780   5.6564898   1.0221400
  17.8486061   5.6521573   2.5048032  48.8542442   4.4761343  20.6965427
  48.8085861   4.5372443  19.7423878  49.3471870   5.2521968  20.9629345
   3.1341462  50.8338051   9.1664333   3.9051321  51.2620010   9.5385399
   2.4257617  51.4653282   9.2913446  19.2871742  71.2987900  88.4749374
  18.6824799  71.3211823  89.2166061  18.9300156  71.9350739  87.8554153
  34.0513535   8.5993614  23.3396187  34.7848854   9.1377230  23.0424213
  33.2747231   9.1233501  23.1433640  44.3168678  15.8577986  58.7532501
  44.7286072  15.5881367  59.5742149  43.9856071  15.0442638  58.3729057
   3.3595331  54.8380356  40.5396423   2.5829282  54.4058609  40.8950882
   3.3589940  55.7043343  40.9467697  77.1071167  68.9247360   2.7136812
  78.0394897  69.0554581   2.8863587  76.7389755  69.8082657   2.7048991
  46.5611382  59.7914734  32.6942368  45.8806534  59.2405624  32.3073692
  47.0331001  60.1518478  31.9434929  55.0104828   5.8587003  35.5108452
  55.2786331   6.0824208  34.6196251  55.7067947   6.2100167  36.0657883
  13.8089991   9.3677073  68.5304489  13.3719044   8.5526590  68.2837143
  13.2761374  10.0555344  68.1314697   3.9383328   0.5381010  51.8740768
   4.3553233   0.0543741  52.5870705   3.1077299   0.0845182  51.7305717
  84.7966690  46.9344139   7.8177209  84.6218491  46.0580902   8.1608362
  85.7113266  47.1023598   8.0444918  29.3260593  45.1750145  55.2667160
  29.8167076  44.6277733  55.8799248  29.1746464  45.9915581  55.7426987
  86.1961136  67.2011414  26.4962101  85.9934998  67.9960785  26.0030060
  86.6572571  67.5133057  27.2747517   7.1786733  42.9766541  38.9796143
   7.1863265  43.5483398  38.2119255   7.8452792  43.3451691  39.5593262
  19.1643257  71.0606689  11.6922770  19.1899338  72.0070648  11.8334036
  18.8034554  70.7069550  12.5052290   5.2110658  11.4191465  10.4836073
   4.7351871  12.2468948  10.5514593   6.1059642  11.6351719  10.7457552
  27.6603985  71.0213699  64.1489944  27.9865627  71.1644287  63.2605247
  26.9226341  71.6253586  64.2334518  74.0170059  70.7032089  66.6288757
  73.9453049  69.7493591  66.5933380  74.1880493  70.9644165  65.7240295
  14.6507835  64.9815292  46.8673248  14.4673729  64.2888489  47.5019798
  13.7921696  65.3510666  46.6612740  68.3261948  62.0276337  36.7021446
  68.3314972  61.8188438  35.7680092  67.4385452  62.3429794  36.8720512
  70.9062347  38.7415886  71.4473419  71.5839920  38.5497131  70.7992249
  70.2779388  38.0252419  71.3561249  45.4745026  55.4181023  20.4239311
  45.2891121  55.2105064  21.3397732  46.1310310  56.1135063  20.4641285
  20.4067459  48.0202522  44.5269508  19.7627754  47.4529305  44.1030617
  20.4783764  47.6774483  45.4177856  79.7951889  29.5728092  78.9711914
  79.3091583  28.8579597  79.3822937  80.1744843  29.1827393  78.1836624
   2.9900651  48.7458382  17.2305183   3.3589270  48.0288696  16.7146416
   2.3455818  49.1513672  16.6505013  18.3004169  12.6736116  80.5879211
  17.8001080  13.2505074  81.1650772  18.5411053  11.9309006  81.1417084
  83.2062759  25.4385586  56.9666824  83.5511780  26.0893230  56.3553085
  83.2337341  24.6146641  56.4801903  54.6530113  28.2158337  34.5588913
  54.8249245  28.7618351  33.7917137  55.3207054  27.5310669  34.5199966
  41.5035934  25.1876678  67.4575806  41.1802406  24.4655666  67.9963226
  42.0791855  24.7696056  66.8171539  43.5815926   3.6095972  73.5538406
  43.3421669   4.2389789  74.2341232  44.2523994   3.0610325  73.9604340
   6.1108174  40.9410172  46.8308372   5.3721828  41.0088234  47.4358597
   5.7324853  40.5759697  46.0309372  75.8961029  53.7286072  20.7857132
  75.3293610  52.9863739  20.5756397  76.6992645  53.3295403  21.1202412
  51.6280441  27.8609772  25.8440437  51.0151978  28.1761875  26.5083427
  52.3773766  28.4529819  25.9093132  72.4785309  14.9679537  46.4085312
  72.8775177  14.2848082  46.9473724  72.1845398  15.6274729  47.0368881
  63.4985809  55.7522507   3.6477129  63.8574753  56.5656624   3.2930486
  64.2522430  55.1655731   3.7112474  50.6178589  58.9225922  75.3445892
  50.3538322  59.7426376  75.7617798  51.4979172  58.7548943  75.6816483
  67.0167236   1.2240068  85.9722214  66.4756699   0.5783487  86.4267731
  66.4923401   1.4857081  85.2154083   3.7158508  25.4826164  53.1681328
   3.1344109  24.7229366  53.2004471   3.5943475  25.8399792  52.2884979
  72.4001083  11.5545359   8.9514294  71.8577194  10.7708473   8.8626661
  72.0541382  12.1607141   8.2963848  84.3341293  10.6762295  87.8329239
  85.2218475  10.4059601  88.0677719  83.9951553  11.0974627  88.6227951
  82.5615845  46.8223724  38.7959938  83.0455475  47.5820389  39.1199074
  81.9100266  47.1902237  38.1990051  61.1171150  14.4377069  62.3301659
  61.3200073  13.5484800  62.0397530  60.1608734  14.4798632  62.3224487
  55.4744759  21.4439373  10.8541498  55.1394768  22.3404789  10.8689871
  56.4244766  21.5442028  10.7934723  47.1671486  44.5995293  45.0587044
  46.9547768  43.7819443  45.5089111  47.8409195  45.0053215  45.6042290
   9.6724834  68.7808456  55.4111328  10.0250149  68.1053696  54.8317413
   9.1770334  69.3591309  54.8311806  76.3440018  56.7122993  78.8217850
  76.8572540  57.2187691  79.4513016  76.4781647  57.1611824  77.9870758
  81.1375046  50.6132393  66.7888947  81.6603622  51.4149094  66.8021393
  80.5038223  50.7521782  66.0850677  69.5268860   9.3426151  69.7174530
  69.9457245   9.9715614  70.3050156  70.1832352   8.6570425  69.5932465
  29.5284290  53.3989372  48.7809067  30.1138630  53.9949303  49.2481232
  29.3369465  52.7064972  49.4134369  79.3987198  11.5986528  55.6611710
  80.0523605  11.5884809  54.9619675  78.7370377  12.2219992  55.3614235
  61.1568222  32.7195702  10.8927841  61.1201668  31.7769890  10.7302151
  60.3220100  33.0521317  10.5630484  66.6058502  18.5267715  19.4132252
  67.3205872  17.9302006  19.6356831  67.0358963  19.2659645  18.9832458
  46.1702728  49.1996651  14.9578323  46.6229286  49.3595543  15.7859449
  45.7591820  48.3426971  15.0711536  29.9584904  29.2460995  57.2275467
  30.5741272  29.1819038  57.9576874  30.0442848  30.1486721  56.9205704
  76.2609406   2.2987645  81.9337158  76.5299988   2.5966303  81.0647354
  75.7430038   3.0228524  82.2853775  68.9229813  59.4549751  10.2254419
  69.8638458  59.3480034  10.0855427  68.8442764  59.7002602  11.1473265
  54.3095512  62.9110069  40.6371613  55.2626991  62.9818192  40.5849380
  53.9985580  63.8141899  40.5757256  63.6562729  51.7775803  77.4404907
  62.7338753  51.5248718  77.4010620  64.1276855  51.0172310  77.1000900
  53.9263153  32.9097748  18.0689850  53.8978996  32.0420799  18.4721355
  54.7171173  32.8975754  17.5298042  72.4426117  35.5098190  21.4952812
  72.6628494  36.4212265  21.3027534  71.5192719  35.5344391  21.7464104
  67.2331085  48.5040627  84.5164108  66.5142593  48.8161392  83.9667740
  67.0679779  48.8978539  85.3730850  65.0560684  26.1328411  15.8969278
  64.6350479  25.3944969  15.4566736  65.7465897  25.7339249  16.4263382
  86.4068985  65.6888885  40.3196297  86.4288635  64.8521194  40.7839127
  86.2851105  65.4498596  39.4007912  30.0043335   1.1278460   7.5629044
  29.5231533   1.7768382   8.0762320  30.9236488   1.3726875   7.6684823
  35.8453636  56.4043694  72.5108795  34.9597321  56.3442612  72.1527252
  35.7229118  56.3698082  73.4595871  50.3804092  18.9793606  76.9962540
  50.2511139  19.7494392  77.5498810  50.8747902  18.3703156  77.5447845
  42.0566483  32.6036758   4.9704757  41.6757317  33.4720802   5.1008692
  43.0012474  32.7442780   5.0352964   7.9162760  63.2374115  55.7142639
   8.1759109  62.4531174  56.1976967   7.1194248  62.9800911  55.2505302
  38.6732521   0.2992549  35.4589386  37.9674759   0.9454170  35.4347534
  38.3132782  -0.4298314  35.9639969  16.2097282  50.3215027   4.9160247
  15.6029816  50.7284851   4.2975936  16.6358833  49.6280556   4.4122853
  77.5601044  31.0277843   7.7034178  77.6592102  30.5754585   6.8656764
  77.1833649  31.8772545   7.4738550  28.5937386  61.3685226  38.0993271
  27.9371605  61.0703659  38.7288017  28.3830757  62.2905769  37.9521217
  71.8712845   6.5282207  29.8862476  70.9310760   6.3598323  29.9486465
  71.9363022   7.3406467  29.3842831  63.1856842  68.8175354  57.8312416
  62.5373077  68.2115097  57.4726677  62.7880936  69.1434784  58.6386528
  39.5994110  60.1245193  40.7298203  39.5855789  59.5892448  41.5232430
  38.8314362  59.8390465  40.2348938  73.0532532  63.1336212  61.5211411
  73.1403351  63.0496750  62.4706688  72.1723480  62.8104706  61.3319168
  85.7125702  43.7871666  67.1815643  84.7686386  43.9370651  67.1291199
  86.0334473  43.9693184  66.2983322  79.2184296  62.9317970  51.6302032
  79.5288162  63.7458534  51.2337151  79.1391296  63.1344109  52.5623474
   2.4538252  24.8476944  74.7441025   3.2992718  25.1441212  74.4070816
   2.4034381  23.9267769  74.4879684  38.5424118  43.8880463  54.0490303
  39.0707664  44.3540955  54.6970062  39.1752777  43.3697205  53.5519867
  85.4908524  58.7690468  52.8592148  84.7077408  59.2434158  52.5800323
  86.2008286  59.1565857  52.3473778   1.2415394  47.8379059  22.1692123
   2.1445744  47.7419968  22.4718018   1.2815466  47.6478729  21.2319202
  71.1668549  64.3824387  49.0364189  72.0914459  64.2496414  48.8273163
  71.1121368  64.2399521  49.9813728   0.6327351  50.9927902  49.8380241
   1.1699752  51.4589691  49.1974945  -0.0728804  50.6039810  49.3211441
  84.4122314  19.3621655  26.2199554  85.3258972  19.3796825  26.5048046
  83.9119415  19.2423496  27.0271664  43.8144989  43.8738556  77.7356339
  43.2250977  44.0239029  78.4747772  44.4197311  43.1998558  78.0449142
  75.7365189  49.2309875  47.6633644  75.7204819  49.4974022  48.5825996
  75.9942398  50.0216141  47.1893120  79.2933426  32.6081047  84.4026337
  78.4643784  32.9539528  84.0718307  79.7714233  33.3802948  84.7049637
  52.2699852  51.4156952   3.8963366  51.8597832  50.5518341   3.8549621
  53.2072067  51.2328606   3.9628110  81.5226669  51.9342117  29.4460220
  81.2347717  52.2627068  30.2977486  81.7783051  52.7186584  28.9607124
  27.7214375  21.2891121  61.9411736  27.5395908  21.1019726  62.8621216
  27.0368385  21.9060402  61.6824150  52.2652931  30.6447048  23.4692841
  51.6696587  30.9507160  24.1532478  51.9678116  31.0898895  22.6758442
  58.1759186  11.3010540  36.9671783  58.8278084  11.3373089  37.6671448
  57.5701981  12.0148382  37.1667900  86.0719833  14.9942474  67.0711594
  86.8881073  15.1052980  66.5834732  85.4071198  14.8546457  66.3968430
  67.8884583  16.3947964  62.3630829  68.3030167  16.3646793  63.2253304
  68.5780945  16.7054825  61.7764778  40.6735039  37.8308296  57.7538300
  40.8742714  36.9072876  57.6022148  41.5125542  38.2213516  57.9982071
  57.1885681  14.0850515   4.9100766  58.1025162  13.8283777   4.7873826
  56.7254372  13.2599573   5.0548491  20.8665314   8.7717295   7.4768825
  20.5677929   8.0925837   6.8721118  20.0609093   9.1662741   7.8108568
  72.5348663   3.3662786  55.6152573  71.7759933   2.8002157  55.7563438
  72.2622452   3.9630561  54.9182892  39.1432076   8.7640810  76.8141556
  38.7208748   8.9958839  75.9870300  38.8927078   7.8524327  76.9637527
  46.6502304  13.4368134  33.1349754  46.7232895  12.7372017  32.4857941
  47.5454521  13.7580853  33.2426491  77.5127563  16.8690510  14.7233725
  76.6999435  16.8675861  14.2178335  77.6359100  15.9555807  14.9815159
  57.5424576  24.5088577  61.6077461  56.6419678  24.5755939  61.9253845
  58.0503311  25.0502872  62.2120209  34.3744011  59.7529831  51.3434067
  33.8588638  60.4565430  51.7376900  35.2840385  60.0017319  51.5074615
  56.8078995  43.1765518  22.5421944  56.9619980  42.7147713  23.3663559
  56.9983864  44.0930901  22.7419434   9.9130049  14.2741356  86.0466309
  10.0818510  14.7167721  86.8783722   9.8707657  14.9814901  85.4031219
  82.0299683  39.3949814  73.6770477  81.8231659  40.1406860  74.2404251
  82.7275162  38.9311066  74.1401749  76.5608292  68.8054352  79.9396515
  75.9875793  68.7899246  79.1732483  75.9732132  68.6606369  80.6812515
  58.4633293  70.9548950  87.6165009  58.0052338  70.1146240  87.6346436
  57.9025574  71.5443497  88.1207886  84.2534485  14.2656336  20.6591454
  84.1208649  15.0395613  20.1117058  85.1983185  14.2377558  20.8096886
  13.9576349  17.4941483  73.7420578  13.7381039  18.4118080  73.5810013
  13.8836260  17.0760460  72.8841858  38.0923462  44.4733887  74.5017319
  38.9426575  44.3292389  74.0864944  38.2786369  45.0667953  75.2293320
  21.3315697  48.0568619  61.6433754  20.6390800  48.1875648  62.2911453
  22.1279049  47.9468269  62.1629677  52.7055244   9.6757469  64.3799744
  52.7259636   9.8248615  63.4346809  53.1483688  10.4382734  64.7523651
  37.3771019  35.8198967  86.9408646  37.6054840  36.0883942  86.0509262
  36.8542976  35.0265045  86.8249435  29.6254101  44.9295120  44.4482422
  30.5781822  44.9069023  44.3590889  29.4639778  45.5828972  45.1288719
  38.9229088  40.3813896  69.8709412  39.4679680  39.6788330  70.2252884
  39.0473137  40.3263550  68.9234619  74.0515289  19.7745800  51.4327049
  73.2923508  19.7724266  50.8497162  74.3888702  18.8798161  51.3899612
   0.2074687  41.4650192  86.4852829   0.2946754  41.9206161  85.6479874
  -0.2839886  42.0723190  87.0383530  51.1857376  69.2128296  75.9451599
  51.2254295  69.3971710  76.8835983  52.1012230  69.1284409  75.6787109
  82.3890152   2.6818936  57.8173904  82.5005875   3.1859152  57.0113220
  82.7057495   3.2629426  58.5089760  41.9232216   8.1801586  21.1526127
  41.6067772   7.2963243  21.3395081  41.2265129   8.5787220  20.6311016
  84.6965942  64.7304611   0.1955356  84.4619522  64.9126129   1.1054803
  85.6530838  64.7652130   0.1832694  68.2402802   7.1876822  79.8332977
  68.1854172   7.9733038  79.2892151  67.8664474   7.4519267  80.6739197
  72.7823334   9.8473520  77.0046616  71.8506241   9.6774626  76.8657990
  72.8074570  10.6929178  77.4525681  83.8979034  13.5720654  15.4663553
  84.6998520  13.8412828  15.0184412  83.9785156  12.6220770  15.5515366
  69.3510590  22.7092991  71.8481979  68.6668320  23.2365990  72.2605362
  70.1636658  23.1755829  72.0443497  33.2866783  10.0275602  60.3731003
  33.2341080   9.7645302  61.2919502  34.1118469   9.6538296  60.0638161
  42.5923157  62.7713509  71.1787186  42.9035492  63.3198929  70.4586716
  43.2307892  62.9095268  71.8783493  82.9535141  62.2311401  63.9519653
  83.2987823  61.7357292  64.6946564  83.6941223  62.7567978  63.6496201
   7.4867935   5.8631539  26.1358128   7.0744605   5.1130037  26.5641689
   8.2479401   6.0618134  26.6811790  59.3690987   9.8227062  48.9153976
  59.3023643   9.0227518  48.3940010  59.5796547   9.5167322  49.7975960
  76.8218994  61.5845909  50.6916885  77.6030273  62.1112938  50.8609848
  76.1769638  61.9027367  51.3234138  80.5119095  20.2430305   6.1436090
  79.8240509  20.9086075   6.1535430  80.5301666  19.9309540   5.2388954
  30.8002281  51.3359489  15.2087040  31.6174450  51.2046967  14.7279110
  30.9771080  50.9857216  16.0817947  82.7007675  24.0933304  19.8954601
  83.1314621  24.2320423  19.0519581  81.7923965  23.8922462  19.6703777
  86.7707262  71.5944742  89.1310360  90.0000000  90.0000000  90.0000000
