QMMM reactant CHA#2 frame 40485
 55680
  30.5468483  44.8359032  33.8714790  30.8876991  45.6831894  33.4401627
  29.6764393  45.1505203  34.2758484  31.2134705  44.3960686  34.4897499
  30.2406826  43.7895126  32.8516922  29.4501801  44.2217064  32.2381630
  31.5315895  43.3965225  32.1225815  32.0208168  44.2824097  31.7176628
  32.2382088  42.9927216  32.8476601  31.4225578  42.3333740  31.0510159
  30.8809566  41.4413452  31.3657379  30.8444023  42.8143387  30.2620220
  33.0697174  41.8790588  30.4221039  33.8995667  43.3153267  29.6283798
  33.5941086  43.4758682  28.5944443  33.7854729  44.1357193  30.3369274
  34.9319649  43.0309715  29.4249229  29.6431942  42.6610489  33.5444183
  30.2529640  42.3857841  34.6447601  28.6353626  42.0004921  33.0468979
  28.2493916  42.3375931  32.1765594  27.9959240  40.8973083  33.7215881
  27.7356262  41.3480415  34.6792870  26.7523251  40.6389427  32.8752861
  27.0236435  40.2106285  31.9103813  26.1450710  39.9247551  33.4314156
  25.7289181  41.7764816  32.6869812  25.8169479  42.5648117  33.4345665
  24.7034683  41.4114075  32.6297417  25.9502468  42.5792770  31.0936890
  24.5546455  43.7535591  30.8916130  24.8455029  44.4982719  30.1507378
  24.4189148  44.2422981  31.8563995  23.6630993  43.1698341  30.6624622
  28.7515812  39.6033287  33.8425217  29.7278557  39.2361679  33.2495995
  28.1953430  38.8479004  34.8261375  27.4759407  39.2117767  35.4345398
  28.7497711  37.5353661  35.2938538  29.7391930  37.3033791  34.8997383
  28.9883003  37.6749077  36.8296814  28.0471992  37.7846146  37.3685760
  29.5488777  36.3279495  37.4408188  29.0312939  35.5484123  36.8817711
  30.6320934  36.2433090  37.3537445  29.4197235  36.2203941  38.5177841
  29.8624249  38.8605690  37.2509918  29.3971386  39.7900696  36.9229088
  29.9386177  38.9582787  38.3339272  31.2907085  38.7219353  36.7471199
  31.6280212  39.7438774  36.5740738  31.8344688  38.1132851  37.4695969
  31.4276791  38.2606812  35.7690659  27.7868748  36.4041557  34.8973274
  26.5748005  36.4260712  35.3030586  28.2584667  35.4797363  34.0851746
  29.2077942  35.4448242  33.7421608  27.3744812  34.5192184  33.4435654
  26.4225941  34.4647827  33.9718132  27.1741905  35.0017700  31.9199886
  28.1472855  35.1760406  31.4608383  26.5678959  34.2711220  31.3845844
  26.4002628  36.3631630  31.8923149  25.5596581  36.2162132  32.5704651
  27.0194244  37.2239189  32.1449738  25.6822395  36.7816429  30.5782528
  26.5591793  37.1853371  30.0721817  25.3224106  35.9601898  29.9587021
  24.6190166  37.8234062  30.7838764  23.7131443  37.5590820  31.1439133
  24.6483707  39.1123581  30.2367897  25.5664978  39.5422859  29.4334183
  25.4926605  40.4755173  29.0543022  26.2763577  38.8866730  29.1395340
  23.7455196  39.9337616  30.6051655  22.9948368  39.5224380  31.1412487
  23.7025604  40.8279343  30.1374969  28.1197071  33.1463051  33.5013771
  29.1712704  33.0021591  34.1716385  27.7233028  32.1275673  32.7754021
  26.9384499  32.2029610  32.1441917  28.4922562  30.8977585  32.5435066
  29.5525913  31.1465473  32.5870132  28.1547508  30.1726227  33.2840271
  28.2537060  30.3435860  31.1247253  27.4269314  30.8631134  30.3947830
  29.0115280  29.2652702  30.8527012  29.4840908  28.8306408  31.6323681
  29.1339111  28.5218487  29.6116219  28.2501507  28.7275524  29.0076694
  30.3016014  29.0275154  28.6670170  31.1144428  28.3620605  28.9578133
  29.9032154  28.6673756  27.1906872  29.6986885  27.5999699  27.1075783
  28.9544163  29.1478233  26.9518337  30.7113781  28.8432159  26.4807205
  30.7436085  30.5051899  28.8925648  29.8153400  31.0635471  29.0136395
  31.2858486  30.3659935  29.8278179  31.5749378  31.2461624  27.8678036
  32.5942802  30.8606110  27.8480148  31.1807518  31.2396832  26.8515968
  31.5941372  32.2790794  28.2153873  29.0718517  26.9878998  29.9907112
  29.9698925  26.5093479  30.6433067  28.1922283  26.2878628  29.2645245
  27.5072861  26.7992229  28.7265072  28.1113319  24.8669357  29.0817394
  28.7228775  24.3039722  29.7868519  26.6519814  24.4586449  29.3187675
  25.9303932  25.0886173  28.7986279  26.6900692  23.4601307  28.8833141
  26.1687775  24.2928085  30.7012215  25.9858437  25.2439804  31.2011280
  25.1473866  23.9154129  30.7505779  27.0730743  23.4023495  31.5642147
  28.0625534  23.8412380  31.6923084  26.5909424  23.2600136  32.5313683
  27.2756176  22.0431194  30.9919777  28.1189137  21.9589901  30.4425449
  26.4319305  21.0894928  30.7670918  25.2307434  21.0112267  31.3309994
  24.8517036  21.7429047  31.9150200  24.5310459  20.3485451  31.0287151
  26.6842499  20.1450329  29.8473568  25.8793736  19.5757275  29.6278839
  27.5906982  20.0531445  29.4114571  28.6480980  24.3243866  27.7574177
  28.6763802  24.9853592  26.7495937  28.9416656  23.0061798  27.8552437
  29.0161438  22.5950508  28.7747726  29.2764359  22.1915779  26.7150669
  28.6031361  22.4801121  25.9079018  30.2972069  22.5544262  26.5947895
  29.2030621  20.6470356  26.9551907  29.2164268  20.2325821  28.0997543
  29.1720104  19.8374233  25.8488884  29.2468910  20.4043598  25.0163765
  29.4368305  18.3878193  25.9822521  30.1879578  18.1959286  26.7484665
  28.0829849  17.7130051  26.2753315  27.4390697  17.6521587  25.3979645
  28.1578903  16.6947308  26.6569157  27.5452156  18.4066410  26.9216919
  30.0532074  17.8088036  24.6927376  29.9475994  18.5036926  23.6804695
  30.7453079  16.6951084  24.7553368  30.7428150  16.1683960  25.6171188
  31.4097290  15.9335146  23.5529575  30.8421345  16.1406822  22.6457500
  32.8126678  16.4821434  23.2229767  32.6612549  17.5220699  22.9336205
  33.8071976  16.4211349  24.3735523  34.5794449  17.1869392  24.3008652
  33.3994904  16.6853142  25.3492985  34.2880974  15.4460726  24.4516258
  33.2778053  15.9482145  21.9430332  33.8976517  16.6243095  21.6596889
  31.4304390  14.4439325  23.8917694  31.2002602  14.1626740  25.0463047
  31.7307739  13.5332823  22.9590893  32.0098114  13.8049259  22.0271854
  31.8312492  12.0464058  23.1818829  31.9832401  11.8659267  24.2460384
  30.5464344  11.2813606  22.7424641  30.7923145  10.2194815  22.7349663
  29.3233128  11.4047937  23.6188641  28.4048328  11.0180664  23.1773529
  29.3402176  10.7655382  24.5015678  29.2946739  12.4112139  24.0364761
  30.3468819  11.6956329  21.4337044  30.8755798  11.1664953  20.8319626
  33.0320358  11.3169498  22.6236610  33.8077850  11.8422260  21.8452873
  33.2165451  10.0946150  23.1198025  32.4949112   9.6708031  23.6852474
  34.3777504   9.2374783  22.8277664  34.9254990   9.5736885  21.9474049
  35.5040169   9.2782593  23.9410172  36.2167206   8.4618464  23.8242874
  36.2571640  10.6711082  23.9349575  36.7255135  10.8900738  24.8945351
  36.9835739  10.6209459  23.1238365  35.5689087  11.4861803  23.7112198
  35.0258293   9.1434994  25.3466663  34.3155594   9.8691874  25.7428951
  34.3695107   8.2737360  25.3759251  35.8270607   9.0581560  26.0807266
  33.9791374   7.7767577  22.6609840  32.9839249   7.3851218  23.2232876
  34.7426186   7.0011592  21.8467102  35.5661697   7.4022441  21.4212780
  34.4373703   5.6334338  21.4771156  33.3504181   5.5643430  21.5202389
  34.9180717   5.4895034  20.0000458  35.9996910   5.4894762  19.8651543
  34.6280937   4.4942231  19.6632500  34.3320885   6.5103102  19.0130653
  34.5827370   7.5525837  19.2104015  34.6935692   6.1305785  18.0574303
  32.8340454   6.3729172  19.0008450  32.3143806   5.2830491  18.7618904
  32.0446167   7.3493876  19.3393517  35.0267296   4.4737411  22.4335957
  34.6240311   3.3193009  22.3555393  36.0785561   4.8226862  23.2223110
  36.1985435   5.8228598  23.2954941  36.7355156   4.0149975  24.2163601
  35.9721565   3.3327215  24.5903645  37.8341599   3.1395669  23.6249905
  38.2329369   2.4738398  24.3904190  37.3936920   2.6382606  22.7631416
  38.9906578   4.0078597  23.0513000  38.7444229   4.3827786  22.0578690
  39.2039528   4.8226762  23.7431679  40.2224464   3.1638842  23.0066051
  40.5726204   2.9026690  24.0052261  40.0523911   2.2051399  22.5167103
  41.2805252   3.9681408  22.3778419  41.0902138   4.9462838  22.2131691
  42.3836479   3.4298832  21.8138409  42.7595749   2.1765807  21.9561882
  43.5381317   1.8445653  21.4050827  42.1977577   1.5509485  22.5156937
  43.0251236   4.2511134  21.0890789  43.8661652   3.9066436  20.6485100
  42.7917023   5.2324405  21.0379791  37.2520142   4.8697639  25.4310951
  37.4747887   6.0408106  25.3040333  37.4073181   4.1955409  26.5884304
  37.0843391   3.2438333  26.6886196  37.8853798   4.7640648  27.8921738
  37.3904648   5.7306385  27.9864902  37.3792076   3.8294890  29.0338974
  36.3096237   3.6449795  28.9336605  37.9208374   2.8861055  28.9648514
  37.5926514   4.4083705  30.4232807  37.9359322   5.5916667  30.5031109
  37.5549583   3.7629657  31.4844170  39.4428825   4.9003468  27.7049007
  40.1176949   3.9591484  28.1258316  39.9536743   6.0353060  27.2247524
  39.4183159   6.7615304  26.7707825  41.4073715   6.1624885  27.3071117
  41.7339516   5.7368736  28.2559547  42.0981827   5.3014665  26.2635422
  41.5838242   4.3482094  26.1417065  42.1770248   5.9721799  24.9090443
  41.1816826   6.0827060  24.4787254  42.6195526   6.9682455  24.9201431
  42.6913261   5.2183142  24.3129902  43.4111671   4.9491849  26.6584702
  43.8977013   5.7580366  26.4834232  41.9503098   7.5448136  27.2286034
  41.4398460   8.4251232  26.5776978  43.0968399   7.7809348  27.8365650
  43.6111641   6.9977651  28.2136784  43.6186447   9.1158590  28.0480843
  42.9497604   9.6286020  28.7393074  45.0000801   8.8584509  28.7391701
  44.7028236   8.5496674  29.7413654  45.6224480   8.0665941  28.3223686
  45.7550392  10.1703682  28.9314957  46.1069565  10.5289993  27.9642124
  45.0280380  10.8487978  29.3779316  46.9434242   9.9486866  29.9442921
  47.8423271   9.1190634  29.5995922  47.1450958  10.7485085  30.9010849
  43.8255234   9.9437542  26.7294960  43.4223099  11.1076002  26.6872654
  44.5170250   9.4075193  25.7522259  44.8464813   8.4555340  25.8249092
  44.9824066  10.1050901  24.5614262  45.4616051  11.0472174  24.8276329
  46.0370369   9.2905226  23.9113083  46.3498688   9.8239288  23.0136929
  46.8540916   9.2024899  24.6273918  45.6370583   7.7797251  23.5175571
  44.6034126   7.5893168  23.2287273  46.1303864   7.5295582  22.5783310
  45.9550705   6.7165165  24.6174507  45.3098450   6.7512240  25.6698704
  46.8561211   5.8717175  24.4486370  43.7687187  10.3406296  23.6141834
  43.9058037  10.9584055  22.5911942  42.5884132   9.8932219  23.9385300
  42.6444206   9.3906145  24.8128014  41.3101768  10.4400434  23.3859100
  41.5093040  11.0803556  22.5265789  40.4610901   9.2820911  22.7851181
  40.4968758   8.4035769  23.4293499  39.4553261   9.6241961  22.5411873
  40.9845200   8.8581934  21.3874798  40.3783264   9.3212442  20.6088829
  41.9612122   9.3359232  21.3103752  41.0942726   7.3417501  21.0326748
  42.1676903   6.8737168  20.5623722  40.1702080   6.5475874  21.2707825
  40.4637756  11.3435898  24.3255215  39.9766960  12.3733358  23.8895950
  40.3953133  10.9568453  25.5951424  40.9323196  10.1411142  25.8526402
  39.7324028  11.7354498  26.6388435  38.7031479  11.9101982  26.3254776
  39.6152954  10.8562336  27.8667030  40.5637436  10.3622122  28.0776215
  39.4472885  11.6626234  29.1644955  39.2163277  11.0744848  30.0526695
  40.4008331  12.0897093  29.4750671  38.6952553  12.4488201  29.0978680
  38.5350685   9.7225962  27.7173519  37.5936775  10.2702980  27.6737213
  38.6602783   9.2873735  26.7258854  38.5476227   8.6478605  28.7306519
  37.9884453   7.7626204  28.4277267  39.5690346   8.3628454  28.9828053
  38.0195465   9.0787554  29.5812798  40.3592339  13.1025095  26.8650436
  39.6098022  14.1055622  26.7317162  41.6772461  13.2717505  27.0261345
  42.3436089  12.5215788  27.1414757  42.1675797  14.6646833  27.1881580
  41.4718285  15.1412907  27.8787212  43.5769234  14.5632410  27.7279530
  44.2395058  14.0634966  27.0213146  44.0331497  15.5510654  27.7924500
  43.6829987  13.8241930  29.1061249  43.3923683  12.7771397  29.0205784
  45.1617775  13.8770342  29.6512394  45.0946236  13.2049465  30.5067444
  45.8980598  13.4098167  28.9972477  45.3745956  14.9088392  29.9308605
  42.8894920  14.3818798  30.2796459  43.2730370  15.3960409  30.3913651
  41.8550224  14.4714108  29.9480553  42.8746872  13.7427702  31.1624928
  42.1264572  15.4675474  25.8448429  41.8070984  16.6928349  25.8854275
  42.2879372  14.8143663  24.6648273  42.3964005  13.8104658  24.6420231
  42.2190056  15.4953108  23.3938522  42.9521179  16.2998295  23.3355885
  42.6710701  14.4996471  22.2778015  43.5250740  13.9083567  22.6081905
  41.8452988  13.8069839  22.1152363  43.0104485  15.1491041  20.9652443
  43.0477448  14.3758545  20.1979160  42.3637505  15.8666468  20.4602451
  44.3896103  15.7254629  20.9938164  44.9093666  16.3199749  21.9044762
  45.1199417  15.5361767  19.8636742  44.5925903  15.0622272  19.1443863
  46.0148010  16.0001297  19.7998180  40.8258209  15.9734688  23.0154877
  40.7139664  17.1859360  22.8004036  39.7629280  15.1758728  23.2637577
  39.9485550  14.2202482  23.5328770  38.3681068  15.6989851  23.1303787
  38.2632027  16.1939163  22.1649017  37.3916931  14.5753317  23.3262062
  37.8399353  13.9143324  24.0680027  36.4021530  14.9503412  23.5875015
  37.1505127  13.6911879  22.0105991  38.0940895  13.4552765  21.5185547
  36.6735649  12.7274113  22.1888142  36.2750244  14.4215794  21.0072727
  35.2925110  14.5149899  21.4699211  36.6473579  15.4220819  20.7871113
  36.0878677  13.7212267  19.6158466  35.4108047  14.3585291  19.0470505
  36.9840050  13.7294731  18.9953785  35.5365562  12.3810892  19.6355076
  36.2019386  11.7655516  20.0810127  34.7250404  12.2866955  20.2293434
  35.3519897  12.0449867  18.7011242  38.0839310  16.8553104  24.1400280
  37.5091133  17.8943920  23.7577267  38.4828758  16.7102070  25.4239235
  39.1229134  15.9539595  25.6202488  38.1982727  17.5864277  26.5747280
  37.1105423  17.5862865  26.6450539  38.8096123  17.1293850  27.9227314
  39.8862267  17.1466312  27.7532692  38.5151596  18.0866394  29.0760841
  38.1835556  19.0539894  28.6987572  37.7977142  17.7457886  29.8225384
  39.4742928  18.4527626  29.4423046  38.4531326  15.9043722  28.3211422
  38.9431877  15.3221235  27.7359619  38.9315643  18.9088840  26.2889595
  38.3037834  19.9927559  26.3264523  40.2041931  18.8851814  25.8019085
  40.7722092  18.0523319  25.7401276  40.9700012  20.0760899  25.4638138
  40.9768486  20.6614494  26.3832779  42.4452248  19.6183796  25.3348427
  42.8473358  19.2031555  26.2589626  42.4825668  18.8198318  24.5938797
  43.3623505  20.7932720  24.9551773  43.2944221  21.0842762  23.9069386
  43.1046982  21.6374435  25.5947762  44.8396988  20.3886719  25.1756897
  45.3831596  21.2149200  24.7173615  44.9725075  20.3741970  26.2574711
  45.2831955  19.0447350  24.6706944  46.3118248  18.7584114  24.8898773
  44.6812668  18.3396034  25.2439060  45.1048279  18.8311214  23.2316360
  44.1872635  19.1726151  22.9835281  45.7355423  19.3760796  22.6612606
  45.3255463  17.8884392  22.9440041  40.3610344  20.8252621  24.3408756
  40.2055855  22.0303192  24.4069271  39.9210091  20.0895729  23.3598576
  40.3950806  19.1982193  23.3307915  39.2148056  20.5255814  22.1049500
  39.8109093  21.3563175  21.7272778  39.0379143  19.4484081  21.0796452
  39.9472542  18.8744793  20.9012794  38.3200874  18.6786060  21.3628864
  38.7189789  19.9986038  19.7212086  38.2077370  20.9581528  19.7986526
  39.6427269  20.1220074  19.1559124  37.7645264  19.0267124  19.0275421
  36.5647163  18.9687920  19.3008347  38.2217865  18.2180691  18.1102791
  37.4773788  17.7204666  17.6429977  39.1941681  18.2815514  17.8446827
  37.8306923  21.1792641  22.4011612  37.5276909  22.1955662  21.7036610
  36.9472351  20.6426258  23.2727699  37.2723122  19.8008461  23.7264595
  35.7179108  21.2637615  23.8412571  35.1271133  21.4433155  22.9430218
  35.0162964  20.2534161  24.7986717  34.6896782  19.3885136  24.2212963
  35.7486801  19.9331913  25.5397339  33.7488976  20.6337814  25.5437088
  33.9508858  21.3994141  26.2927799  32.7026100  21.1892681  24.6183090
  31.8443127  21.4877090  25.2202682  32.9942932  22.1131630  24.1188679
  32.4910164  20.4263821  23.8690872  33.2142525  19.4728870  26.4039726
  32.3944206  19.8914852  26.9877110  32.7330284  18.7679081  25.7260818
  33.9925308  19.0315723  27.0265713  36.0387802  22.6554623  24.4546566
  35.2994003  23.6159153  24.1952229  37.0825615  22.7596455  25.2373486
  37.6834412  21.9525280  25.3245811  37.5608597  24.1058426  25.6891670
  36.7922096  24.7478561  26.1193943  38.6664543  23.9212551  26.7575245
  39.4793739  23.2975216  26.3857403  39.0121117  24.9085770  27.0638351
  38.3008232  23.0931110  27.9733315  38.0663414  22.0756779  27.6603661
  39.4115906  23.0958252  28.9558964  39.0970459  22.5364494  29.8369560
  40.3208656  22.5936432  28.6255531  39.6512146  24.1311703  29.1982880
  37.0834389  23.6746273  28.6979008  36.8557625  23.2001896  29.6524601
  37.3066444  24.7273617  28.8711967  36.2396240  23.5540791  28.0185318
  38.0634499  25.0699730  24.6204605  37.4615746  26.1773930  24.5181122
  38.9921913  24.6502762  23.7430954  39.3426628  23.7045784  23.7972050
  39.5179749  25.4658833  22.6588345  39.8788719  26.4056549  23.0767937
  40.6844749  24.7908230  22.0036449  40.5121346  23.7745075  21.6493797
  40.9548798  25.3448181  21.1047173  41.9239197  24.7198296  22.8940487
  42.1299171  25.5916710  23.5149803  41.8480682  23.8741245  23.5775223
  43.1564026  24.5011082  22.0256462  43.2940636  23.3784275  21.3873100
  43.9410133  25.4340553  21.9173431  38.4320221  25.8732719  21.6400700
  38.6066322  26.8174210  20.8926563  37.2936478  25.1669598  21.5574245
  37.2313461  24.3805866  22.1881676  36.0411148  25.5323982  20.8983822
  36.2490921  26.1396999  20.0174561  35.3209801  24.2531853  20.4621906
  35.4407272  23.4031334  21.1338844  34.2762070  24.5278206  20.3168468
  35.8092003  23.8637123  19.0924263  35.5547752  24.6704483  18.4050083
  36.8967590  23.7917881  19.1045761  35.2416496  22.4460106  18.6675739
  35.3271980  21.7254829  19.4809761  34.2105484  22.5598354  18.3329525
  36.1394653  21.9310322  17.5681705  36.0909653  22.6891613  16.7865124
  37.1593323  21.8930149  17.9509621  35.6141090  20.6055202  17.0939369
  34.7397652  20.5955353  16.5884457  36.2726021  20.1817112  16.4560719
  35.6020737  19.9283199  17.8431740  35.0806732  26.4458809  21.7111759
  34.5848503  27.3897896  21.0204449  34.9631386  26.3112164  23.0269146
  35.5710869  25.6435108  23.4793224  34.2394485  27.2817669  23.8489113
  33.2249413  27.4736118  23.4995213  33.9651642  26.7126446  25.2979889
  34.8662415  26.3647938  25.8031235  33.4650154  27.8859177  26.1942387
  33.3379440  27.4319038  27.1770000  34.2247581  28.6475830  26.3696060
  32.5882339  28.4047127  25.8066730  32.8842049  25.6087208  25.3246593
  31.9476776  26.1255016  25.1150074  33.1419029  24.8237972  24.6136112
  32.8870621  24.8382759  26.6361637  32.2980957  23.9309292  26.5022011
  33.9319382  24.6815739  26.9040833  32.4115486  25.4445229  27.4071712
  35.0315895  28.7102947  23.8067322  34.4235611  29.7387657  23.5314960
  36.3254433  28.6588898  23.7138863  36.7167168  27.7720871  23.9977646
  37.1946373  29.8532543  23.4972038  36.9724426  30.6716423  24.1820183
  38.6187782  29.4323616  23.9190063  38.8135147  28.4749355  23.4357738
  39.6696739  30.4965744  23.5973396  40.6868858  30.1869583  23.8371601
  39.5988960  30.8455677  22.5671482  39.4983215  31.4236794  24.1443520
  38.7321854  29.0753307  25.3884277  38.9251633  29.9401817  26.0231647
  37.7691956  28.7510414  25.7828789  39.8079033  28.0394173  25.7578983
  40.7908974  28.4969273  25.6460686  39.5788498  27.6491165  26.7495117
  39.6965790  27.2724724  24.9914112  37.0947418  30.4852581  22.1889935
  36.8515701  31.6714516  22.1230049  37.2565842  29.6980152  21.1189556
  37.3417664  28.6973972  21.2266998  37.1461067  30.1971169  19.7382889
  37.9879913  30.8609772  19.5417747  37.2898979  29.0371742  18.7688522
  38.2098694  28.4544716  18.8158512  36.4555931  28.4019375  19.0663757
  37.1712685  29.4877071  17.2448254  36.6306152  30.4313927  17.1723595
  38.1617508  29.7195568  16.8532810  36.6615906  28.4824486  16.1781902
  36.6454048  27.2763672  16.5330067  36.2602272  28.8395882  15.0486679
  35.7990379  31.0098839  19.5710754  35.8006973  32.2202606  19.2462196
  34.6804390  30.4154491  19.9379654  34.8371658  29.4988213  20.3320847
  33.2794533  30.9033146  19.6932831  33.1957169  31.1410465  18.6328239
  32.2957268  29.7173901  19.9124813  32.5827599  29.3150444  20.8839912
  31.2800961  30.0808086  20.0690784  32.2392502  28.5758972  18.9433460
  33.2000885  28.0696087  18.8507919  31.5166645  27.8623753  19.3393936
  31.7132969  29.0763264  17.5891285  32.3457260  28.8747520  16.5944080
  30.7458305  29.9484348  17.5594025  32.8495712  32.1130257  20.5476742
  32.1586418  32.9731064  20.0838814  33.3906822  32.1788673  21.8185272
  33.9852257  31.4660339  22.2166328  33.0162125  33.1686821  22.8326950
  32.1874695  33.7519341  22.4313202  32.5630302  32.4127884  24.0842190
  33.3265114  31.7666912  24.5175228  32.3094482  33.2170296  24.7748718
  31.4133682  31.5217705  23.7354412  30.3185577  31.9725208  23.7391224
  31.6009178  30.2414131  23.5183067  30.7939491  29.6862965  23.2718353
  32.5628166  29.9402313  23.4539623  34.1575928  34.1167831  23.1556015
  33.9675598  35.1513596  23.7857971  35.3330421  33.8931046  22.6209240
  35.4746819  32.9826050  22.2073650  36.6177711  34.6707077  22.8402977
  37.3969879  34.2548714  22.2015381  36.5967369  36.0791588  22.2570629
  36.1333237  36.6063843  23.0909595  37.5980721  36.5049744  22.1930046
  35.7998505  36.2755890  20.9391136  36.2204666  36.0453644  19.6230621
  37.1683846  35.8101501  19.3657131  35.1996193  36.2512245  18.7818222
  35.1759567  36.3499527  17.7066040  34.0467873  36.5293541  19.4918327
  33.1733742  36.8156586  19.0731697  34.4332047  36.5933075  20.8531532
  33.8150215  36.8124275  21.7111931  36.9769020  34.4965134  24.3604259
  37.3139572  35.4662361  25.0310154  36.9527397  33.2976303  24.8955994
  36.5810013  32.6701279  24.1969242  37.1490517  33.0652122  26.3695660
  36.6622925  33.9026031  26.8695087  36.4671135  31.8382702  26.9851780
  36.9309845  30.9194717  26.6263828  36.5186424  31.7027035  28.5077763
  37.4486313  31.2906971  28.8995304  36.4169693  32.6632462  29.0128746
  35.7169647  31.0328579  28.8187866  35.1135941  31.7949409  26.6927128
  34.6267929  32.6179924  26.7776222  38.6446304  33.1830826  26.7873077
  39.5511131  33.0308151  25.9758339  38.8858337  33.7035179  27.9789772
  38.1307373  33.7850075  28.6447735  40.2141953  34.0589828  28.6005936
  41.0377426  33.5407600  28.1093559  40.5391388  35.4807587  28.1860924
  41.5464706  35.7576561  28.4970837  40.4983635  35.5154228  27.0974045
  39.5284920  36.5746002  28.6584625  38.5293655  36.4660416  28.2364941
  39.4541664  36.5046272  29.7436752  40.1125259  37.9768486  28.3800735
  41.1321869  38.0565948  28.7569408  40.2366028  38.0455780  27.2993412
  39.3101807  39.1322594  29.0433445  38.3178215  39.2492523  28.6078701
  39.2636032  38.8531532  30.0959740  39.9455070  40.4604225  28.9489994
  40.8648148  40.4880791  29.3663921  39.9518280  40.8932304  28.0364552
  39.4747620  41.1591797  29.5059910  40.2228165  33.7930450  30.0933113
  39.2245445  34.0478592  30.7353249  41.3370781  33.1543884  30.5590935
  42.6723976  33.0540466  29.9094543  42.9758911  33.9047699  29.2993202
  42.7038231  32.2183418  29.2103767  43.6154556  32.8770638  31.0990810
  43.7842827  33.8461380  31.5686417  44.5775757  32.4986496  30.7537746
  42.7737808  31.9898777  32.0353775  43.1186409  31.9940720  33.0693741
  42.9236755  31.0096588  31.5828266  41.4005928  32.5702629  31.9464664
  40.6729698  31.7591820  31.9749050  41.0694618  33.6026688  33.0745506
  40.3737869  33.2866211  34.0497704  41.4755745  34.8817749  32.8502617
  42.0920448  35.0495949  32.0680199  41.3775024  35.9408493  33.8511772
  41.6426239  35.7113686  34.8832359  42.3074837  37.1438179  33.4619751
  42.2807808  37.9412422  34.2046051  43.3439331  36.8142815  33.3892899
  42.0564156  37.7136459  32.1061745  41.0964890  37.3814011  31.7108860
  41.9685669  38.7932472  32.2280045  43.1630936  37.3581734  31.0558434
  43.4909477  36.1358490  30.9640083  43.7325821  38.2458992  30.3233376
  39.8888664  36.4110527  34.0550804  39.5395088  37.0584221  35.0339355
  39.0033646  36.1510353  33.1098518  39.3080063  35.6869049  32.2661209
  37.5338516  36.2869530  33.3613815  37.2991943  37.0572548  34.0960083
  36.8404236  36.5304565  32.0848885  37.1482887  35.9198990  31.2360401
  35.7878075  36.3180046  32.2718811  37.1078033  37.9351463  31.5110989
  37.1115875  38.9736671  32.3015671  37.1364059  38.0706291  30.2712021
  36.8956642  35.0509758  33.9096451  35.7850990  35.1598663  34.4416885
  37.5035057  33.8643456  33.8820076  38.3926506  33.8693848  33.4029465
  36.9079590  32.6297989  34.4188614  35.8371010  32.6893005  34.2243843
  37.4008255  31.3717461  33.6257591  38.4728813  31.3060341  33.8114281
  36.7266655  30.0449238  34.1344604  36.9634819  29.9309254  35.1923065
  35.6570587  30.0807037  33.9276886  37.2440262  29.3361950  33.4878235
  37.2823334  31.4571362  32.1548462  36.2402992  31.5837307  31.8611622
  37.7723503  32.3180237  31.7000256  37.6546135  30.5925941  31.6052322
  37.0591698  32.4774246  35.9684715  38.2308617  32.3597984  36.5433083
  35.9326630  32.4889717  36.6433563  35.1493149  32.5359840  36.0075455
  35.7575951  32.4422569  38.0738182  36.5751572  33.0918427  38.3864365
  34.3491974  32.9981308  38.4921455  33.6050301  32.3737869  37.9976692
  34.0975113  32.8401794  39.9973602  34.1079025  31.7668266  40.1868401
  34.9507866  33.2885780  40.5062447  33.1135292  33.2451859  40.2336960
  34.2069321  34.4107552  38.0088196  34.7500420  35.0917702  38.6640663
  34.5645409  34.5741959  36.9922066  33.1518250  34.6768837  37.9454689
  36.0935135  31.1105900  38.6322556  36.9238243  30.9265213  39.5434723
  35.4919472  30.0688019  38.0805244  34.8516045  30.2712383  37.3261452
  35.6911736  28.6421280  38.3358040  36.7552986  28.4553547  38.4801865
  34.9696999  28.1890106  39.6217957  35.3859024  27.2773285  40.0504112
  35.2488937  28.9354763  40.3653984  33.4441338  28.1998062  39.5568848
  32.9342194  29.0882187  39.1842995  33.2583427  27.3276157  38.9300957
  32.9004173  27.9762688  40.9541321  33.5396118  27.9828892  41.9961052
  31.5771351  27.8152733  41.0338020  31.0925636  27.7107296  41.9137802
  31.1279411  27.8388329  40.1294975  35.1626854  27.7982140  37.2067261
  34.3114319  28.2340775  36.4567299  35.5542603  26.5596638  37.2180367
  36.2333946  26.3267212  37.9283981  35.1898346  25.5076485  36.2757454
  34.2492561  25.7346287  35.7738571  36.3817062  25.4521465  35.2847481
  36.4283676  26.4152756  34.7765121  37.2858009  25.3723660  35.8883705
  36.3876343  24.1846428  34.3609810  36.5773277  23.2758694  34.9321632
  35.3322411  24.2617111  34.0996246  37.2458725  24.2229404  32.8424950
  38.9450188  24.2858582  33.4552002  39.6809502  24.4264584  32.6635361
  39.0275269  25.0551872  34.2229424  39.1215553  23.2704029  33.8098755
  34.9447517  24.0982265  36.8603783  35.5584908  23.6907845  37.8152237
  33.9747086  23.4008427  36.2721863  33.5875206  23.7616138  35.4119377
  33.6238937  22.0014687  36.7317238  34.4174957  21.6559334  37.3942146
  32.3063240  21.8860741  37.5495300  31.4025745  21.9790459  36.9472885
  32.2821465  20.8728352  37.9506111  31.9461479  22.8755608  38.6895561
  32.7965317  23.1023846  39.3325958  31.5806961  24.3203030  38.3520966
  32.5089874  24.8692608  38.1939278  30.9577217  24.2341633  37.4618225
  30.9966640  24.8143253  39.1285934  30.7704144  22.2083855  39.4276314
  30.5758133  22.7734051  40.3392105  29.9676418  22.0827446  38.7010841
  31.1835041  21.2528687  39.7508240  33.6332550  21.2080708  35.4282951
  32.9332390  21.5580540  34.5012245  34.2949028  20.0382462  35.4973602
  34.7499924  19.8305473  36.3747711  34.3518562  19.0735664  34.3959198
  33.7983093  19.4125862  33.5202751  35.7932091  18.7828026  33.8792725
  36.4109650  18.2548580  34.6057358  35.7167664  18.0579929  33.0687714
  36.5904808  20.0502872  33.3494987  35.8745308  20.7759457  32.9635696
  37.4266396  20.6995182  34.3777695  38.0703049  19.9279957  34.8003235
  37.9844971  21.5087948  33.9066353  36.8734245  21.1582584  35.1972771
  37.4836121  19.6763535  32.2148552  37.8833923  20.5518932  31.7032909
  38.2877693  18.9642200  32.4000549  36.8154144  19.3001289  31.4402142
  33.6741333  17.7439213  34.8410721  33.7184868  17.4677162  36.0469131
  33.0774078  16.9059887  33.9265862  32.9919434  17.2126350  32.9680634
  32.6417809  15.5326700  34.2839394  33.2570267  15.1222553  35.0846443
  31.1365833  15.4941902  34.6642075  30.9641476  14.6298447  35.3055153
  30.8661747  16.2866077  35.3620987  30.4010601  15.3766880  33.4751129
  30.6166286  14.5210619  33.0969162  32.9441109  14.5938559  33.0847740
  33.3658257  15.0378351  31.9691982  32.7391319  13.3245850  33.3693657
  32.3775635  13.0691910  34.2771873  32.6143646  12.3053980  32.4283600
  32.2565498  12.7005701  31.4776211  34.0057678  11.7900753  32.1614571
  34.3277740  11.1663170  32.9953308  34.0222015  11.0972242  31.3201561
  34.8566170  12.4651279  32.0694618  31.6711330  11.1565084  32.8731880
  31.6759129  10.8200159  34.0787392  31.0024433  10.4280977  31.9725876
  31.0758533  10.6336193  30.9864483  29.9091492   9.4760199  32.3229446
  29.2615414   9.9926662  33.0313148  29.1445103   9.1735821  31.0098457
  28.4689503   8.3203096  31.0702686  28.2960033  10.3750286  30.6634846
  27.8672581  10.1671038  29.6831589  27.3911514  10.5228539  31.2529659
  28.8633289  11.3037891  30.6030941  30.0134468   8.7965832  29.9500484
  30.1996021   7.8835588  30.1809959  30.3383198   8.2076054  33.1513062
  31.4948025   7.8785787  33.1522980  29.4000759   7.4064202  33.8403511
  27.9855480   7.6795182  34.1081848  27.4731445   8.0628166  33.2257881
  27.9456062   8.4241209  34.9032173  27.3565540   6.3516545  34.5102043
  27.1495781   5.6408224  33.7102165  26.4560471   6.5552769  35.0896263
  28.4740295   5.7029243  35.2836800  28.4980392   4.6177049  35.3827858
  28.4348660   6.1728859  36.2663803  29.8096695   6.2236094  34.6282768
  30.4788933   6.6565895  35.3717613  30.5868244   5.1095014  33.9437675
  30.9615040   4.1236739  34.5395889  30.7048798   5.1908011  32.6145592
  30.2501869   5.9757566  32.1704903  31.4671612   4.2300882  31.6982155
  31.7483559   3.2911854  32.1751747  30.6624432   3.9539113  30.3758392
  31.1936874   3.4593775  29.5626259  29.9116440   3.1926043  30.5875473
  29.9377918   5.1844125  29.8277512  29.0741825   5.0437059  28.9254417
  30.3413448   6.2771592  30.1820240  32.8507652   4.7133970  31.4154663
  33.6389427   3.9647775  30.8065319  33.2407417   5.9670024  31.6929512
  32.5249443   6.5883484  32.0417557  34.5613365   6.6200023  31.5461349
  35.2058983   5.9924378  30.9306660  34.3998795   7.8889322  30.6531487
  33.7210426   8.5807676  31.1517906  35.3924255   8.3304815  30.5637684
  33.9071770   7.7110910  29.2499599  32.9581795   7.1750808  29.2640343
  33.8268623   9.1874819  28.7262878  33.2966576   9.1221485  27.7761707
  33.4170418   9.8857956  29.4560184  34.8409233   9.5225210  28.5082779
  34.8354530   6.9256206  28.4649620  34.7292824   5.9081874  28.8413296
  34.5092354   6.9528499  27.4252777  35.8493958   7.3159661  28.3775120
  35.2059784   6.8328710  32.8930511  34.6718979   7.4864573  33.7842026
  36.4141045   6.2902241  33.0642967  36.8093834   5.8233786  32.2606125
  37.2520638   6.3567514  34.2551575  36.9780769   7.2429886  34.8275337
  36.8707924   5.1655865  35.1467857  37.0029449   4.2112160  34.6370659
  37.5685921   5.2246733  35.9820633  35.4009476   5.1696439  35.7096443
  34.8338585   6.2050180  36.3801079  35.3093834   7.0153461  36.7507095
  33.5318718   5.9272237  36.4408913  32.9521942   6.6628432  36.9786987
  33.3171082   4.6873283  36.0358582  32.3988953   4.3218298  35.8275452
  34.5103722   4.1508718  35.5345879  34.6818771   3.2169547  35.0200157
  38.7939415   6.3486052  33.9891205  39.5775719   6.3457060  34.9417763
  39.2803612   6.4178228  32.7495689  38.7124596   6.1362910  31.9632301
  40.7621231   6.2801394  32.5184021  41.1100006   5.3124404  32.8798409
  41.1172791   6.4031239  31.0250511  40.7977257   7.3402491  30.5692215
  42.1596718   6.1492858  30.8324871  40.5627365   5.6062427  30.5295162
  41.5820885   7.3355985  33.1802826  42.7176552   7.0805173  33.5732956
  41.0752525   8.5900440  33.3311462  40.2248917   8.7740860  32.8181877
  41.7584839   9.7919807  33.8779068  42.3169250   9.6353683  34.8007927
  42.8309402  10.2793674  32.8444214  43.5232887   9.4397621  32.7826271
  42.2492638  10.6005344  31.4246540  41.4676285  11.3450861  31.5756435
  43.0739212  11.0081863  30.8399658  41.7619209   9.7480125  30.9515743
  43.8137703  11.4423485  33.3482475  44.5661850  11.7237158  32.6114922
  43.1640549  12.3060837  33.4894371  44.3328629  11.2336512  34.2837143
  40.7751808  10.9070549  34.1982155  39.7822762  11.0633183  33.5766335
  41.1060104  11.8113880  35.1545944  41.9217682  11.6353579  35.7235069
  40.3977852  13.1452456  35.2461128  39.3333397  12.9911556  35.4230804
  40.8989563  13.9405823  36.4220276  41.9623299  14.0405283  36.2044373
  40.5631180  14.9726171  36.3209496  40.7466583  13.3994007  37.8602867
  39.6430435  13.8247290  38.6512680  39.0875282  14.6563568  38.2435951
  39.3849068  13.1121988  39.8251457  38.4198914  13.3017654  40.2714729
  40.2650871  12.1034536  40.3300247  39.9554443  11.4817944  41.1571121
  41.4426460  11.8590107  39.5809517  42.1870193  11.1613293  39.9352837
  41.7123222  12.5350018  38.3613968  42.6759033  12.3600559  37.9060898
  40.4803162  14.0677547  34.0016098  41.6131706  14.2446566  33.5110016
  39.3908691  14.7074194  33.5298958  38.0441399  14.6269474  34.1037140
  37.9145126  15.3576460  34.9020729  37.8072166  13.5910349  34.3463287
  37.0928955  14.9428358  32.9253578  36.1587906  15.3753920  33.2837448
  36.8121109  14.0074234  32.4413528  37.8768959  15.8493090  32.0077820
  37.5929794  16.8841324  32.1991730  37.7068291  15.6304932  30.9536018
  39.3767929  15.6555023  32.3942947  39.9723358  15.1197529  31.6551056
  40.0711288  16.9694500  32.6838226  40.6189270  17.4682522  31.7322063
  40.2169876  17.3381138  33.9428101  39.5905991  16.8229866  34.5447922
  40.8988419  18.4918919  34.4407921  40.5351601  19.4179573  33.9955521
  40.6503601  18.5403156  35.9147110  41.0025635  17.6172428  36.3751335
  41.2211075  19.3041458  36.4428291  39.6170731  18.7245445  36.2087784
  42.4020157  18.4324112  34.1112518  42.9891357  19.5281868  34.0814209
  42.9318619  17.1737747  33.8601112  42.2455025  16.4379768  33.7728577
  44.4038429  17.0199795  33.4948158  44.9287987  17.6878166  34.1778412
  44.7867355  15.5208006  33.7056961  44.5532455  15.2163353  34.7259331
  44.1098442  14.9007473  33.1179466  46.3644485  15.3875074  33.4219284
  46.5426025  15.7404385  32.4061508  46.9003334  15.9144192  34.2114220
  46.8312912  13.9652700  33.3929367  47.0496864  13.5969191  34.3952942
  45.9835243  13.4105644  32.9908218  48.1147537  13.7286520  32.5094109
  48.0078773  14.0951242  31.4884434  48.8713074  14.3099298  33.0365219
  48.5273628  12.3216391  32.6237946  48.2912369  12.0350609  33.5630569
  48.0633278  11.7059803  31.9713058  49.5049210  12.1514959  32.4352875
  44.7064476  17.6034889  32.1315880  45.7597466  18.1836910  31.9716663
  43.7270813  17.7791100  31.2341709  42.7628288  17.5922050  31.4695206
  43.8390732  18.4310379  29.9411278  44.5901222  17.8510494  29.4048100
  42.5439034  18.2281666  29.1665649  41.9804344  17.3621368  29.5138340
  41.8605118  19.0762634  29.2091408  42.8237801  18.0592537  28.1267338
  44.1634674  19.9100876  29.9734993  44.8343124  20.4108791  29.0684795
  43.7821999  20.6610336  31.0504646  43.4263687  20.1516781  31.8467312
  44.0909729  22.0811863  31.1667385  43.8836060  22.5985165  30.2300053
  43.3693848  22.7348614  32.3700676  43.7706642  22.3677559  33.3146896
  43.4170914  24.2767239  32.3487167  44.4215851  24.6809578  32.4739647
  43.0005035  24.5645905  31.3834743  42.8106728  24.5994453  33.1950073
  41.8558846  22.4017620  32.3581238  41.7188416  21.3359051  32.5405426
  41.3966675  22.8853645  33.2203026  41.4168930  22.6943169  31.4042912
  45.6089096  22.3200283  31.2338696  45.9433708  23.4987202  31.0503559
  46.4773254  21.3604660  31.5421352  46.0833931  20.4325409  31.4799252
  47.8042068  21.5660439  32.0226364  47.7714920  22.2902107  32.8366470
  48.2526131  20.1813774  32.4805260  47.4263496  19.6721001  32.9765358
  48.4045792  19.5470734  31.6072216  49.3414917  20.2251053  33.5808678
  49.7577324  19.2178860  33.5996971  50.1740074  20.9251747  33.5107002
  48.6495972  20.5919628  34.9340210  49.1208878  21.2836666  35.6322632
  47.7032013  21.0589790  34.6613770  48.2087212  19.3564453  35.6451187
  48.9060707  18.8509502  36.1726418  46.9793968  18.9454956  35.9291916
  45.9498672  19.6206036  35.5831451  45.0749588  19.1987362  35.8600273
  46.0029526  20.5864372  35.2925453  46.7065811  17.7502098  36.3472023
  45.7687721  17.3838139  36.4270210  47.4870987  17.2091312  36.6909103
  48.7621765  22.2917233  31.1435623  49.8576164  22.6787415  31.5465412
  48.5544968  22.3601093  29.8613529  47.6528130  21.9883099  29.5989952
  49.3564262  23.0594997  28.9069748  50.4129333  23.0520554  29.1749992
  49.2854385  22.4366817  27.5120087  48.2169800  22.4481583  27.2966938
  49.8135262  23.0513687  26.7830486  49.6560287  20.9770412  27.3438797
  49.1854515  20.3010063  28.0577660  49.2213058  20.7276020  26.3759422
  51.1381416  20.6954384  27.3887730  51.5257530  19.5385094  27.0627632
  51.9642563  21.3887119  27.9727211  48.9530716  24.4752350  28.7822742
  49.7881165  25.3341370  28.4029102  47.6807976  24.7858906  29.0824852
  47.1627159  24.1944103  29.7163963  46.9881897  26.0282917  28.6657467
  47.2115936  26.1853676  27.6105137  45.4161530  25.9238319  28.7927551
  45.0843964  26.0529385  29.8229847  45.0152969  26.7753601  28.2429237
  44.7043495  24.7085800  28.0814762  44.8896942  23.7408524  28.5475788
  43.2257042  24.8679790  28.1153469  42.9518394  25.0409813  29.1561031
  42.9214096  25.7999573  27.6389809  42.8227539  23.9197197  27.7596302
  45.1649818  24.5538177  26.6094990  46.2475281  24.5052814  26.4918289
  44.6513214  23.7065582  26.1551838  44.8392944  25.3976078  26.0011845
  47.5081520  27.2554550  29.4002914  47.4581718  27.3430424  30.6498814
  47.9233017  28.2529068  28.6424999  48.1515503  27.9613724  27.7028122
  48.6731987  29.4618359  29.0603542  49.5835495  29.1439838  29.5686169
  49.2167358  30.2925930  27.8232002  48.4143715  30.1965141  27.0917091
  49.3694649  31.3490028  28.0440464  50.3684425  29.7424164  27.3705158
  50.2087021  29.7113895  26.4244080  47.7579002  30.3705177  29.8438377
  46.6534843  30.7195625  29.4141331  48.1570129  30.7809849  31.0445843
  49.0915451  30.4912128  31.2951488  47.2356262  31.5372295  31.9713020
  47.8368912  32.1031609  32.6828537  46.6666908  32.1743202  31.2941532
  46.2201042  30.7731934  32.7538452  45.7037392  31.2379093  33.7385330
  45.9244881  29.5130196  32.3599701  46.3922844  29.1147099  31.5583382
  44.7528572  28.8018723  32.9947128  43.9361649  29.4674072  33.2743225
  44.2108269  27.7324142  32.0804138  45.0863419  27.1719246  31.7526531
  43.5641823  27.1841373  32.7654991  43.2431870  28.0933533  30.9507980
  43.6001129  28.8318691  29.8326950  44.6382561  29.1022491  29.7079887
  42.4712677  29.1729984  29.0247173  42.5352478  29.7385006  28.1903248
  41.3208694  28.7932625  29.7061749  39.9583168  28.9659882  29.4082146
  39.6661606  29.5497437  28.5478230  38.9892921  28.3967743  30.1959896
  37.9304924  28.4804688  30.0001945  39.4073410  27.6103725  31.3600655
  38.7085876  27.0918770  31.9998341  40.7786903  27.3748035  31.6138878
  41.0794678  26.7287636  32.4254074  41.7356491  28.0126495  30.8482018
  45.1268845  28.2228317  34.3771706  44.3046150  28.0093517  35.2267418
  46.4005928  28.0040894  34.7493019  47.0656013  28.3812084  34.0892677
  46.8855705  27.4962406  36.0814781  46.5827866  26.4491806  36.0909767
  48.4114799  27.5236626  36.0562859  48.7660065  26.9805698  36.9323311
  48.7473488  26.9731617  35.1775093  49.1229134  28.9132442  36.0141106
  48.4336281  29.6932487  36.3375015  50.0249176  28.8779793  36.6250458
  49.3875580  29.4560127  34.5545959  48.5408630  29.3400803  33.6985588
  50.5816803  29.8795948  34.2746735  50.8243484  30.0075893  33.3026466
  51.2856560  29.7826405  34.9923897  46.2903595  28.2306595  37.2483635
  46.0661659  27.6442738  38.3275642  45.9209213  29.4730625  37.0847702
  46.2377586  29.9809284  36.2712669  45.2008171  30.2195911  38.1377335
  45.4412270  29.7832890  39.1072426  45.7330284  31.6611500  38.0990829
  45.2223511  32.1604004  37.2756386  45.5542336  32.2065697  39.0257149
  47.2614517  31.7467804  37.8438835  48.1790886  31.3051262  38.7562523
  47.7909889  30.8110161  39.6346817  49.5493851  31.3040562  38.4277649
  50.3488503  30.9323692  39.0515442  49.9981308  31.8222351  37.2126160
  51.3339386  31.7712994  36.9073334  51.4495583  32.1074867  36.0155869
  49.0682220  32.4466019  36.2952118  49.4476624  32.9016380  35.3922310
  47.6739388  32.2626877  36.5726509  47.0264549  32.5745888  35.7664986
  43.5875893  30.1351528  38.2106857  42.8193359  30.5559254  39.1284027
  42.9841385  29.4278793  37.2577515  43.4873848  28.9570141  36.5194168
  41.5124016  29.1597347  37.2223282  40.9442635  30.0642910  37.4393501
  41.0373878  28.7706451  35.7837753  41.6904068  27.9834900  35.4068642
  39.6389847  28.2731075  35.7693481  39.3266945  27.3940334  36.3330841
  38.9420700  29.0915852  35.9496346  39.4536438  27.9108429  34.7581520
  41.2109261  29.9375000  34.8802299  40.5697746  30.7171364  35.2915573
  42.2502060  30.2320538  34.7345085  40.8721466  29.7284660  33.8655205
  41.2537880  27.9615383  38.1324768  41.9536095  26.9777336  37.9220161
  40.2620468  28.0095501  39.1416626  39.8563919  29.3680344  39.6083755
  39.0348892  29.7867908  39.0271072  40.6659355  30.0919476  39.7015991
  39.4672890  29.0315056  41.0502357  38.6781654  29.6818466  41.4276505
  40.3618927  29.0697823  41.6717873  38.8944702  27.6803131  41.0140419
  37.8680000  27.8421345  40.6849899  38.8926544  27.1468410  41.9645691
  39.7507477  26.9608898  39.9994011  40.6878204  26.6140137  40.4349213
  39.0100136  25.8230152  39.2516785  38.1537552  26.0991688  38.4863167
  39.4272232  24.5937614  39.5133972  40.3079987  24.4966927  39.9980774
  38.8856888  23.3930283  38.8595123  37.9181633  23.6311874  38.4176140
  39.8293114  22.8102360  37.8368034  40.7489433  22.4350681  38.2858353
  39.1496353  21.6792107  37.0157890  39.1021652  20.7831001  37.6345329
  38.1221771  22.0368080  36.9482880  39.7194252  21.4411430  36.1175919
  40.0936241  23.8827744  36.7353745  40.6603432  23.4268475  35.9235497
  39.1480675  24.3453045  36.4523697  40.6377411  24.7576427  37.0912476
  38.5302963  22.2412834  39.8817558  39.1829643  22.1552353  40.9125443
  37.4394608  21.5225086  39.6447182  36.8005791  21.7434082  38.8942947
  37.1730042  20.2290974  40.3376808  38.0276413  19.5681839  40.4822044
  36.7457466  20.4336948  41.8289413  37.0949059  21.4358158  42.0778160
  35.2656059  20.5106869  42.0840988  35.0647888  20.8787842  43.0902176
  34.7465401  21.1916523  41.4095955  34.7782707  19.5365105  42.0442009
  37.2060432  19.4692268  42.8246727  36.8615227  18.6162987  42.5500488
  36.2025337  19.3981476  39.4888229  35.5294113  20.0186787  38.6544571
  36.1699448  18.0882912  39.6873665  36.6811256  17.6879311  40.4609985
  35.4654388  17.1838970  38.7954483  35.0866394  17.8496208  38.0199318
  36.3991470  16.1798801  38.0854187  36.7527885  15.3998728  38.7596779
  35.8369370  15.7103519  37.2782211  37.7421608  17.0651054  37.2058525
  38.5275917  17.4884300  38.2002335  34.1412086  16.5973015  39.3164139
  34.1861191  15.8149118  40.2533493  32.9620247  17.0057430  38.8069115
  32.9614525  17.5023613  37.9274406  31.6960754  16.5948505  39.3329277
  31.8303490  16.6283188  40.4141083  30.5924454  17.6316071  39.0140190
  29.7515850  17.4723473  39.6890678  31.0235996  18.6122684  39.2152824
  30.2859173  17.6754818  37.4903984  31.0982342  17.8497200  36.7847900
  29.8610115  16.7209911  37.1797409  29.0977306  18.9620781  37.1066437
  29.4661942  19.1025410  35.3144112  30.5317650  19.2175045  35.1158142
  29.1051006  18.2007313  34.8199883  28.9908047  20.0251217  34.9813194
  31.3538074  15.1422796  38.8896370  31.4468594  14.8703041  37.6941032
  30.8958645  14.2450018  39.7691154  30.7697945  14.5160751  40.7338562
  30.3717327  12.8459492  39.4333344  31.0841274  12.3428936  38.7794724
  30.2289944  11.9876947  40.6675339  31.2510262  12.0231447  41.0447540
  29.5649242  12.4769392  41.3801003  29.6472282  10.5341110  40.3096848
  29.0104828  10.3091898  41.1652908  29.0068607  10.5130377  39.4278755
  30.7235756   9.4120378  40.3432846  31.7112789   9.5671415  39.6824417
  30.5376129   8.3140697  41.0457458  29.7743988   8.1022120  41.6724281
  31.3087559   7.6628475  41.0090256  29.0332680  12.9003201  38.7242126
  28.0481110  13.4472828  39.2172470  29.0387039  12.3515730  37.5145836
  29.8259354  11.8042784  37.1970367  27.8862305  12.4227734  36.6391411
  27.4873676  13.4319744  36.5365524  28.3922997  11.9073572  35.2933578
  29.2233982  12.5309954  34.9640427  28.8191528  10.9209280  35.4746475
  27.3787098  11.9466381  34.1431236  27.6836987  11.1173534  33.5048676
  26.3741093  11.7407923  34.5125885  27.4056320  13.3269558  33.5385437
  27.2120686  14.3472223  34.1681671  27.6040955  13.4131517  32.2947159
  26.7732601  11.5187330  37.2790146  26.8961220  10.3264599  37.5747795
  25.5485325  12.0548687  37.2997856  25.5347900  13.0350771  37.0566711
  24.3988342  11.3190527  37.6986542  24.6032314  10.9916821  38.7180443
  23.1651688  12.1920776  37.7402229  23.4472542  13.0522375  38.3473892
  23.0495682  12.3837280  36.6734467  21.8736267  11.5459948  38.2093391
  21.4552822  10.8506861  37.4815788  21.9805107  10.9608116  39.1227036
  20.5860043  12.7757816  38.4066772  19.0182667  11.8889666  38.7458191
  18.8129082  11.8420620  39.8152733  18.1647453  12.4197054  38.3240166
  19.0807743  10.9053516  38.2803154  24.1225014  10.2080965  36.6484718
  24.2691689  10.4390268  35.4715614  23.8036118   9.0369816  37.0889740
  23.4961758   9.0177660  38.0508537  23.5446701   7.8381333  36.3166618
  24.0944023   7.8733745  35.3761024  23.8094730   6.6172781  37.1943283
  24.8688850   6.5883737  37.4491081  23.0975780   6.7694936  38.0055847
  23.4891911   5.2977738  36.3868523  23.3608036   4.2352171  37.0789833
  23.4228115   5.3489327  35.1041107  22.0467453   7.8835783  35.9619560
  21.1848736   8.0564089  36.8181000  21.7088184   7.7591643  34.6965790
  22.3976040   7.5343804  33.9929085  20.4071026   8.1544933  34.1842613
  19.7905159   8.2563400  35.0773163  20.3962059   9.6483946  33.6501389
  21.3107243   9.7962751  33.0757828  19.1736584  10.1640959  32.8720474
  19.3629589  11.2139902  32.6484718  19.2539616   9.4143524  32.0849419
  18.2160130   9.9614706  33.3515892  20.5726719  10.5153990  34.9370651
  20.5448322  11.5705109  34.6649208  19.8057423  10.3546562  35.6947441
  21.5906353  10.3122463  35.2696152  19.8945885   7.2199163  33.0864258
  20.5870609   6.9474435  32.1451721  18.6147175   6.7096629  33.2305756
  18.0765095   6.8541331  34.0729332  17.8682079   5.9949841  32.2131653
  18.4118042   5.1195359  31.8579292  16.5999088   5.5559692  32.9248199
  16.1003780   6.4707022  33.2439423  15.5997849   4.6625676  32.1843109
  14.9831610   4.2126980  32.9624443  15.0497627   5.1739430  31.3943291
  16.1054192   3.8056617  31.7391720  16.9050999   4.8807397  34.1372223
  16.3120251   5.0852437  34.8638878  17.5959377   6.8453388  30.9192219
  16.9540768   7.9076533  30.9729614  18.0760841   6.3563771  29.7814751
  18.6205978   5.5088906  29.8547688  18.2825298   7.1468811  28.5749302
  18.5085526   6.4341125  27.7818432  17.3485851   7.6988163  28.4690304
  19.4347000   8.1293478  28.6152992  19.6078892   8.9446688  27.6494236
  20.2585888   8.0990486  29.6380005  20.1358452   7.3754702  30.3318806
  21.4526081   8.9171438  29.7617512  21.1343784   9.9596291  29.7543106
  22.0038128   8.5854626  30.6416721  22.3910847   8.5399313  28.6075668
  22.6631813   7.3741598  28.3117180  22.9120903   9.5843134  27.9804878
  22.6631660  10.5234585  28.2564297  24.0196609   9.3454971  27.0076942
  23.5620461   8.7639380  26.2073956  24.4432735  10.7022696  26.3755894
  23.5573235  11.0271397  25.8300171  24.6221390  11.3476906  27.2355537
  25.6157322  10.7341547  25.4247131  26.5341091  10.3219299  25.8427505
  25.2779884   9.9602871  24.1537762  26.1631737   9.9045792  23.5201797
  24.7263680   9.0505075  24.3906651  24.4702797  10.4302492  23.5926666
  25.9042645  12.1290588  24.9637928  24.9539757  12.5732327  24.6675529
  26.4150257  12.5987329  25.8044052  26.6700802  12.1044626  24.1885376
  25.2821636   8.5780792  27.4506760  25.7620049   8.8184700  28.5565777
  25.6673508   7.6405277  26.6298027  25.2663040   7.5967779  25.7038727
  26.9097500   6.8474522  26.8467445  26.9898396   6.5334949  27.8874741
  26.8375320   5.7059479  25.9017544  26.7258511   5.9812503  24.8530235
  27.7598400   5.1345563  26.0064564  25.7059765   4.6120400  26.1901627
  24.7653980   4.9591184  25.7624397  26.0651283   3.7642488  25.6067524
  25.6886120   4.2272778  27.6222839  26.7082901   4.0424361  27.9602013
  25.2496147   4.9742250  28.2836838  24.8443909   2.9782884  27.7657852
  23.8188992   3.3050480  27.5934620  25.2399731   2.2461143  27.0618439
  24.9820328   2.4528191  29.1839752  24.2294903   1.8537928  29.4921227
  25.8759575   2.0338173  29.3971310  24.8924999   3.2595725  29.7850018
  28.1669445   7.6685939  26.5396099  28.2524414   8.4545593  25.5976696
  29.3328648   7.4719567  27.2582016  29.2377434   6.9749012  28.1322651
  30.7420235   7.7842093  26.9044170  31.4504280   7.6477685  27.7215118
  31.2155857   6.7625470  25.8657265  30.8102894   6.9537878  24.8721161
  32.2730179   6.9645925  25.6950874  30.9854946   5.3106003  26.1588211
  31.3995438   5.0686512  27.1376591  29.9498692   4.9735222  26.1145267
  31.8852692   4.5306478  25.2145767  31.7399750   4.8495955  24.1824589
  32.9325638   4.7045107  25.4616413  31.6366959   2.9692364  25.0622540
  30.7988873   2.6865122  24.4248810  32.5147896   2.6284282  24.5137100
  31.6211643   2.3553665  26.3735676  30.7026844   2.5142176  26.7624912
  31.8919621   1.3823843  26.3825970  32.2295952   2.8427742  27.0157108
  30.9824295   9.2361279  26.6611805  31.4466038   9.6434393  25.5621719
  30.4970608  10.0783329  27.5741692  30.1275043   9.7367687  28.4498768
  30.4004269  11.5768175  27.3493290  30.8442421  11.8286896  26.3861637
  28.9216995  11.9951258  27.3005199  28.4679680  11.6101542  26.3872700
  28.3408813  11.5887995  28.1285610  28.5350246  13.7375174  27.2095718
  28.4993191  13.8902988  25.8828106  31.3307762  12.3164225  28.2554626
  31.2260208  12.1177673  29.4913254  32.0913353  13.3209734  27.7918606
  32.0721054  13.5220509  26.8022652  32.7457733  14.3317766  28.6448994
  32.7544327  13.9238043  29.6556339  34.1497574  14.5662546  28.1204433
  34.0363388  14.7315750  27.0490398  34.9351768  15.7580423  28.6884785
  34.4473686  16.6568508  28.3112698  34.9218330  15.6372671  29.7716789
  35.9515533  15.6892986  28.3007202  34.9519615  13.2382565  28.3922787
  35.8699913  13.4541588  28.9388256  34.4076576  12.5098772  28.9933586
  35.3597641  12.6039724  27.0807304  35.7969933  11.6418629  27.3477039
  34.5270844  12.5885611  26.3775177  36.2000160  13.2194443  26.7593632
  31.9396744  15.6395159  28.5643616  31.6471405  16.1079082  27.4789028
  31.5983810  16.2826385  29.7412415  31.9925537  15.9278326  30.6007996
  30.9085789  17.5133972  29.8389645  30.7732601  17.9026489  28.8298702
  29.5267391  17.4352665  30.4561749  29.5911942  17.3351192  31.5396500
  29.0166721  18.3940811  30.3633232  28.6644650  16.2998981  29.8819275
  28.6242447  16.3262787  28.7929897  29.1293793  15.3559475  30.1663799
  27.2265682  16.4392643  30.4864101  26.7377739  17.3486500  30.1368446
  26.7434578  15.5876226  30.0074368  27.2158127  16.2747078  31.9789429
  27.6323032  15.4842720  32.4499474  26.6167164  17.0725098  32.8733063
  25.8053284  18.0188751  32.5045395  25.2666569  18.5381317  33.1829987
  25.4360619  18.0157833  31.5644684  26.8261490  16.9468250  34.1879425
  26.2216759  17.3400688  34.8951035  27.2531414  16.0561008  34.3986244
  31.7472477  18.5607643  30.6438904  32.7049255  18.2665062  31.3817120
  31.3542957  19.8580647  30.4839802  30.5205250  20.0221291  29.9380760
  32.0843582  20.9554443  31.0464535  32.5618401  20.5947647  31.9575062
  33.2149429  21.4763870  30.0855999  32.7720299  21.4998398  29.0899181
  33.7168579  22.8754902  30.4310493  32.9608345  23.6603069  30.4068146
  34.1296349  22.7775383  31.4351006  34.5321350  23.1715717  29.7709255
  34.3734322  20.4672012  30.0436535  34.6929169  20.2407608  31.0608826
  34.0598831  19.5215816  29.6014004  35.2574654  20.8338490  29.5219631
  30.9753265  21.9800758  31.3213749  30.0397701  22.1460075  30.5453835
  31.1863823  22.6963806  32.4434357  31.9266930  22.4649506  33.0903358
  30.4330883  23.9443359  32.9679260  29.9834290  24.4477997  32.1121025
  29.4575329  23.6034088  34.1465034  28.7176552  22.8999348  33.7646599
  29.9882164  23.0742226  34.9379807  28.7208290  24.7954407  34.7796021
  27.8565712  24.4560986  35.3505745  29.5173302  25.2612381  35.3598824
  28.1653080  26.0239239  33.4917336  27.6825829  27.3201885  34.5397758
  26.7672672  27.0500813  35.0664024  28.4186783  27.6047935  35.2916145
  27.4461269  28.2281055  33.9848976  31.4638405  24.9365692  33.5011940
  32.4373703  24.5029736  34.1534309  31.3013153  26.2183266  33.3411064
  30.5461483  26.5088062  32.7365875  32.1846085  27.3129025  33.9037971
  32.6751213  26.9544373  34.8087845  33.3939629  27.6315765  32.9994164
  33.9609528  28.3941574  33.5333595  34.0507393  26.7623615  32.9645386
  33.1242218  27.9919815  31.4965839  32.6582336  27.1702652  30.9527683
  32.3859100  28.7925415  31.5423851  34.6129112  28.3793030  30.5150471
  35.5430717  26.7781944  30.7728176  36.4487686  26.8982830  30.1783447
  35.7432404  26.5990829  31.8292046  35.0086975  25.9423466  30.3212585
  31.4251232  28.5709877  34.1976624  30.4657364  28.9468250  33.5640450
  31.9168816  29.3175488  35.1561165  32.7133446  28.9651279  35.6675301
  31.3324623  30.6357937  35.6233025  30.3219013  30.7898502  35.2449722
  31.3431396  30.6760464  37.1094437  32.3873367  30.5841122  37.4082947
  30.6742859  31.9573383  37.6440163  31.2161598  32.7412796  37.1149445
  29.6098881  31.9285603  37.4109230  30.8942966  32.0964050  38.7024841
  30.7114620  29.5068417  37.5821190  29.7842712  29.6773472  37.4008904
  32.3144569  31.6986179  35.0685349  33.5071716  31.5691128  35.3702087
  31.8553219  32.7668419  34.4064903  30.8601799  32.8844147  34.2801285
  32.7311554  33.6149788  33.6378479  33.5667992  33.7231216  34.3292961
  32.9987411  33.0952911  32.1594772  32.0285835  33.2936211  31.7038898
  34.1168938  33.7160797  31.4461555  34.0334435  34.7993965  31.3591385
  35.0138359  33.4648361  32.0122566  34.1981964  33.4413986  30.3944721
  33.1219254  31.5960693  32.0629387  32.1926117  31.0927105  32.3295975
  33.3999443  31.3390312  31.0408154  33.9356804  31.3796158  32.7550697
  32.1441193  35.0741501  33.4019394  30.9444904  35.2530403  33.1436882
  32.9933281  36.1199532  33.4518433  33.9131699  35.8608475  33.7787361
  32.6612320  37.5042801  33.1271286  31.6582851  37.7278862  33.4907188
  33.6924171  38.4972992  33.6506805  33.8504791  38.3755684  34.7222672
  34.6590538  38.2683334  33.2020264  33.2660103  39.9519348  33.5097275
  33.3744316  40.2182350  32.4583321  32.1908951  40.0573578  33.6550217
  34.1586647  40.8712578  34.3682556  33.6842842  41.8291245  35.0063553
  35.4778900  40.6624718  34.4095116  36.0810928  41.0713539  35.1088448
  35.8552933  39.9698029  33.7787399  32.5347633  37.5534821  31.5850906
  33.5296783  37.2499657  30.8168449  31.3519554  37.9667587  31.1178112
  30.6551571  38.2924728  31.7723961  31.2279720  38.2549782  29.6533947
  32.1093864  38.8352280  29.3804111  30.9914646  37.0439262  28.7766247
  31.9122581  36.4745636  28.9033852  29.7395515  36.2031898  29.0784264
  29.6574860  35.4251289  28.3194942  29.7452583  35.7663040  30.0770245
  28.8558865  36.8287506  28.9522972  30.7667732  37.2991867  27.3398476
  31.4382267  37.8893318  26.9898815  30.1260128  39.3043976  29.4008636
  29.0932178  39.3646774  30.0824242  30.3873425  40.1085777  28.3361244
  31.2273388  40.0090370  27.7842216  29.4306755  41.0602531  27.8488483
  28.6853199  41.3567924  28.5868263  30.0732136  42.4684486  27.3149490
  29.3495770  43.2254791  27.0126953  30.7436371  42.7776718  28.1168327
  31.0732136  42.3139038  26.1470127  31.6683540  43.3993378  25.7998829
  31.2204361  41.1878052  25.5594769  28.5565052  40.5241356  26.7827950
  27.6449184  41.2066078  26.3663769  28.7043858  39.2627716  26.3349590
  29.1977921  38.6967163  27.0104103  27.9246826  38.5497780  25.3246002
  27.8151703  39.2325668  24.4820385  28.6719685  37.2909088  24.7853222
  28.9078693  36.7424965  25.6972942  27.8801918  36.4138184  23.8168564
  26.9450855  36.2108307  24.3388519  27.7138214  36.9528999  22.8842182
  28.5460491  35.5839119  23.5802364  29.9628410  37.7467690  24.1093655
  30.5454216  38.2703972  24.8673306  30.6134682  36.9727173  23.7023907
  29.7054272  38.3959236  23.2724476  26.5780163  38.2543640  25.9699783
  26.5060787  37.8208199  27.1290016  25.4213715  38.4933167  25.2459946
  25.3573666  39.3395920  24.0217381  25.9418488  38.8188400  23.2632542
  25.7119007  40.3167763  24.3496361  23.8458157  39.6042480  23.7271633
  23.6431961  39.4147224  22.6730633  23.5564747  40.6048203  24.0484676
  23.1035385  38.6371231  24.6647358  22.8935661  37.6384621  24.2817459
  22.1411991  38.9573250  25.0640755  24.0736027  38.2719841  25.7498627
  23.9028015  38.9851799  26.5562611  23.8500652  36.8641472  26.1954346
  24.2985001  35.9246330  25.5894146  22.9769478  36.6280289  27.1350460
  22.5439930  37.4625893  27.5040436  22.4815083  35.4366455  27.6491146
  23.3513203  34.8873901  28.0094528  21.4954109  35.6454506  28.8164425
  21.7604294  36.6015129  29.2678947  20.4321747  35.7302322  28.5918522
  21.6154900  34.5345993  29.8613148  21.3417282  33.5992546  29.3731766
  22.6240845  34.4446068  30.2647228  20.5284996  34.8565025  30.9629784
  19.3734570  35.2340508  30.6589355  20.6465607  34.4109535  32.1939392
  21.5016575  33.9123383  32.3946724  19.9515743  34.7131767  32.8615875
  21.8817692  34.4855499  26.6205616  21.9297791  33.2757759  26.7500763
  21.2360134  35.0074272  25.5893917  21.1685600  36.0073891  25.4643879
  20.7344570  34.1648750  24.4757957  20.5508862  33.1771660  24.8986835
  19.3204498  34.5418625  23.9991379  19.1228848  33.7814941  23.2435532
  18.5945435  34.3780174  24.7955742  19.2888184  35.9700012  23.4148846
  18.5237789  36.1737213  22.4788857  19.8846188  36.8523445  24.0355988
  21.7013569  33.9521446  23.2831497  21.4119263  33.2984238  22.2879887
  22.8783932  34.5398102  23.3817940  22.9701786  35.1647530  24.1699085
  23.9006901  34.5478325  22.3274994  23.5708179  33.8356171  21.5711689
  24.1003895  35.9641876  21.8114052  24.1740780  36.7462425  22.5670929
  25.0848331  35.9621048  21.3434620  22.8697014  36.3722420  21.0219097
  22.5973721  35.5491371  20.3612747  22.0954323  36.6383324  21.7414951
  23.1707802  37.6371574  20.1358852  24.2953091  37.8698921  19.6301651
  22.1709995  38.3186035  19.6619816  21.2288513  38.2074928  20.0085564
  22.3874207  39.0363007  18.9850979  25.1981354  33.9199486  22.7786560
  25.9845295  33.6231766  21.9377422  25.4385395  33.7561455  24.1029472
  24.9256477  34.3030281  24.7796745  26.4980297  32.9950867  24.6186981
  27.3853779  33.5108643  24.2516937  26.5835686  32.9224167  26.1539764
  25.5654411  32.7096786  26.4799500  27.5645504  31.8248577  26.5652695
  28.5711250  31.9401455  26.1632576  27.6227665  31.7563381  27.6515541
  27.2027855  30.8472900  26.2465458  26.9828110  34.2167282  26.8131599
  28.0547123  34.3520470  26.6688766  26.5027809  35.0576553  26.3126450
  26.7412682  34.2761765  28.3283901  27.0107689  35.2882881  28.6302166
  25.6764164  34.2169762  28.5535202  27.3799801  33.5661469  28.8537560
  26.4379215  31.6186314  24.0512161  25.3975792  30.9556866  24.1711712
  27.4208584  31.2641411  23.1919785  27.8762455  32.0656433  22.7792854
  27.5135174  30.0089645  22.5549583  26.6032619  29.6667976  22.0625591
  28.5045624  30.1020260  21.3844757  28.1990948  30.9814911  20.8176155
  29.5085144  30.3699532  21.7137070  28.5924683  28.9387741  20.3962421
  29.3384113  29.1333237  19.6256447  28.8330688  28.0869389  21.0323143
  27.2017784  28.8619442  19.6371498  26.3923836  28.3792477  20.1848564
  26.8637466  29.8894367  19.5026150  27.2810555  28.0889091  18.3535786
  27.3559151  28.6081772  17.4905281  27.5765648  26.8087654  18.2634983
  27.4209766  25.9886379  19.2545223  27.6942558  25.0164146  19.2401638
  26.9816647  26.4157162  20.0574589  27.9720535  26.3310204  17.1164742
  28.2227592  26.9769974  16.3816547  28.2051678  25.3512115  17.0407200
  27.8993378  28.7954254  23.4526443  29.0777016  28.4705734  23.5548439
  26.8719501  28.0995884  23.9312973  25.9416409  28.4255142  23.7113018
  27.0319672  26.7732677  24.5072556  27.8561211  26.8276253  25.2185326
  25.8041668  26.4618359  25.4082241  24.9253235  26.3015614  24.7836857
  26.1365986  25.7256451  26.1400795  25.5091515  27.6181984  26.3095398
  26.3387184  28.1120682  27.3611431  25.7582245  29.2407455  27.7942848
  26.1509209  29.7373657  28.6692448  24.5445251  29.3773193  27.1699238
  23.9099579  30.1343384  27.3805046  24.4068050  28.4014587  26.1720772
  23.7072144  28.3981419  25.3493004  27.3118305  25.6989002  23.4375992
  26.6189919  25.7400913  22.3999577  28.3776646  24.8724766  23.5489273
  28.7058887  24.8447361  24.5037079  29.1586857  24.0461502  22.6186733
  28.7777462  24.3660183  21.6487904  30.6420479  24.4171848  22.6637020
  30.9538116  24.2810307  23.6992531  31.4982662  23.4843483  21.7672901
  31.2224140  23.5548344  20.7151279  32.5207710  23.8147621  21.9500771
  31.3042068  22.4708862  22.1184826  30.8539009  25.8438110  22.3218613
  31.9048252  26.1270103  22.2631168  30.3958969  26.0969334  21.3656921
  30.3369904  26.4171371  23.0914154  28.8278179  22.6350098  22.7823830
  29.3226051  21.9866600  23.6759090  28.1556740  21.9662495  21.8329411
  28.0911980  22.3901291  20.9184628  27.8259850  20.5618839  21.8782635
  28.4088917  20.0315342  22.6312885  26.2943592  20.4868202  22.0690441
  25.8502655  20.9836006  21.2064362  26.0001907  19.4395199  22.1378441
  25.8188343  21.0079727  23.4316730  25.7207031  20.0160637  24.4789047
  25.8418789  18.9587498  24.2950516  25.3499336  20.4448643  25.7525940
  25.2962761  19.6760101  26.5091553  25.3189125  21.8322258  26.0583248
  25.1035938  22.2653046  27.3392086  24.4001732  21.7264214  27.7085400
  25.3544331  22.7752914  25.0381432  25.1769791  23.7998409  25.3300591
  25.7210217  22.3844357  23.7304726  25.8635349  23.0504055  22.8922768
  28.2874031  19.8520317  20.5528679  28.0729733  20.2629547  19.4337082
  29.0298500  18.7762451  20.7834492  28.9266529  18.2901478  21.6627445
  29.8735962  18.1047134  19.8120804  29.7013359  18.4144230  18.7812996
  31.3461990  18.4157848  20.2188377  31.5776463  17.9263458  21.1648731
  31.9965801  17.8102398  19.5876312  31.7947273  19.9363155  20.3050213
  31.1407166  20.4563046  21.0050068  33.2194061  20.1099339  20.8210754
  33.8948097  19.6573296  20.0950680  33.4542046  21.1561661  21.0169487
  33.2904625  19.5223541  21.7363892  31.7105579  20.6573677  19.0304813
  32.1036606  20.0909119  18.1862621  30.6591301  20.8024406  18.7823849
  32.2193298  21.6212673  19.0183868  29.5089760  16.5899658  19.7828579
  29.1267548  16.0315418  20.8106747  29.8500595  15.9012413  18.6726074
  30.1910362  16.4480553  17.8948994  29.6999016  14.4663792  18.4188499
  29.8633270  14.3179131  17.3514462  30.8173065  13.7650404  19.1555958
  30.7021408  13.8897085  20.2323036  30.7276897  12.7085953  18.9026299
  32.2805214  14.3251743  18.8207531  32.6479759  15.2003441  19.3566227
  33.0100479  13.5516129  19.0605335  32.4447670  14.6774216  17.3502655
  32.7760696  15.8236856  17.0946102  32.0871773  13.9225645  16.4858818
  28.2616501  13.9352922  18.7484417  27.3486156  14.6170769  18.3917923
  28.1872463  12.7314253  19.3048477  29.0254192  12.1753778  19.3963737
  26.9304638  12.1231251  19.9026356  26.1428890  12.1346569  19.1491814
  27.1613979  10.6130924  20.2148952  28.1773548  10.5512733  20.6049137
  26.4080734  10.2732964  20.9256268  27.0124989   9.6122427  18.9915695
  26.0701389   9.7402077  18.4589500  27.8641243   9.7791395  18.3320408
  27.0066452   8.1799469  19.6138515  26.6377697   8.0674219  20.6333466
  26.4361458   7.4581108  19.0293961  28.5477467   7.7928810  19.6970921
  29.0946178   8.5567369  20.2498646  28.6573601   6.9095263  20.3261948
  29.3302364   7.6132464  18.4239635  30.2516384   7.2751498  18.6623116
  28.9342537   6.9869456  17.7376328  29.4441128   8.4917479  17.9388161
  26.3884907  12.8574667  21.1806488  25.4259834  12.4040346  21.7455635
  27.0948238  13.9969921  21.5418243  27.9794807  14.1962290  21.0970936
  26.5008564  14.8702822  22.5436287  25.8446579  14.1893806  23.0857296
  27.6064148  15.3112392  23.4554253  28.1018143  16.2008762  23.0665474
  27.1783161  15.4156694  24.4523830  28.3595753  14.5361080  23.5969143
  25.5818977  16.0321693  22.0824986  25.0354061  16.7609997  22.9143696
  25.4645233  16.2688179  20.7442493  25.9329376  15.6421099  20.1055603
  24.4684162  17.3072834  20.2634850  24.6779594  18.2442684  20.7794800
  24.6089287  17.4861832  18.7494564  24.3058758  16.5150509  18.3580990
  23.5975151  18.5539951  18.3261967  23.7681103  19.4460506  18.9288826
  23.7860317  18.8171425  17.2853737  22.6046677  18.1354198  18.4909649
  25.9418697  17.9428444  18.1627159  25.9344788  18.1060524  17.0850296
  26.0431023  18.9376640  18.5965290  26.7423229  17.2685776  18.4672413
  22.9943829  17.0734386  20.7720013  22.2597713  17.9786167  20.8862629
  22.6255894  15.9211855  21.2906208  23.3458996  15.2136393  21.2654781
  21.3438168  15.5384769  21.8654079  20.5925770  15.9812078  21.2113934
  21.2314510  13.9966087  21.8782749  21.4198971  13.6129627  20.8755741
  22.1820869  13.3342085  22.9275684  22.0620594  12.2518234  22.8813095
  23.1897583  13.3936920  22.5162773  22.1515522  13.8247242  23.9004822
  19.8021450  13.5757036  22.2359753  19.1151867  14.0095501  21.5093651
  19.6501808  12.5005312  22.3309021  19.5594749  13.9938049  23.2129097
  21.2619648  16.3109703  23.2185230  20.1486797  16.6520576  23.6107063
  22.3401661  16.6170883  24.0271034  23.1746292  16.1225433  23.7456856
  22.4319344  17.2956829  25.3580341  21.5840282  16.8910732  25.9107113
  23.6979294  16.9239502  26.1041641  24.5963287  17.3562317  25.6635799
  23.5963554  17.4169197  27.0709953  23.9970722  15.4624939  26.3743038
  24.2094154  15.0560255  25.3854694  25.2466850  15.2652493  27.0903168
  25.2879047  15.7655077  28.0578575  25.5158043  14.2098932  27.1339092
  26.1007862  15.7258673  26.5938873  22.7926178  14.6557617  26.9138374
  22.2826710  15.1510973  27.7400951  22.0944481  14.5429688  26.0844173
  23.1488953  13.6878529  27.2664280  22.3037796  18.8550568  25.3713818
  22.4627705  19.4865131  26.3901634  22.1373596  19.3844814  24.1603813
  22.3731785  18.8683949  23.3248310  22.0557747  20.8901672  24.0288219
  22.8795528  21.3858490  24.5424213  22.2142277  21.3436470  22.5912819
  22.4630642  22.4031029  22.5301514  23.0765667  20.8984528  22.0950222
  20.9236603  21.0943108  21.8130608  20.5718040  20.0873966  22.0376091
  20.1025734  21.7387524  22.1270885  21.0324020  21.1531811  20.2812958
  21.3973885  22.1345177  19.9782047  21.7178345  20.3719101  19.9528160
  19.7273636  20.8982773  19.6556530  19.3282146  21.6596146  19.1254177
  19.0556335  19.7766609  19.5960751  19.5730896  18.6053047  19.9339104
  20.5272484  18.5444298  20.2594490  18.9681110  17.7965622  19.9398689
  17.8044586  19.8130970  19.2410946  17.4568996  20.7253494  18.9820557
  17.1620636  19.0472965  19.3859367  20.7985859  21.5054760  24.7159786
  19.8259449  20.7932320  24.8672523  20.7771072  22.7977104  25.0886993
  21.8894005  23.7709541  25.0542316  22.3294582  23.7718315  24.0570126
  22.6586285  23.4585724  25.7604980  21.2642059  25.1600857  25.2393322
  20.8787441  25.4632072  24.2658615  21.8590164  25.9521923  25.6941605
  20.0104332  24.7974949  26.1686344  19.2265167  25.5489178  26.0740795
  20.2678261  24.7219868  27.2251129  19.6111488  23.4154091  25.6804256
  19.2451344  22.8367691  26.5285473  18.3732586  23.5634289  24.8149128
  17.2235298  23.8128338  25.2882080  18.4686604  23.3890553  23.4983292
  19.3786697  23.3526134  23.0616760  17.3525181  23.3865871  22.5159130
  17.8364849  23.4556999  21.5416946  16.5962696  22.0848522  22.5819111
  17.2953568  21.2534676  22.6723251  15.9515629  22.0196743  23.4583893
  15.6755686  21.8777752  21.3935261  16.0229034  22.2952671  20.2313328
  14.6219463  21.2084446  21.4446812  16.5725288  24.6926060  22.5533543
  15.3308363  24.7160206  22.5991898  17.2652855  25.7812347  22.4516125
  18.2629147  25.6770287  22.3333912  16.6822758  27.0981789  22.5860443
  16.0643044  27.1751366  23.4806328  17.7971172  28.2088661  22.6376209
  18.2511883  28.1414261  21.6489983  17.2722263  29.1580887  22.7451591
  18.8601894  27.9944935  23.7146320  19.1140747  26.9357510  23.7667389
  20.2366924  28.7515697  23.3951588  20.8878975  28.8439693  24.2643528
  20.6944695  28.2425137  22.5469837  19.9769325  29.7434921  23.0254135
  18.2235565  28.2776012  25.0743637  19.0753880  28.3677979  25.7484188
  17.6400814  27.3795128  25.2770805  17.5704288  29.1420326  24.9548492
  15.8554134  27.4729786  21.3794060  16.0338497  26.9289188  20.3053856
  14.8880901  28.4019623  21.4947853  14.8766184  28.8223839  22.4130516
  13.9734488  28.9482021  20.4410210  14.4875708  29.2989635  19.5461788
  13.0139389  27.7961845  20.0006275  13.5750341  26.9764824  19.5518951
  12.3112106  27.4591427  20.7626495  12.2083845  28.3185158  18.8994446
  12.0549974  27.4826908  18.4528217  13.0598488  30.1050892  20.9375362
  12.6437664  30.2141018  22.0668507  12.7858267  31.0797157  20.0276680
  12.8078117  30.8217564  19.0514107  12.1912346  32.3893394  20.3332253
  12.7950115  32.8659477  21.1054916  12.0908222  33.3419800  19.1348648
  11.8574371  32.7527657  18.2480412  11.3374672  34.1054688  19.3288689
  13.3759813  34.0348778  18.7207642  14.2625799  33.5693283  19.1512394
  13.5478439  34.0379868  17.1811295  13.4164000  32.9984589  16.8807697
  14.4994726  34.4804878  16.8866863  12.7203836  34.6205521  16.7761269
  13.3680725  35.4647636  19.2359467  14.0760956  36.1011581  18.7050953
  12.4101763  35.9640923  19.0903225  13.7231560  35.4630699  20.2664852
  10.7281227  32.1681557  20.8350563  10.3406086  32.9313011  21.7728310
   9.9437704  31.1630135  20.3648033  10.2436562  30.6032505  19.5794144
   8.5620441  30.8993073  20.8397388   8.0111284  31.8397846  20.8295403
   7.8174586  30.0073547  19.8415546   6.8725710  29.7590446  20.3249111
   7.5761280  30.6119461  18.4417324   6.7020240  31.2606258  18.4988174
   8.4183741  31.1837711  18.0521965   7.4119844  29.7917538  17.7428455
   8.4895973  28.7567348  19.8191986   8.2737684  28.1443119  20.5262756
   8.3468466  30.4339237  22.2218018   7.2774825  30.6112289  22.7231884
   9.4216127  29.9613647  22.9856796  10.2219162  29.9524803  22.3696136
   9.3997183  29.5957813  24.3912659   8.5222635  28.9865398  24.6080589
  10.6636305  28.7999859  24.6165524  11.4757633  29.3649902  24.1590443
  10.9179592  28.5709438  25.6514225  10.4940453  27.4296017  24.0726013
   9.7303743  26.8842487  24.6271248  10.1854372  27.4231777  23.0272160
  11.7830925  26.6512699  24.1520863  12.6237850  27.1914444  23.7167187
  11.9900084  26.5905991  25.2205467  11.7131701  25.2749443  23.4670010
  10.7804852  24.8508453  23.8389473  11.7101068  25.5227432  22.4055462
  12.8452969  24.3825226  23.7739410  13.7415085  24.7768154  23.5260715
  12.8274488  24.1381359  24.7537651  12.6484814  23.4903145  23.3434410
   9.3652420  30.7842197  25.3243809   8.9022417  30.6441841  26.4603691
   9.6511097  31.9447384  24.8150330   9.7824049  31.9605465  23.8137283
   9.7478161  33.1668510  25.6086807  10.1188965  32.8340111  26.5780201
  10.8132095  34.1079216  24.8908825  10.3314896  34.4467583  23.9736938
  11.0120811  34.9792824  25.5148029  12.1478443  33.3449059  24.7192879
  12.5208721  32.4745979  25.4991379  12.8616428  33.6555748  23.6595497
  12.5904999  34.4022179  23.0357666  13.7438498  33.1763725  23.5491714
   8.3750629  33.9006195  25.8574886   8.1303596  34.9784126  25.3438530
   7.3793354  33.1613770  26.3544235   7.6947651  32.2238884  26.5586758
   5.9474649  33.4714355  26.4879837   5.5990801  34.0181694  25.6117363
   5.0593548  32.1834564  26.5532665   4.0489345  32.3282738  26.9356003
   4.9119859  31.4717617  25.1920166   4.2068205  30.6409512  25.2162819
   4.7609119  32.2164268  24.4105110   5.8674994  31.0348530  24.9018364
   5.6486287  31.0941296  27.3123074   5.3007088  30.9600601  28.1969414
   5.5455809  34.3205795  27.7403259   6.3266506  34.4034500  28.7007961
   4.2945447  34.8742142  27.7577057   3.7141786  34.8407936  26.9317780
   3.7965608  35.6206741  28.9061832   4.5342107  36.2893219  29.3498993
   2.5455151  36.4455299  28.3916855   2.8322053  37.1970596  27.6560841
   1.8858641  35.6951180  27.9559746   1.7599773  37.1779060  29.4426441
   0.9114760  37.6621094  28.9592247   1.3600885  36.4879227  30.1856880
   2.6844976  38.1304817  30.2048130   3.3243816  37.8085136  31.2384033
   2.6993880  39.3365822  29.8373070   3.5249681  34.6329803  30.0840435
   2.9946618  33.5238991  29.9127026   4.0148339  34.9243584  31.2900887
   4.1827168  35.9145355  31.3972130   4.3454828  34.0425720  32.4409409
   3.8779788  33.0644760  32.3274765   5.9056206  33.7549248  32.4607925
   6.2247534  33.1881485  31.5861397   6.3737559  34.7329826  32.3496361
   6.5909324  33.0796013  33.6533623   6.3317471  33.6410408  34.5509758
   6.1177344  31.6022320  33.7293396   6.7024317  31.0902424  32.9650726
   6.5198622  31.3445606  34.7091370   5.0514884  31.4082870  33.8459816
   8.1302919  33.1116638  33.5794563   8.5503845  32.8556099  34.5521126
   8.3747358  32.6100883  32.6430969   8.3649788  34.1731873  33.5007515
   3.8380232  34.4497833  33.7743378   3.8946028  35.6589546  34.0403175
   3.4111559  33.4934998  34.5189133  33.4744987  44.7104187  44.2212906
  33.0323448  45.1509438  43.4272232  32.8352242  44.0976562  44.7070351
  33.7162399  45.3535767  44.9615669  34.6864624  43.9637070  43.7104836
  35.2190628  44.7149811  43.1273689  35.5196953  43.4036140  44.8339157
  34.9643517  42.6946869  45.4480171  36.3174438  42.7830200  44.4257965
  36.1942558  44.5180550  45.7358742  36.8658905  45.0432091  45.0567398
  35.3963280  45.2370338  45.9215660  37.0799904  44.0746689  47.2816620
  35.7499809  43.5904961  48.3369942  35.1810417  44.4934387  48.5585785
  34.9681015  42.9874992  47.8753052  36.1917419  43.0708160  49.1872177
  34.3952866  42.8397789  42.7584801  33.3285637  42.2831879  42.8943520
  35.3707237  42.4465637  41.9060516  36.1912308  43.0302696  41.8275795
  35.3483887  41.2508583  41.0819740  34.4123535  41.2761307  40.5240364
  36.5706863  41.2638054  40.1041527  36.6086388  42.1511765  39.4723015
  37.4880943  41.1964645  40.6889038  36.5396080  39.9919395  39.2486916
  37.3414307  40.0569916  38.5131989  36.7119141  39.1372528  39.9028473
  34.9281235  39.7843094  38.2776718  35.2169762  38.1211205  37.5245934
  35.7257767  37.4524727  38.2189560  34.2715302  37.6475830  37.2600327
  35.9141731  38.2712135  36.7002869  35.2358131  39.9614487  41.9378128
  35.7669067  39.9199371  43.0595016  34.5539932  38.9452248  41.4957581
  34.0707970  38.9984856  40.6104431  34.4931221  37.6621017  42.1654892
  34.7750473  37.9050789  43.1899796  33.0923996  37.0167084  42.1185188
  33.1811485  36.0908318  42.6868362  32.0585136  37.7739067  42.9069824
  31.8627300  38.7644119  42.4962845  31.0622540  37.3800659  42.7058487
  32.2366142  37.7846756  43.9822769  32.5949478  36.5529861  40.7093506
  32.3446655  37.4789238  40.1915627  33.4195518  36.1203842  40.1427994
  31.3425331  35.6493568  40.6290779  30.4405499  36.2084045  40.8780479
  31.2774086  35.2539139  39.6154289  31.5488052  34.7946739  41.2733345
  35.5104408  36.5937386  41.6870384  35.9026680  36.5321999  40.4568367
  35.9922523  35.7575607  42.6111107  35.6458321  35.8643494  43.5538139
  36.9386063  34.6920509  42.5069199  36.9957428  34.3338318  41.4790497
  38.3535690  35.1584702  42.8381500  38.2737885  35.4939270  43.8721733
  39.0004654  34.2837944  42.7705803  38.9502945  36.3533592  42.0331879
  38.3609276  37.2621918  42.1547203  39.9145889  36.6811829  42.4214668
  39.2803726  35.9322128  40.6135139  40.2045784  35.3543320  40.6131935
  38.5059166  35.2325821  40.2991219  39.3603897  37.0874443  39.7278481
  39.3782043  38.0283470  40.0945778  39.3004951  37.0658264  38.4340057
  39.2370338  35.9449768  37.7944603  39.2598953  35.0946808  38.3390465
  39.2845879  35.9745750  36.7860107  39.3638039  38.2300797  37.9202156
  39.3999596  38.2190208  36.9109192  39.5729370  39.0562019  38.4623299
  36.5515671  33.4028625  43.2454872  35.9348679  33.4089584  44.3347702
  36.9698448  32.1987839  42.7325172  37.4631500  32.1435013  41.8529129
  36.9317169  30.8935909  43.4550591  36.0312462  30.9278755  44.0683098
  36.7259331  30.1091118  42.7268028  38.2230492  30.4949684  44.1993370
  39.3348770  30.8509674  43.8302727  38.1433487  29.7399197  45.2112083
  37.1937866  29.4076633  45.3008499  39.1795998  29.3894787  46.1363716
  40.1465454  29.5950909  45.6771927  39.1898232  30.3497334  47.3436050
  38.3059082  30.1914825  47.9614677  40.3860893  30.1032543  48.2380829
  40.5035172  29.0244999  48.3410568  41.3170547  30.4265938  47.7724075
  40.3397980  30.6763439  49.1641121  39.1137428  31.8220921  46.9091721
  39.7710609  31.8764191  46.0413704  38.0720367  32.0435753  46.6770172
  39.5578842  32.9336739  47.9204941  38.8684731  32.9600677  48.7643623
  40.5982475  32.6675491  48.1073723  39.5919189  33.9060783  47.4291916
  39.0688934  27.8473587  46.4179878  37.9679832  27.4005775  46.8032188
  40.0964928  27.0642815  46.1510849  40.9850349  27.4864063  45.9221649
  40.1914673  25.5708923  46.3720970  39.2237091  25.0701580  46.4004936
  40.9667549  24.9237423  45.2071190  41.7584419  25.6374874  44.9792938
  41.5044479  23.9973736  45.4091759  40.1821442  24.6347084  43.8902893
  39.8296776  25.5774479  43.4718285  40.8680992  24.2035999  43.1611023
  39.0061874  23.6540775  44.0784225  38.2712135  24.1694412  44.6967392
  38.5851097  23.4113274  43.1027870  39.2627106  22.4488220  44.8714180
  38.7364616  22.5297127  45.7296829  39.8335800  21.3780727  44.5313454
  40.0838432  21.1077518  43.2752838  40.6471252  20.3303833  42.9614143
  39.6366615  21.6142902  42.5245857  40.2666168  20.5520382  45.4303284
  40.7222404  19.7405605  45.0378799  40.2318878  20.8252373  46.4020538
  40.8709068  25.1197414  47.6688309  41.7211380  25.7764378  48.2457123
  40.6721497  23.9144783  48.0319023  39.9134979  23.3902454  47.6199150
  41.3484993  23.1311207  49.0604553  42.4180450  23.2623062  48.8962593
  41.0858498  23.2979755  50.1050949  41.0615501  21.6502934  48.8877335
  40.1345482  21.2951469  48.1757431  41.8556862  20.7866230  49.5433693
  42.6856041  21.2050076  49.9387054  41.6976509  19.4376240  49.7721748
  40.6465302  19.2549553  49.9955063  42.1235313  18.6196289  48.5870972
  43.2052727  18.6139259  48.4532776  41.8546333  17.5637226  48.6163750
  41.7410889  18.9767838  47.6309166  42.3770103  18.8808613  51.0320740
  43.3843231  19.3884449  51.5107269  41.8388901  17.7627716  51.5252037
  41.0189438  17.4165096  51.0478249  42.2209549  17.0552750  52.8260727
  43.3087349  16.9896393  52.8490562  41.7075577  17.9239788  54.0363159
  42.0702896  18.9331398  53.8410530  40.2571754  18.0527573  54.1463814
  40.1240196  18.8418674  54.8864288  39.7970123  18.3046970  53.1909370
  39.8762703  17.1186256  54.5591850  42.1654510  17.3536377  55.2092857
  42.5538483  18.0242462  55.7758827  41.7131042  15.6594076  52.8476410
  41.0292130  15.2667093  51.9347229  42.1852074  14.7664213  53.6961517
  42.6287804  15.1354284  54.5251122  41.9391441  13.2837210  53.6125641
  40.9626732  13.1067753  53.1616821  43.0715179  12.5794764  52.7855644
  43.1765060  11.5561838  53.1460533  42.7702217  12.2507696  51.3451042
  43.7234268  11.9825077  50.8895378  41.9972267  11.4827957  51.3169899
  42.4597816  13.1667490  50.8424034  44.3807983  13.1669636  52.8177910
  44.7913704  12.8861771  53.6388817  41.9906921  12.7121220  55.0075264
  42.7616730  13.0858793  55.8910141  41.2521515  11.6482363  55.2471809
  40.5864868  11.2879915  54.5784378  41.1519356  10.9347820  56.5623856
  41.7335510  11.4432268  57.3313522  39.6909370  10.9427328  56.9664726
  39.6200676  10.3751783  57.8943520  39.1407661  12.2274599  57.3038139
  38.1579361  11.9776096  57.7034569  39.7659683  12.6612873  58.0842094
  39.0405350  12.9726629  56.5146866  38.7067108  10.4143848  55.9539642
  38.8829308  11.0615129  55.0947342  38.9827271   9.4307871  55.5738945
  37.7138672  10.3258972  56.3950310  41.7436218   9.5617561  56.4167213
  41.7066612   8.9833183  55.3459816  42.1958580   9.0201292  57.5090714
  42.3653755   9.6274586  58.2980652  42.5665779   7.6312423  57.5689430
  42.8033142   7.2806344  56.5643883  43.6730003   7.3443928  58.6830940
  43.2091942   7.7155676  59.5969963  43.7763138   6.2843533  58.9149170
  45.0394592   8.0547514  58.3985481  45.0166664   9.1219845  58.6189995
  45.8230171   7.6442733  59.0354538  45.5731087   7.9897099  56.8666763
  46.1085587   8.9733858  56.3266487  45.5278282   6.8752942  56.2686615
  41.3952370   6.6296530  57.7782288  41.5594368   5.3943238  57.7534599
  40.2239647   7.1467061  58.1471100  40.2636414   8.1524906  58.2303085
  39.0643654   6.4217548  58.5805779  39.0020103   5.4356093  58.1204376
  38.9277344   6.2554088  60.1303444  39.1281548   7.1800580  60.6716042
  37.9390717   5.9017472  60.4228706  40.0551491   5.2124109  60.5425262
  40.0774345   4.2503290  60.0306664  41.0136375   5.7161522  60.4174194
  39.9720001   4.8897047  62.0815544  39.1519966   4.1942630  62.2605820
  40.9124069   4.4515710  62.4158783  39.7331924   6.0529132  62.8607368
  40.4888916   6.7228312  62.8759308  38.8641930   6.1966839  63.8504715
  37.9228630   5.3423100  64.0802307  37.8422623   4.5757689  63.4275322
  37.2030754   5.5492253  64.7578735  39.0135384   7.1803327  64.7087021
  39.7572479   7.8535442  64.5913010  38.3012657   7.2395906  65.4223251
  37.7940750   7.0351377  58.1176758  37.6331749   8.2324581  58.1296043
  36.7738304   6.2379689  57.7772789  36.8352089   5.2582169  58.0148048
  35.3897896   6.6488914  57.4773369  35.3510704   7.5414629  56.8529015
  34.6488800   5.5489044  56.6106529  35.2136841   5.4077539  55.6891479
  34.7387314   4.6583433  57.2326889  33.2065887   5.9719563  56.3642769
  32.9160233   7.1880760  56.2796135  32.3189163   5.0899587  56.1431656
  34.6496353   6.8963223  58.8103294  34.0914459   5.9478221  59.4044228
  34.8361359   8.0813522  59.3224030  35.4763794   8.7440081  58.9087868
  34.3532639   8.4847145  60.6588478  33.3573189   8.0943661  60.8682022
  35.3282394   8.0709848  61.8439598  35.3922005   6.9829507  61.8577614
  36.6906776   8.7022676  61.9001770  37.2248383   8.2268677  61.0775146
  36.5663185   9.7836618  61.8434219  37.1775436   8.4404154  62.8395958
  34.6634750   8.4106035  63.0452881  35.2179680   8.2303267  63.8079414
  34.1289940  10.0284538  60.7375717  34.8711014  10.8413115  60.2434311
  33.1033554  10.5241489  61.4691277  32.4899406   9.8987303  61.9718018
  32.7429428  11.9344368  61.5279465  32.9029579  12.4167747  60.5636597
  31.3163528  12.0276737  62.1756325  30.5666084  11.5092497  61.5779533
  31.3109341  11.6785784  63.2082024  30.7714787  13.4812946  62.0844460
  31.4048729  14.1766396  62.6352730  30.7315025  13.8826599  61.0718231
  29.3131466  13.5246954  62.6143799  29.0183220  13.1362438  63.7540131
  28.3220692  13.7458572  61.8624535  33.7510338  12.6271715  62.4297600
  33.9530106  13.8130684  62.1994095  34.3635674  11.9600954  63.3870621
  34.2021904  10.9690714  63.4962769  35.3077698  12.5593500  64.3164444
  34.9141922  13.4987736  64.7046204  35.6057014  11.6543217  65.5764313
  36.1586952  12.2715511  66.2844772  34.6143303  11.3828392  65.9391708
  36.5880127  10.4291830  65.2243423  36.5855331  10.1078053  64.1828003
  37.6490059  10.5651083  65.4339066  36.0901413   9.2062626  65.9549179
  35.6486931   9.2963991  67.1181793  36.1264343   8.1309853  65.3421402
  36.6899147  12.8415375  63.6457901  37.6084557  13.3458128  64.3155670
  36.8091354  12.4874077  62.3676910  35.9603882  12.1852160  61.9111786
  37.9194412  12.7850237  61.4957008  38.7200546  13.2723665  62.0521317
  38.7163086  11.5739346  61.0480461  37.9994698  10.9357376  60.5313721
  39.3680534  11.9326582  60.2514000  39.4330254  10.7572517  62.1251526
  38.7698975  10.6283398  62.9805756  39.6634598   9.8214846  61.6158981
  40.7307129  11.3660927  62.5376358  40.8148575  12.6090336  62.7097359
  41.7935677  10.7132092  62.6252518  37.4635239  13.6393070  60.3176079
  38.0163803  14.6846333  60.0123253  36.4850960  13.1714201  59.5737114
  35.9595222  12.3266039  59.7473793  35.9566422  13.7952261  58.3078194
  36.8023796  14.0368204  57.6640320  34.8172379  12.9592409  57.5815964
  34.0752945  12.8801756  58.3761902  34.3992004  13.7188778  56.3086472
  35.2263756  13.8505325  55.6111145  33.6141968  13.1966219  55.7617302
  34.0819778  14.7311306  56.5592880  35.1493568  11.5126324  57.2351570
  35.7821999  11.6391230  56.3567429  35.6560059  10.9986000  58.0519676
  34.0723381  10.6197433  56.9025002  33.4485741  11.0737495  56.1325073
  34.4881744   9.6415281  56.6610985  33.4658623  10.5119905  57.8017654
  35.4159012  15.2323017  58.6898384  35.7354393  16.2439594  58.0397148
  34.6487808  15.4465933  59.7315483  34.2156487  14.6678257  60.2069626
  34.1492958  16.8386192  60.0730858  33.6969452  17.1921120  59.1465187
  32.9966431  16.8041077  61.0828629  32.2390671  16.3314228  60.4577675
  33.2938232  16.1906567  61.9334297  32.5226746  18.1993675  61.5235710
  32.6458359  18.9434032  60.7365875  31.0076904  18.1097202  61.6956787
  30.6219311  19.1288033  61.7231789  30.5167274  17.5874500  60.8745270
  30.7181034  17.6746864  62.6522255  33.1434822  18.6737423  62.8202362
  34.2295227  18.6831799  62.7278938  32.9231720  19.6991291  63.1171265
  32.9040298  18.0160828  63.6558456  35.3920517  17.6454849  60.5254250
  35.5474396  18.8190746  60.2207222  36.2701645  17.0100079  61.3301964
  36.0171204  16.0592632  61.5585670  37.3677177  17.7638474  62.0037003
  36.8603973  18.6072617  62.4720879  38.0948715  16.9219151  63.0436401
  38.4367409  16.0087051  62.5565300  38.9815674  17.4674301  63.3665733
  37.2798119  16.5433292  64.2357864  36.4169655  16.1108513  63.7292671
  37.8506889  15.9152336  64.9196701  36.8290825  17.7771702  65.0444946
  37.3117599  18.8710709  65.0597763  35.7070465  17.6408291  65.8055267
  35.1041985  16.8383389  65.9181747  35.3678246  18.4708595  66.2703705
  38.4616318  18.2141266  61.0515213  38.6553802  19.4438381  60.8577652
  39.0618134  17.3052673  60.2795677  38.8336754  16.3268776  60.3835297
  39.9179115  17.8042336  59.1345711  40.6746635  18.4211273  59.6192017
  40.5384560  16.6081371  58.3790054  39.7015343  15.9439402  58.1633492
  41.0344963  16.9854679  57.4847641  41.7240906  15.8781996  59.0302582
  41.9483261  14.9590502  58.4889793  42.5863686  16.5354118  58.9177322
  41.5872040  15.5591745  60.5451584  41.4009399  16.4735661  61.1084480
  40.8279686  14.8005905  60.7354851  42.8756294  14.9456186  61.0350838
  43.1722221  14.1018305  60.4120636  43.7381935  15.5989304  60.9036293
  42.7194023  14.3549175  62.3892593  42.5953751  15.1691198  62.9738884
  41.9083939  13.7669916  62.5185204  43.5714073  13.8609982  62.6133842
  39.2382164  18.7837334  58.1181412  39.9520912  19.6658306  57.6033707
  37.9091530  18.6754284  57.9213867  37.4995270  17.8588142  58.3520203
  37.1613846  19.6561108  57.0897141  37.7948761  19.7360573  56.2063141
  35.8036690  19.1974411  56.6015930  35.1292496  19.0976543  57.4520645
  35.1828499  20.0947933  55.4807930  34.1888275  19.6633015  55.3631668
  35.1536179  21.1238804  55.8388901  35.7066841  20.0267258  54.5273438
  35.8388100  17.9256134  56.0199814  35.7560806  17.4189301  56.8311729
  37.0392342  21.0241318  57.7491722  37.1233749  22.0693665  57.0795403
  36.8857460  21.0508842  59.0611496  36.7943115  20.1485367  59.5055733
  36.9160652  22.2589359  59.9158783  36.1987762  22.9976559  59.5582657
  36.3911133  21.8878803  61.4214821  35.4956856  21.2670860  61.4519119
  37.1863556  21.4404507  62.0177155  35.9693871  23.1586437  62.1994057
  36.7846375  23.8707123  62.3275681  35.1834679  23.5843220  61.5755119
  35.3066025  22.7729416  63.5218010  34.3145332  22.3628883  63.3327103
  35.8669891  22.1021786  64.1730652  35.1717796  24.0750561  64.3490448
  35.1514854  24.9254360  63.6674690  34.2409477  24.0734367  64.9161835
  36.3210602  24.2050343  65.2055283  36.6309853  23.3099251  65.5560074
  37.0670319  24.7034492  64.7416229  36.0250435  24.6342754  66.0705261
  38.3219833  22.9100971  59.9101181  38.4048538  24.1252747  59.7372551
  39.3738327  22.1092339  60.0144615  39.1406250  21.1266422  60.0297012
  40.7507477  22.5290318  60.0096397  40.9233437  23.3132744  60.7467155
  41.7142639  21.4405823  60.3413239  41.6407318  20.5361443  59.7374306
  42.7404213  21.7872257  60.2191048  41.4891052  21.0331306  61.8417015
  41.8843384  21.7286148  62.5820999  40.4293900  20.9315987  62.0757828
  41.9072189  19.6054287  62.1860313  42.7454643  18.9553432  61.5167732
  41.3533707  18.9579468  63.1981735  41.7317314  18.0692520  63.4934044
  40.5647240  19.4417629  63.6032257  41.0745392  23.2323532  58.6352196
  41.8021431  24.2268181  58.5149384  40.5324593  22.6799679  57.5064926
  39.8691292  21.9192638  57.5441780  40.6852303  23.2654972  56.2120323
  41.7524757  23.4840240  56.1754684  40.2491951  22.2145767  55.0881500
  40.9095764  21.3516235  55.1736603  39.2679100  21.7806721  55.2802391
  40.2416344  22.6724854  53.6505241  39.5350342  23.4936485  53.5300865
  41.5781593  23.1950779  53.1932411  42.4213333  22.5266724  53.3675652
  41.5314522  23.5024014  52.1485062  41.8648949  24.1552467  53.6221428
  39.7707596  21.5676575  52.7169456  40.4192848  20.6920414  52.7454453
  38.7710266  21.3885498  53.1126175  39.8567467  21.9125957  51.6865463
  39.9928970  24.5799122  56.1980820  40.6527252  25.5533695  55.7713127
  38.6604881  24.7209663  56.5191612  38.1635132  23.9003048  56.8348007
  37.8392982  25.9880238  56.3353958  37.8582840  26.3105354  55.2943726
  36.3113213  25.7708569  56.6916962  36.1297684  25.6081066  57.7540741
  35.8030396  26.7327747  56.6248894  35.5483017  24.7327156  55.8438683
  36.2129211  23.8755474  55.7359390  34.3867378  24.1324959  56.6277580
  33.9305840  23.2353306  56.2092934  34.6744537  23.7584114  57.6102982
  33.5976334  24.8825855  56.6805191  35.1552582  25.3491783  54.4972343
  34.9001961  24.5718899  53.7769089  34.2973709  26.0123043  54.6085930
  35.9379654  25.9960613  54.1009941  38.4107857  27.2108192  57.1813889
  38.7621002  28.2550869  56.5719070  38.6777573  27.0371990  58.4611397
  38.3701859  26.1867523  58.9108582  39.3552284  27.8774281  59.3141670
  38.7013245  28.7356472  59.4689941  39.5316772  27.1519680  60.6756783
  39.9829254  26.1681633  60.5468178  40.0365295  27.7987003  61.3932877
  38.1496849  27.0142326  61.3295898  37.8163261  28.0519276  61.3422661
  37.4089622  26.4589500  60.7541809  38.2133560  26.3578014  62.7517357
  39.2299194  25.7455406  63.1297417  37.1812935  26.1886997  63.4580383
  40.6955452  28.3999634  58.7575722  41.0622215  29.5714169  58.9671135
  41.4739075  27.5992432  58.0035553  41.2660904  26.6111679  58.0284081
  42.7197342  28.0444889  57.4164886  43.2639465  28.7486134  58.0458870
  43.5803909  26.7983284  57.3162003  43.4946098  26.3088703  58.2863426
  43.2011223  26.0970211  56.5729446  45.0735779  27.0224915  57.1128998
  45.5658607  26.0502396  57.1348839  45.2017403  27.4551620  56.1206932
  45.7547874  27.9775410  58.1296768  45.4343872  28.9586620  57.7791748
  45.4716301  27.7139187  59.1487083  47.2629547  27.8674278  57.9139328
  47.5208855  26.8381691  58.1633453  47.4812584  28.1248035  56.8774986
  47.9053497  28.8295631  58.8279610  47.3833389  29.6933498  58.7894478
  48.0128593  28.5466728  59.7915573  48.8290024  29.0841084  58.5083275
  42.5955849  28.6763821  56.0295639  43.4137192  29.5246983  55.6645432
  41.5742722  28.2880173  55.2262993  40.9850883  27.5257092  55.5293655
  41.1463051  29.0698223  54.0660057  42.0477066  29.2529678  53.4811668
  40.1054268  28.2599716  53.2018166  39.3424797  27.9257278  53.9048767
  39.3767166  29.1904278  52.2313385  38.6382332  28.6799164  51.6131744
  38.9637794  30.0030270  52.8290558  40.0836105  29.6508465  51.5411110
  40.8066750  27.0859070  52.5223770  41.4909554  27.5419941  51.8069382
  41.1776810  26.4487762  53.3251991  39.9218025  26.1859207  51.6429100
  39.0270920  25.7795486  52.1145630  39.4244881  26.8007317  50.8927193
  40.4947586  25.3727989  51.1972008  40.5836105  30.4299736  54.5515213
  40.7420349  31.4086914  53.8067856  39.9845886  30.5359955  55.7536888
  39.6793938  29.6897869  56.2129135  39.4936180  31.7646828  56.3776627
  39.0263023  32.3383598  55.5772820  38.4512062  31.3504276  57.4743347
  38.7892303  30.3747101  57.8233604  38.2776756  32.3405151  58.6032715
  37.8791084  33.2619286  58.1787224  37.5827675  32.0315704  59.3841400
  39.2041130  32.5568161  59.1352692  37.1101913  31.1863518  56.7655258
  36.7865448  32.1801910  56.4562721  37.2260933  30.5639915  55.8782043
  36.0979424  30.4484653  57.6213799  36.5501976  29.6630478  58.2269249
  35.6635056  31.1143208  58.3670311  35.2836914  30.2155209  56.9352074
  40.5435829  32.6295395  56.8231163  40.5392418  33.8357811  56.6634102
  41.5322304  32.1557198  57.4741707  41.5836525  31.2140427  57.8357010
  42.6432228  32.9934616  57.8001862  42.2893906  33.8902664  58.3087578
  43.6842422  32.2147522  58.6585312  43.7856789  31.2563038  58.1494217
  44.6185646  32.7760925  58.6650314  43.1377296  32.0212860  60.0793152
  42.3156128  31.3203163  59.9348717  43.9808464  31.6201077  60.6417313
  42.6479301  33.3290749  60.7425232  41.5646820  33.2927399  61.4132347
  43.2726555  34.3758316  60.5295410  43.4110680  33.4486313  56.5292892
  43.5948067  34.6650047  56.2650146  43.7623634  32.5590591  55.6055984
  43.4963493  31.5856838  55.6488914  44.7910233  32.8654099  54.5689354
  45.5641937  33.4709320  55.0418625  45.3773460  31.6210117  53.8776703
  44.5676880  30.9558754  53.5774155  45.7984428  31.9907017  52.9427338
  46.4126816  30.8376942  54.7743568  46.0668106  30.6921921  55.7977333
  46.5613785  29.7999611  54.4758568  47.7998695  31.5926533  54.8830376
  47.9203873  32.7599907  54.4154663  48.7125816  31.1031036  55.5103378
  44.2171783  33.7905312  53.4767456  44.9492760  34.6076851  52.9579315
  42.9426651  33.5704956  53.1917686  42.3350182  33.0128593  53.7747879
  42.2076759  34.4527359  52.2641335  42.8957634  34.9895020  51.6110535
  41.3408012  33.5729561  51.3030396  40.5580788  33.0574532  51.8595467
  40.8618546  34.1823578  50.5366592  42.3479500  32.6027412  50.5087242
  42.9548187  32.9239464  49.4706459  42.4030342  31.3697624  50.9471741
  43.1271553  30.7432938  50.6257858  41.8700371  31.1745911  51.7825928
  41.5637512  35.6798706  53.0028152  40.8366394  36.4754791  52.3634033
  41.8195915  35.9031487  54.2668991  42.4267845  35.1882172  54.6414413
  41.2063332  36.9149208  55.2510529  41.6439323  36.6107903  56.2019043
  41.8085632  38.2653275  55.0163269  41.4817238  38.6417198  54.0469933
  41.6028519  38.9673119  55.8244133  43.3111191  38.2699051  54.8923912
  44.2034149  38.0715332  55.8860321  44.0158730  37.9753265  56.8737946
  45.4414711  38.1565857  55.4215279  46.3711586  37.9687195  55.9380417
  45.3309364  38.5502701  54.1618881  46.1767654  38.7532997  53.6486092
  44.0251045  38.5585365  53.8020592  43.6085091  38.7663078  52.8275414
  39.6403732  36.8201256  55.3993454  38.9583054  37.6335144  56.1299400
  39.0365372  35.8921242  54.6501083  39.6589813  35.2759018  54.1471825
  37.5911903  35.9239883  54.2392273  37.4022903  36.8335381  53.6690140
  37.2123947  34.7700233  53.3410606  37.2957916  33.8093758  53.8492966
  35.7996941  34.8066559  52.7363396  35.7364082  34.0368690  51.9672356
  35.0744781  34.5633354  53.5128479  35.5083008  35.7989235  52.3919716
  38.1026154  34.7367592  52.2513428  38.0487747  35.5404053  51.7289848
  36.5817909  36.1253548  55.4650612  36.5880356  35.3723946  56.4520988
  35.6951065  37.1130371  55.2633400  35.7929153  37.7784309  54.5098267
  34.5273743  37.3713989  56.1545334  34.7054062  36.7542839  57.0351982
  34.4779968  38.8771210  56.5339661  33.7983360  38.9904442  57.3785439
  35.4262581  39.0862236  57.0291214  34.2839737  39.8015480  55.3752098
  35.0629921  39.6594200  54.6261902  33.3596115  39.6507683  54.8176079
  34.2602577  41.2158661  55.8984604  33.3663521  41.3360977  56.5104866
  35.1576653  41.5423813  56.4239540  34.0696144  42.1468506  54.7214012
  33.1534538  41.8787346  54.1952286  33.9694786  43.1069336  55.2276802
  35.2541809  42.2550507  53.8651810  35.1385994  43.0724182  53.2832451
  36.0560684  42.5394554  54.4094124  35.4192238  41.4216461  53.3190117
  33.2817078  36.7812996  55.4511871  33.1927223  36.9470940  54.2252426
  32.3055534  36.2512703  56.2087097  32.3559608  36.1153374  57.6862755
  32.7761993  37.0215187  58.1225395  33.1105881  35.3595428  57.9040260
  30.9781437  35.7891846  58.2350616  30.3881950  36.6868668  58.4200706
  31.0874615  35.1515503  59.1123123  30.4268894  35.0771065  56.9875793
  29.3378582  35.0894203  57.0318260  30.6464520  34.0159073  57.1048279
  31.0815620  35.6216354  55.7410965  31.3776493  34.8081856  55.0787277
  30.0592842  36.4891510  54.9735832  29.2158947  36.0002785  54.1867027
  30.2021179  37.8231468  55.0971680  30.7910080  38.1098442  55.8660088
  29.5680637  38.7938194  54.1589699  28.5207233  38.4918671  54.1612053
  29.7247009  40.1601524  54.7491455  29.4845867  40.1558533  55.8123627
  30.7662315  40.4804802  54.7225876  28.9072590  41.2863083  53.9796486
  29.4339657  41.3263550  53.0261917  27.9006176  40.9062080  53.8055916
  28.9350567  42.6882324  54.6940460  29.8684578  43.0182114  55.4629593
  28.1267147  43.5509377  54.2955475  30.0021000  38.7184753  52.6602516
  29.1907749  39.0450668  51.7774239  31.2740383  38.3575134  52.4373055
  31.8398266  38.2788239  53.2702446  31.9313812  38.1643143  51.1473579
  31.4897251  38.9881935  50.5867615  33.4253311  38.4240646  51.2199516
  33.7298508  37.6729965  51.9488297  33.8443031  38.2642708  50.2264557
  33.7143402  39.9379730  51.5718918  34.8079033  40.2193527  52.0272064
  32.9357109  40.8022194  51.0225334  31.7476902  36.8576660  50.3088531
  31.9505444  36.8620453  49.0926132  31.1223526  35.9276161  50.9031601
  30.9891224  36.1185875  51.8859520  30.7270813  34.6311722  50.2530899
  31.5576611  34.3909187  49.5893745  30.5225563  33.4899216  51.2755203
  29.4772739  33.6470718  51.5415840  30.6956234  32.1315384  50.5466728
  30.5970230  31.3698959  51.3201675  29.8956642  32.0466042  49.8111801
  31.6847363  32.1251717  50.0887260  31.3283424  33.5633125  52.5770760
  31.2020435  34.5315208  53.0615654  31.1198139  32.7322578  53.2508469
  32.3703270  33.4536171  52.2765236  29.5642052  34.7808952  49.2542038
  28.4296417  35.0303268  49.6100693  29.6951599  34.4784431  47.9430847
  30.6468391  34.1989098  47.7526436  28.5683384  34.2080650  46.9920387
  27.7592697  34.9127731  47.1841164  29.1439800  34.3707581  45.5924530
  29.8961010  33.5888405  45.4874802  28.1461792  34.2047501  44.4591637
  28.4750996  34.8225670  43.6235657  27.9268894  33.1680260  44.2037888
  27.2214966  34.6946678  44.7642021  29.9860439  35.6608276  45.3273468
  30.9134865  35.6163445  45.8982849  30.3549328  35.7579575  44.3062744
  29.4596786  36.5910835  45.5410423  27.9208374  32.8741341  47.3743820
  26.7382526  32.7694054  47.6570358  28.7698059  31.8393745  47.4446106
  29.7647762  32.0038223  47.3889999  28.3573914  30.4688797  47.8441162
  27.8530006  30.6264286  48.7974625  27.4729156  29.8885517  46.7406044
  27.2846375  28.8238163  46.8784065  26.5058041  30.3847790  46.6596146
  28.1369343  29.9520988  45.3278046  28.7565746  30.8312244  45.1509361
  28.8939896  29.1785736  45.4567451  27.0999146  29.6810780  44.2676659
  26.0227928  30.2548676  44.2731056  27.3847008  28.8589783  43.2514992
  28.3073959  28.4505825  43.2956886  26.7962704  28.6441441  42.4592247
  29.6773739  29.6119118  48.0470467  30.7125225  29.9562416  47.6043625
  29.4845009  28.3746700  48.5526848  28.6064224  28.0007477  48.8832283
  30.5705128  27.3703365  48.4185867  31.2365932  27.6796856  47.6131401
  31.6136627  27.3265438  49.5814171  32.5770912  27.0113907  49.1806831
  31.8358040  28.3536625  49.8708687  31.2010956  26.5560207  50.7978287
  30.3328228  27.0390358  51.2460480  31.1655807  25.5165138  50.4718475
  32.5524178  26.5646133  52.1311646  32.3256798  28.1488323  53.0255470
  32.5812416  29.0050049  52.4012375  31.3541813  28.2712288  53.5044174
  33.1600342  28.2305202  53.7221680  30.0526581  25.9497490  48.0453873
  28.9027557  25.5375023  48.2143021  30.9536839  25.0956707  47.5436172
  31.8637772  25.4817410  47.3367882  30.7993336  23.6738071  47.1456490
  29.8748245  23.2598553  47.5481911  30.7014790  23.6920681  45.6172905
  29.7439003  24.0399532  45.2298431  31.3816319  24.4775105  45.2877884
  31.1295719  22.3400917  44.8908653  32.0845146  22.0313091  45.3161316
  30.1033077  21.2090397  44.9177437  30.4711342  20.3742104  44.3211975
  29.8660240  20.7170963  45.8610306  29.1382599  21.5685215  44.5605927
  31.3724670  22.5755653  43.4097786  31.9675350  23.4760189  43.2575264
  31.7509575  21.7420692  42.8180580  30.4716320  22.8845863  42.8795891
  31.8305683  22.7709675  47.8031044  32.9622688  23.1969070  47.9658775
  31.4711285  21.5930023  48.2618866  30.5231495  21.3133678  48.0539474
  32.3163910  20.6539860  48.9978447  33.3698120  20.9140034  48.8939438
  31.8548965  20.5566444  50.4680099  30.7864227  20.3410892  50.4688492
  32.4141083  19.7336369  50.9130287  32.1300659  21.8645897  51.1986580
  32.7817307  22.4441833  50.5448227  30.9151840  22.7102585  51.3809700
  31.1914120  23.6823025  51.7895393  30.2641087  22.7328548  50.5070763
  30.3555927  22.3281460  52.2347527  32.8400040  21.7064285  52.6181068
  32.1296997  21.4758701  53.4120903  33.6226807  20.9485893  52.5834923
  33.3397789  22.6305313  52.9085503  32.0357971  19.2817955  48.3604164
  30.9226418  19.0181389  47.8776054  33.0287056  18.3784561  48.1860123
  33.9198036  18.6700802  48.5615120  32.9614525  17.1298065  47.4399414
  31.9108334  16.8467846  47.5047646  33.2292023  17.3322372  45.9358444
  32.9111977  16.4979286  45.3106194  32.6723404  18.2164288  45.6256523
  34.5828667  17.6413364  45.5848198  34.6546860  17.2876339  44.6952477
  33.8859634  16.0694084  48.0339584  34.9320602  16.4084206  48.5820847
  33.4763870  14.7984924  47.9083748  32.4912300  14.6958542  47.7108078
  34.1658974  13.6842804  48.5288200  35.2251511  13.9329224  48.4635849
  33.6204987  13.6549473  50.0127716  33.9832191  14.5913754  50.4366150
  32.5385971  13.5233574  49.9961739  33.9772263  12.8308115  50.6305428
  33.9843483  12.3236790  47.7441406  33.0128288  12.2564449  46.9376450
  34.7473907  11.3181925  48.0878906  35.4460144  11.5211678  48.7884827
  34.8573074  10.0159636  47.3272781  34.4101677  10.3001003  46.3746872
  36.2971802   9.4934931  47.1129150  36.2585411   8.4955091  46.6762886
  37.2745438  10.4242172  46.3971710  37.3130417  11.3805542  46.9187431
  38.2877693  10.0224342  46.3908386  36.8940468  10.6339846  45.3975067
  36.9156303   9.3338861  48.3779373  37.3711929   8.4888725  48.3822746
  33.9520988   8.9501734  47.9627609  33.8575020   8.8631544  49.1749954
  33.5703201   7.8814793  47.1033669  33.4124756   7.9971528  45.6585808
  34.2783508   7.7607822  45.0401230  33.0974846   8.9888544  45.3339119
  32.2689667   7.0912642  45.3022003  32.2434464   6.7545524  44.2658272
  31.3208904   7.5980139  45.4823685  32.4563484   5.9122987  46.2162209
  33.3162498   5.2880259  45.9734154  31.5427227   5.3386197  46.3720665
  32.8149300   6.6404734  47.5510750  31.8511257   6.9757700  47.9341621
  33.4687500   5.7384810  48.6777992  32.9493675   4.6343207  48.9286919
  34.6728363   6.0151582  49.1939354  35.2170563   6.7528424  48.7699699
  35.3046227   5.2626915  50.2792816  35.2832565   4.1809731  50.1468887
  36.8422585   5.5456090  50.2031174  36.9495850   6.5211596  50.6773376
  37.3312531   4.6704164  50.6309280  37.3380547   5.7798347  48.7835388
  37.3376045   4.9491773  47.8807564  37.8423843   6.8685708  48.4341125
  34.7396317   5.6666493  51.6278419  35.0300369   5.0180354  52.6469421
  34.0300674   6.7945890  51.6425323  33.8621788   7.3581271  50.8213501
  33.6009483   7.5707603  52.8425102  33.8543320   6.9961934  53.7334518
  34.2609520   8.9781199  52.8100166  33.9988632   9.4246702  51.8508492
  33.8602562   9.7164907  53.5045357  35.7898445   9.0205240  52.8877983
  36.2283669   8.4139376  52.0954285  36.2754822  10.4743690  52.6149864
  37.3334427  10.5405378  52.8688469  36.0490265  10.7751389  51.5920715
  35.6374626  11.0750017  53.2632713  36.3973885   8.6105652  54.2061386
  36.2458076   7.5331044  54.2709122  37.4613762   8.8466139  54.2239151
  35.9702187   9.1136684  55.0736160  32.0869026   7.6683283  52.7527542
  31.4682484   7.8509526  51.7864532  31.4502945   7.4908333  53.9044991
  32.0845337   7.3929782  54.6844139  29.9624805   7.3854194  54.0975266
  29.4840965   8.0326548  53.3624496  29.5732403   5.8735886  53.8682594
  30.1062279   5.2409267  54.5780258  28.4906006   5.8500614  53.9925117
  30.0974388   5.3642888  52.5247345  29.5643253   5.7867112  51.3061867
  28.8086376   6.4299159  51.1182365  30.1836491   5.0908866  50.3258095
  30.1324215   5.3398790  49.2761536  31.1163120   4.2500381  50.9355087
  31.9214344   3.8052065  50.5183678  31.0646744   4.4187627  52.3084412
  31.6997242   3.8615575  52.9812202  29.3907986   7.9496779  55.4419403
  28.1942730   8.1469440  55.5157928  30.2067356   8.2269497  56.4970589
  31.1777763   7.9638338  56.4078979  29.7283154   8.6522951  57.8585243
  28.9399166   7.9794412  58.1958580  30.8654766   8.6531296  58.8635902
  30.5315895   8.8615627  59.8800468  31.4241734   7.7232008  58.7578087
  31.5562782   9.4404697  58.5619431  29.0781898   9.9701614  57.8675957
  28.1907063  10.0914373  58.7246475  29.4752941  10.9259424  57.0195465
  30.1034336  10.6026096  56.2977486  29.0304298  12.3218651  57.2133789
  27.9601822  12.3373003  57.4193687  29.6807003  13.0389690  58.4115524
  29.2459259  12.5566893  59.2870407  31.2243404  12.9031420  58.4691048
  31.7103901  13.0497475  57.5045471  31.5435867  13.6610012  59.1845284
  31.5517406  11.8847485  58.6783485  29.1988678  14.4352427  58.5007477
  28.1157570  14.5445976  58.4459000  29.4005527  14.7482424  59.5251770
  29.7194271  15.0318298  57.7516060  29.1364994  13.1034212  55.8665733
  30.1183681  13.0615158  55.0712357  28.1519260  14.0054283  55.6421394
  27.3290195  14.1525116  56.2089653  28.3155842  14.9771929  54.5851326
  28.6588249  14.3941784  53.7305069  26.9396324  15.5459766  54.2766647
  26.4058514  15.7731056  55.1994781  27.1510525  16.4554882  53.7143478
  25.9606171  14.7570038  53.3918915  24.8385162  14.1750813  53.9661598
  24.7340260  14.2911119  55.0348129  23.8820438  13.6096869  53.1131554
  22.9843616  13.2563915  53.5986938  24.1052876  13.4470644  51.7349014
  23.3692532  13.0698156  51.0403862  25.3483429  13.8733034  51.1593933
  25.5132427  13.8119841  50.0938225  26.1772938  14.6614504  52.0138779
  27.1315136  15.0033016  51.6410484  29.3651276  15.9902353  55.0112457
  29.2033100  16.7131786  56.0034943  30.3547287  16.3311806  54.1739845
  30.8125629  15.7279329  52.9666862  29.9307461  15.4357891  52.3964653
  31.4087944  14.8512669  53.2197914  31.7407742  16.7000084  52.2994881
  31.1099091  17.4094601  51.7639656  32.4515877  16.1672668  51.6677933
  32.3755646  17.4132652  53.4571114  32.7073250  18.4192657  53.2002106
  33.2201271  16.7962914  53.7639923  31.2676907  17.3847713  54.5103455
  31.6484661  17.2295876  55.5198135  30.6566067  18.7521458  54.8212128
  31.0947361  19.4603710  55.7250786  29.5855141  19.1245346  54.1782837
  29.1789913  18.3951149  53.6101303  28.9154434  20.4076214  54.4875069
  29.6263218  21.1921692  54.2282104  27.6891632  20.4941063  53.5350266
  27.0064449  21.2894039  53.8341904  28.1361275  20.6359177  52.5510483
  27.1015759  19.5797729  53.4523735  28.4268112  20.6837788  55.9288483
  28.2224789  21.8236370  56.2964630  28.3133335  19.6128426  56.7255707
  28.5156460  18.7178650  56.3034477  28.1628971  19.6820049  58.2310448
  27.2185249  20.1619568  58.4877968  28.1553364  18.2394466  58.7071953
  27.7442131  17.6014671  57.9248543  29.2325439  18.0922680  58.7850494
  27.3889084  18.1776848  59.9787445  27.8991680  18.7512417  60.7525482
  26.3725224  18.5666733  59.9175301  27.2445869  16.7122688  60.5627594
  26.7879391  16.0370121  59.8391571  28.2081203  16.2837849  60.8386307
  26.3825130  16.7057133  61.7992325  26.9003983  17.1343250  62.6572456
  25.4838428  17.3031292  61.6456528  26.0114021  15.3596220  62.1282845
  25.7362785  15.3273888  63.0995560  25.2454605  15.0110950  61.5697403
  26.7884464  14.7217684  62.0310974  29.2151451  20.5050640  58.8596268
  28.8903656  21.2484703  59.7660637  30.4247684  20.6144867  58.2670364
  30.5594902  19.8353291  57.6386566  31.5988274  21.3580856  58.8513603
  31.7118378  20.9689407  59.8632355  32.8082848  20.8703442  58.0070038
  33.7813492  21.1285000  58.4248619  32.7883263  19.8069496  57.7684822
  32.8382568  21.3896599  57.0491295  31.4133587  22.9024448  58.7976227
  31.8893185  23.5296230  59.7046738  30.7349110  23.5146503  57.8513832
  30.3503857  22.9638653  57.0971451  30.4964867  24.9761753  57.7435646
  31.4274006  25.5115337  57.9303627  29.9076004  25.4448891  56.3932114
  28.8178272  25.4486675  56.3713112  30.3522758  26.9068832  56.1889153
  30.0533390  27.5869503  56.9865646  31.4132595  26.8961544  55.9393196
  29.7015953  27.2730751  55.3947983  30.4958591  24.6506386  55.1711769
  30.2014465  23.6059494  55.2714081  30.2724838  25.1132717  54.2098351
  31.5669785  24.4641018  55.2486801  29.6432934  25.4717026  58.8198662
  29.7030830  26.6704826  59.2405548  28.7485123  24.6294880  59.4027557
  28.6579494  23.7054539  59.0051880  27.9346466  24.9386654  60.5730705
  27.2007008  25.6933422  60.2904205  27.2641258  23.7331581  61.1170807
  27.9949856  22.9363060  61.2548180  26.9156933  23.9563828  62.1254807
  26.0830631  23.3053131  60.1706963  25.3841076  24.1391945  60.1058540
  26.3862839  22.9977551  59.1699066  25.3811512  22.1756725  60.8426514
  24.6534290  22.6976223  61.4640121  24.6668129  21.6156082  60.2392006
  26.2800331  21.1722889  61.6029358  27.2304020  21.5036316  61.6872597
  25.9362240  20.3223343  62.5898361  24.6632710  19.9959068  62.7360535
  24.0194530  20.2655983  62.0060768  24.3158245  19.4155331  63.4860840
  26.8224220  19.8239594  63.3924484  26.5551090  19.0542889  63.9893188
  27.7282925  20.2689419  63.3538666  28.7481537  25.5768223  61.7938118
  28.3781223  26.4901886  62.5878220  29.8874302  24.9154053  61.9650345
  30.1634502  24.3074226  61.2072296  30.7717514  24.8736725  63.1093979
  30.2539501  24.7831497  64.0642776  31.7336178  23.6674519  62.8990250
  32.3889847  23.9241772  62.0667458  32.4046822  23.4809895  63.7374802
  30.9832630  22.3283157  62.6460266  30.6055164  22.3277073  61.6235733
  31.7061119  21.5385017  62.8504372  29.8413963  22.0236092  63.6595802
  28.7334099  21.5900249  63.2280617  30.0512199  22.1356449  64.8767776
  31.6169796  26.2002087  63.2523346  32.4645805  26.3947830  64.1065521
  31.2496166  27.1942291  62.3755913  30.4837284  27.0212517  61.7402992
  31.8488579  28.5253067  62.2614212  32.7038116  28.6431160  62.9272118
  32.3765488  28.7900696  60.7916603  31.5156231  29.0010128  60.1573029
  33.0205536  29.6665993  60.8627472  33.0576515  27.5895290  60.2003937
  32.3196716  26.7883434  60.1605148  33.5697441  27.8066330  58.7465706
  33.9882545  26.9249058  58.2612801  32.7064133  28.0850258  58.1421967
  34.2177353  28.6530495  58.5190163  34.3968811  27.1905804  60.9350967
  34.3120842  27.0396633  62.0112686  34.8966942  26.3495541  60.4545097
  35.0499916  28.0355148  60.7168465  30.8333054  29.5525703  62.6210785
  29.8941669  29.7347298  61.8382378  30.9882565  30.2874870  63.7095871
  31.8341007  30.3928680  64.2513885  29.9878674  31.3172855  64.1503830
  29.0203838  30.8252640  64.0504074  30.1062813  31.5945396  65.6439514
  30.2417622  30.7126942  66.2701263  30.9857178  32.2001801  65.8628006
  29.0375061  32.4094505  66.1442719  29.3100891  32.7996597  66.9779587
  29.9394398  32.5054474  63.2420082  30.9254494  33.0434761  62.8912163
  28.7133217  33.0561943  62.9208298  27.9322186  32.6151428  63.3849983
  28.5580311  34.1742325  61.9705124  27.5967560  34.6487579  62.1676865
  29.3202572  34.9456406  62.0802231  28.4832325  33.7884254  60.4657440
  28.2436638  34.6931953  59.6786690  28.4532967  32.5029793  60.1680984
  28.5940819  31.9721241  61.0157280  28.3646126  31.9219513  58.8218880
  28.4577198  32.8319893  58.2292061  29.5468025  30.9591827  58.5173721
  29.4825630  30.1475773  59.2421265  29.3907757  30.4851704  57.5483131
  30.9560261  31.5305672  58.5149918  31.6699600  31.9902725  59.6423149
  31.2897224  31.9838123  60.6531448  32.7845612  32.6072388  59.1335373
  33.3328781  33.2527504  59.6837769  32.8955650  32.5299225  57.7671623
  33.8535309  32.9664459  56.7982178  34.8112564  33.3742485  57.0860786
  33.7291145  32.5168648  55.4743538  34.5122490  32.7785339  54.7782021
  32.6766739  31.6858673  55.0812340  32.7420769  31.2609177  54.0905075
  31.6613770  31.4287739  55.9829445  30.7988415  30.8415070  55.7044601
  31.7894268  31.7856026  57.3567467  26.9604702  31.4290466  58.3953323
  26.8071594  30.8111019  57.3786964  26.0229015  31.6509476  59.2147484
  26.3294964  31.9526272  60.1285820  24.5667877  31.1909065  59.1473274
  24.4997520  30.1368713  59.4167976  23.7212067  31.9616203  60.1621094
  23.9287224  31.5001831  61.1275673  24.0812740  32.9903297  60.1476707
  22.2032242  31.9904213  60.1065826  21.9234428  32.6955681  60.8892632
  21.9139690  32.4194832  59.1472397  21.5019894  30.5953445  60.2635155
  22.0949879  29.5560837  60.4309845  20.2210484  30.5681114  60.3640099
  19.6774979  31.4193611  60.3587990  19.8225422  29.6417847  60.3073425
  23.9071980  31.1911030  57.7450562  23.2701988  30.1891422  57.3547935
  24.0355644  32.2860756  57.0382843  24.7701912  32.9034653  57.3533440
  23.3091831  32.4922295  55.8377075  22.4251251  31.8772106  55.6694984
  22.8758316  33.9583969  55.7054749  23.7833672  34.5460930  55.5672989
  22.3070698  34.1629219  54.7984047  22.1912785  34.5193481  56.9281006
  20.8825951  34.1732254  57.2990952  20.2823086  33.4797935  56.7288208
  20.3126793  34.6887360  58.5158310  19.2922611  34.4689751  58.7930527
  21.0411320  35.5286369  59.3251038  20.5449581  36.0919304  60.4381256
  20.9085674  36.9636612  60.6098061  22.3606968  35.8764305  59.0273972
  22.9692516  36.4335670  59.7243004  22.8858700  35.4247360  57.8204079
  23.9107552  35.7054214  57.6274719  24.0933437  32.0584793  54.5782051
  23.6383266  32.4393082  53.4745674  25.3070240  31.5299301  54.6904869
  25.6319637  31.1893768  55.5840950  26.2083664  31.3057899  53.5888176
  26.1228924  32.1878891  52.9542351  27.6795807  31.1413422  53.9988480
  27.6723614  30.4543476  54.8450699  28.5872250  30.4145412  52.9385567
  28.2148037  29.3923836  52.8707390  28.4310951  30.9943752  52.0288773
  29.6102467  30.5431042  53.2921028  28.2542992  32.4677200  54.4477615
  27.9813461  33.1909676  53.6793098  27.7126026  32.7426567  55.3527908
  29.2718525  32.3588753  54.8230476  25.7360554  30.0433178  52.9076805
  25.7267094  29.0375175  53.5686417  25.3776646  30.0697441  51.5769386
  25.4457016  31.2878113  50.6965179  26.4345074  31.5870609  50.3489342
  24.9204483  32.1137772  51.1761017  24.4746990  30.9408817  49.5468216
  24.8374519  31.3504314  48.6040688  23.4654903  31.2246723  49.8452492
  24.4340763  29.3471832  49.4868431  25.1304245  29.0621662  48.6981964
  23.4621868  28.9222279  49.2359543  24.9161396  28.9035816  50.8941460
  24.1540794  28.3836803  51.4747200  26.0051003  27.8297920  50.7479134
  27.1896954  28.0762959  50.5066223  25.6771584  26.5997181  51.1015701
  24.7357807  26.5148735  51.4575348  26.4716244  25.3987026  51.0503654
  27.3738384  25.6312180  50.4846306  26.8309078  24.9745655  52.4734497
  26.0001659  24.5200977  53.0132904  27.9794426  23.9757557  52.5090561
  28.8357010  24.3961658  51.9816360  28.2475643  23.7483063  53.5407906
  27.7602158  23.0489979  51.9788132  27.4243221  26.1346684  53.3149490
  26.6004505  26.7887535  53.6004448  27.7872887  25.8439808  54.3007774
  28.1064625  26.6538200  52.6416969  25.7315884  24.2929955  50.3496361
  24.6035442  23.9962444  50.6633759  26.5298424  23.5757694  49.5564384
  27.4885120  23.8913250  49.5180130  26.2059841  22.3756199  48.6842003
  25.2468491  21.9858341  49.0251236  26.0463886  22.7786961  47.2091751
  26.0651188  21.8293705  46.6738853  24.7900066  23.4723263  47.0077782
  24.9387436  24.4083519  47.5461426  24.5790176  23.8046455  45.9913406
  23.9710846  22.9046535  47.4496002  27.1312809  23.5361633  46.7740974
  27.3187847  24.1336422  47.5017395  27.2905407  21.2967434  48.7857323
  28.5283432  21.6202621  48.9273643  26.9592419  19.9987564  48.7300949
  25.9877167  19.7227802  48.7215652  27.8077946  18.8781128  48.6967583
  28.7913017  19.3021374  48.4942322  27.7744961  18.1265907  50.0354156
  28.0708294  18.7507362  50.8784637  26.7316837  17.8963852  50.2537193
  28.8106709  16.5707226  49.8782730  27.9439850  15.9396143  49.0811195
  27.5264206  17.9938145  47.4722214  26.3850269  17.9159489  46.9650459
  28.5419693  17.4532223  46.8287277  29.4506416  17.5204258  47.2644997
  28.4239941  16.4446487  45.7481155  27.3896580  16.1055260  45.6911430
  28.6331692  17.0926437  44.4153328  28.3331699  16.4149914  43.6160278
  28.1156406  18.0493526  44.3448181  30.1203938  17.5451298  44.2582169
  30.3932190  18.2719288  45.0233498  30.7263908  16.6595211  44.4494362
  30.5987206  18.1197834  42.5854836  32.4134598  17.7930183  42.6873131
  32.8998680  18.1227283  41.7692680  32.9414177  18.3040161  43.4924469
  32.5650291  16.7143116  42.7262802  29.3688869  15.1985378  45.9200401
  30.4200954  15.2503843  46.6183701  29.0730171  14.1058731  45.2580490
  28.2383385  14.0915470  44.6895370  30.2266884  13.1303930  45.0104332
  30.7392979  12.9198437  45.9490509  29.6950550  11.7859478  44.4912491
  28.6835098  11.5990372  44.8517265  29.4714241  11.9983864  43.4458008
  30.6498699  10.5901861  44.7462349  30.5276165   9.7856474  44.0210648
  31.6920567  10.8990860  44.6654320  30.2043495   9.9952669  46.0649948
  29.1218090   9.4365816  46.2450256  30.9727993  10.2036104  47.0983620
  31.7460346  10.8524685  47.0637321  30.5337448   9.9306984  47.9660301
  31.1444798  13.6648741  43.9265137  30.6359100  14.2996826  43.0000038
  32.4694748  13.5406322  44.0833664  32.6578522  13.0003185  44.9156380
  33.5145760  13.8832426  43.1377258  33.1395149  14.6858549  42.5027008
  34.8341904  14.2572212  43.8888474  34.5803452  14.9980230  44.6470528
  35.0319710  13.3684616  44.4880981  36.1242447  14.8153439  43.1384888
  36.9594688  14.7749901  43.8376884  36.4720764  14.1588812  42.3408852
  36.1004333  16.3176842  42.7428741  37.1542740  16.7582970  42.1303024
  35.2450333  17.0365276  43.2394371  33.7991600  12.7523909  42.1676064
  33.7252464  11.6148558  42.6009216  34.0169449  12.9970751  40.8553734
  34.2579422  13.9478378  40.6143990  34.1214447  11.9978685  39.8471870
  33.1550522  11.4954729  39.8895111  34.2634354  12.6889448  38.4524422
  33.4634056  13.4263000  38.3863945  35.0978088  13.3897820  38.4797935
  34.4144974  11.8207512  37.1615486  35.1493645  11.0184603  37.2278824
  33.5414581  11.2603683  36.8270721  35.0208168  12.8169441  35.7766151
  36.0977097  11.5699234  35.0987244  36.3742142  11.8794498  34.0908318
  36.8689919  11.2559023  35.8020134  35.4627914  10.6983128  34.9397545
  35.1156158  10.8518448  40.0985451  36.3322296  10.9767818  40.2799683
  34.6163673   9.6402321  39.9045563  33.6178856   9.4916477  39.8720284
  35.4019089   8.4053078  40.0051079  35.9487419   8.5678787  40.9338951
  34.5266685   7.0668068  40.0344048  33.8952408   7.0976214  39.1464577
  35.1273766   6.1640015  39.9239922  33.6496773   6.8735480  41.3095245
  34.1631546   6.9729567  42.4405212  32.5012360   6.4065938  41.1713676
  36.4561729   8.2429333  38.8694191  36.0954018   8.3653650  37.6838112
  37.7028656   7.8736253  39.1830254  38.1026764   7.9354548  40.1084595
  38.8174553   7.6694651  38.1377945  38.4129562   7.3848004  37.1664810
  39.6801796   8.9189558  37.8479156  40.0333748   9.2804651  38.8136635
  40.8580208   8.8398399  36.9205627  40.5909691   8.4943819  35.9218445
  41.4255180   9.7620564  36.7957954  41.5432434   8.0651989  37.2648125
  38.7481766   9.9733248  37.3200607  39.2029076  10.9385176  37.0970840
  38.3629074   9.6780672  36.3441010  37.9695244  10.1486044  38.0624084
  39.7163544   6.5413570  38.6214523  39.9793053   6.3268890  39.8070374
  40.1309128   5.6686406  37.6730385  39.9648666   5.8939524  36.7025948
  40.8498001   4.4342909  38.0098343  40.2962189   3.8628459  38.7548866
  41.1366882   3.5561223  36.7560577  41.6479073   4.1940947  36.0351219
  41.9960289   2.3352096  37.1171074  43.0704193   2.4846916  37.2240982
  41.6151619   1.9302236  38.0546722  41.9905663   1.6267800  36.2887344
  39.9423065   3.1161771  36.1062393  39.9582291   3.6116259  35.2841225
  42.2483749   4.8644547  38.6410789  42.9444199   5.6602502  38.0445175
  42.4154015   4.5365224  39.9003792  41.6793404   3.9723203  40.3003616
  43.7113953   4.8613315  40.5051308  43.6611481   4.2806163  41.4261856
  44.5552216   4.5884743  39.8714027  43.8341599   6.2661858  41.0539513
  44.9388466   6.5834808  41.5495338  42.8025780   7.0517993  41.0955696
  41.9625778   6.7170200  40.6456528  42.7972603   8.3976107  41.6856461
  43.6634903   8.9461508  41.3157196  41.9722404   8.9916086  41.2924423
  42.7863808   8.4484434  43.2430344  42.5629807   7.4754772  43.9029503
  43.0987282   9.6078033  43.8214798  43.3332901  10.4457750  43.3087578
  43.2848816   9.7916632  45.2356796  44.0801353   9.1170425  45.5527916
  43.7411804  11.2187805  45.5628395  44.3696747  11.5537663  44.7376862
  42.8650398  11.8615856  45.4775391  44.3365631  11.2639503  46.9805641
  43.8167229  10.5406542  47.6088295  45.7598686  10.7576103  46.8909340
  46.4593506  11.4851866  46.4792862  46.0904198  10.6344585  47.9222794
  45.7618370   9.7410631  46.4975815  44.3886337  12.6577168  47.6385651
  43.4660530  13.2330427  47.5614433  44.7333565  12.4511042  48.6517639
  45.1459885  13.2607136  47.1376495  42.0194397   9.3452415  46.0519066
  40.9382362   9.8826666  45.9510918  42.2314949   8.2008562  46.7884369
  43.1513405   7.7886171  46.7248459  41.1708031   7.6536179  47.7099419
  40.2642670   7.5289941  47.1176872  41.5171547   6.1720324  48.1415825
  42.4935570   6.1559005  48.6258163  40.7975922   5.8305197  48.8856926
  41.4565086   5.2721038  46.8613243  40.4050903   4.9851756  46.8441849
  41.8435440   5.7354441  45.9537888  42.1547890   3.9759014  47.1857262
  43.2225151   4.1456809  47.3244095  41.8277893   3.6687899  48.1791344
  41.8556061   2.8174560  46.2020721  42.2534065   1.9011792  46.6383018
  40.7778931   2.6726155  46.1268654  42.5881004   2.9523497  44.8751564
  42.3508224   2.2494066  44.1898346  42.4162712   3.8438828  44.4327240
  43.5537224   2.7771590  45.1138687  40.9345436   8.5135136  48.9646568
  41.8097534   9.3509064  49.3676796  39.7919197   8.3361397  49.6695404
  39.2519913   7.5210452  49.4161720  39.4141273   9.0522060  50.9207687
  38.3769608   8.7551012  51.0760689  40.2202606   8.4563856  52.0439453
  41.2504616   8.7565918  51.8524628  39.9043961   9.0064983  52.9303474
  40.0262909   6.9487600  52.3227119  38.9706497   6.6779561  52.3423729
  40.4667053   6.2876344  51.5763550  40.5252609   6.5107732  53.7105179
  41.5245247   6.8832183  53.9360390  39.7629356   6.8962717  54.3875427
  40.5034180   5.0227618  53.9380074  39.4818573   4.7261662  53.7002182
  41.2020607   4.5062156  53.2798424  40.8007164   4.6175189  55.3123055
  41.7322998   4.8890252  55.5925446  40.2879562   5.1568599  55.9951630
  40.5747299   3.6355412  55.3812370  39.3971939  10.5590391  50.9768906
  39.6426430  11.1622677  52.0423164  39.3416939  11.1845255  49.8019943
  39.0013466  10.6745949  48.9993515  39.5448685  12.5932817  49.5528526
  40.2733994  12.9507713  50.2805557  40.1831360  12.8169928  48.1842613
  40.9794350  12.0802765  48.0781517  39.4008179  12.5944748  47.4586105
  40.7558594  14.5733595  47.9899330  40.8380623  14.5831509  46.6564941
  38.3128510  13.4995813  49.8452721  37.1779404  13.1579447  49.5016098
  38.6393585  14.5922861  50.5515327  39.6241570  14.7471142  50.7136955
  37.7303505  15.6921282  50.8530922  36.7573204  15.3376770  50.5129776
  37.6110115  15.9451208  52.3403625  38.6462135  16.1713753  52.5958481
  36.6983948  17.1095028  52.8271217  35.6990547  16.8830738  52.4554291
  36.7160835  17.1899986  53.9140015  37.1381340  18.0186977  52.4171333
  37.1261406  14.7223673  53.1292839  36.4462395  14.9979506  53.9354401
  36.5453300  14.0858374  52.4617538  38.2388268  13.7993813  53.6241608
  38.6883736  13.3950930  52.7172089  39.0569153  14.3134851  54.1286736
  37.7276688  13.0188131  54.1876602  38.1290321  17.0160046  50.2177963
  39.2528000  17.4226704  50.3374100  37.2478333  17.7557678  49.5345573
  36.2884636  17.4655781  49.4100533  37.6128540  18.9170494  48.7744255
  38.5651894  19.3440704  49.0887642  37.5405388  18.5567493  47.2613487
  36.5361252  18.2116623  47.0160484  37.7334709  19.4886990  46.7299881
  38.5987015  17.6045990  46.7311630  39.5923462  18.0274887  46.8792648
  38.5422211  16.6722279  47.2929420  38.3108749  17.2345963  45.2608376
  37.3701744  16.6841545  45.2747879  38.0211792  18.2115288  44.8738213
  39.4042206  16.5164909  44.5484085  39.9840126  17.1486130  44.0151520
  39.7523613  15.2256660  44.4993744  39.0848007  14.4038191  45.2438126
  38.3528214  14.7952213  45.8192444  39.2959023  13.4168625  45.2057076
  40.7249222  14.8056936  43.8176308  41.3258896  15.4243097  43.2920303
  40.7040787  13.8458252  43.5040588  36.6318741  20.0313377  49.2106476
  35.5549545  19.7018089  49.7858925  36.9645042  21.2639256  48.8279953
  37.7039757  21.3512878  48.1456108  36.2796516  22.5414314  49.0785408
  35.2266121  22.2922859  49.2094650  36.8361320  23.3639374  50.2679482
  37.9212112  23.2778664  50.3253479  36.5315933  24.8849621  50.2846909
  35.4576073  25.0218716  50.1585770  36.8761368  25.3300018  51.2181396
  37.0072403  25.3267288  49.4090729  36.2142296  22.7293053  51.5369530
  36.3770485  21.6530304  51.4801865  36.5684700  23.3366222  52.3698921
  35.1401863  22.8953800  51.4535789  36.4150200  23.3098373  47.7748299
  37.4333687  23.2645168  47.0541649  35.4160843  24.1502457  47.4690819
  34.5795441  24.0253124  48.0210724  35.6099815  25.2781906  46.5522919
  36.6373863  25.6414833  46.5758629  35.3379135  24.7760754  45.1086082
  36.0113297  23.9348545  44.9444084  34.3127174  24.4117756  45.1746483
  35.3313713  25.7984219  43.9779892  34.3059921  26.0897751  43.7503853
  35.8708611  26.7129498  44.2243347  36.1983986  25.2741947  42.4251633
  34.9789276  24.2339592  41.5660858  34.2949715  24.9481964  41.1076393
  35.5167923  23.6061745  40.8556747  34.5144348  23.5466080  42.2731247
  34.6787949  26.4270782  46.9259682  33.4362526  26.3009968  46.8110695
  35.2609444  27.6007767  47.2263985  36.2605362  27.6988468  47.1200981
  34.5509720  28.7408257  47.7477188  33.5329170  28.4949245  48.0497055
  35.1915092  29.0750046  49.0839615  35.1881523  28.1706200  49.6923866
  36.2350578  29.3769398  48.9948158  34.3536911  30.1025829  49.8952560
  34.2901955  30.9586411  49.2235146  33.4059677  29.6489964  50.1854095
  35.2339478  30.5721169  51.4841270  36.7629814  31.2153034  50.7303352
  36.6163445  31.7031384  49.7666893  37.3965187  31.7254906  51.4558907
  37.4566689  30.3800888  50.6337776  34.5108185  29.9170361  46.7834892
  35.5801506  30.3757286  46.4618683  33.3470764  30.3773880  46.3578529
  32.5530052  30.0201340  46.8696327  33.2143898  31.5668087  45.5201340
  34.2045593  31.7547798  45.1050110  32.2272186  31.3351498  44.3406067
  31.2053146  31.3681660  44.7184029  32.4813232  32.3685760  43.3004875
  33.5012245  32.3679352  42.9159050  31.7483482  32.1662865  42.5195122
  32.1268997  33.3381119  43.6504669  32.3732758  30.0233765  43.7733421
  33.1212006  29.9430351  43.1768913  32.9274597  32.7942505  46.3342247
  31.9120464  32.9012947  46.9886284  33.7777748  33.8329315  46.2709618
  34.5737267  33.7596703  45.6535492  33.8272057  35.1000710  47.0343208
  32.9213219  35.2568283  47.6198959  34.9459534  35.0927200  48.0893784
  34.8866158  36.0127792  48.6708260  34.8007545  33.9388809  49.0442886
  33.7901077  34.0160561  49.4452133  35.0131645  33.0207405  48.4965668
  35.4589462  34.0461235  49.9064827  36.4113235  35.0688553  47.5572205
  36.6764374  35.9339981  46.9494858  37.1118660  35.1123428  48.3911552
  36.6279488  34.2121887  46.9190178  34.0132256  36.3593254  46.1829224
  34.4933014  36.2912941  45.0927925  33.7434120  37.5369263  46.7581177
  33.0591507  37.5246201  47.5009041  34.2364082  38.8477783  46.1667480
  34.3960609  38.5640869  45.1264915  33.1571960  39.9534760  46.1119232
  33.4496880  40.6272926  45.3066177  32.1904755  39.6191673  45.7353745
  32.8078232  40.7175713  47.3849716  32.2469482  40.1187325  48.1025429
  33.7537079  40.8597221  47.9076500  32.2115898  42.1501770  47.0830383
  32.7152290  42.8507957  46.2221603  31.1825390  42.5620270  47.7849121
  30.8591099  41.9188309  48.4932899  30.7222061  43.4523201  47.6601295
  35.6131096  39.3113060  46.7235107  35.8836212  39.2281189  47.9230270
  36.6157799  39.6330872  45.8598366  36.3105431  39.6503334  44.8972168
  37.9484444  40.0103836  46.2969284  37.9020615  40.7694244  47.0778313
  38.6592331  38.8281479  46.8943863  38.2236748  38.4420624  47.8159752
  38.8110085  37.7230797  45.8607635  39.4476929  36.8994865  46.1839218
  37.8864746  37.2000885  45.6161842  39.3309174  38.0432816  44.9578438
  39.9536209  39.1525269  47.2764282  39.9181061  39.7980728  47.9860840
  38.6832352  40.7540169  45.1879730  38.7607918  40.2694511  44.0449486
  39.4204483  41.8131332  45.6132698  39.2155685  42.1423836  46.5458565
  40.2806320  42.6392593  44.7324753  39.8211479  42.5966606  43.7449722
  40.2067909  44.1305923  45.1538315  40.5380630  44.8265228  44.3830910
  39.1642380  44.4230309  45.2790031  40.8610077  44.5093918  46.4980469
  41.5207596  43.6971512  47.1491585  40.7137375  45.7105293  46.8220901
  41.6868286  42.0944252  44.5690155  42.4354858  42.4993820  43.7079582
  41.9454155  40.9546394  45.2227097  41.2495079  40.5594482  45.8388634
  43.2308388  40.2945175  45.1362305  44.0528564  40.9997597  45.2588425
  43.3643150  39.1327972  46.2609901  42.9126854  39.4641533  47.1960487
  42.6068611  37.8277359  45.8939705  42.6410332  37.1387405  46.7379036
  41.6222343  38.2267303  45.6502342  43.1437721  37.4443398  45.0263062
  44.9026604  38.8455276  46.4430313  45.3433342  39.7021675  46.9530067
  44.9816818  37.9512825  47.0612488  45.3080978  38.6447525  45.4513588
  43.3717117  39.7320213  43.7363892  42.3879585  39.2610359  43.2241325
  44.5369186  39.7966728  43.0400505  45.7133789  40.5546265  43.3640785
  46.2192459  39.9661942  44.1295509  45.4887886  41.5257988  43.8050842
  46.4698410  40.6865196  42.0604706  47.5330086  40.7996216  42.2725716
  46.1453896  41.5040131  41.4166260  46.1204643  39.4630470  41.2301598
  46.7835159  38.6350708  41.4809990  46.1307755  39.5520935  40.1438522
  44.6772194  39.1564941  41.7194977  44.0751648  39.7495422  41.0310822
  44.4767761  37.6176262  41.7692833  44.7966232  36.9936790  42.7729988
  43.9529762  37.0004120  40.6867867  43.6312447  37.6552620  39.9883881
  43.6754494  35.6320648  40.5148163  42.8581734  35.3763504  41.1891823
  43.3100128  35.4431038  38.9875488  42.6372643  36.2621613  38.7332840
  44.2292175  35.4577942  38.4019356  42.5516815  34.1692467  38.7905083
  43.2177467  33.3380623  39.0219841  41.7710876  34.2744446  39.5439720
  42.1553192  34.0574341  37.2887726  42.9970894  34.2173691  36.4192963
  40.9413490  33.6303406  37.0244370  40.2938881  33.2694092  37.7104530
  40.6804428  33.4854965  36.0595284  44.8536491  34.6847000  40.7659531
  44.6022682  33.5509872  41.1781120  46.0800896  35.1123314  40.5739288
  46.0348053  36.0136147  40.1203499  47.2964973  34.4118614  40.7844315
  47.0004349  33.3802757  40.5939713  48.2466087  34.8262444  39.6468010
  49.0624504  34.1052971  39.5944366  47.6345329  34.7071571  38.7527733
  48.7830276  36.2372475  39.6829834  47.9268723  37.1765442  39.6159973
  49.9885750  36.4663849  39.6509552  47.9560661  34.4205017  42.2370148
  48.8108902  33.6262398  42.5310860  47.5145149  35.4125214  43.0163155
  46.7615509  35.9722939  42.6424141  47.9378738  35.6473808  44.4019508
  48.9080276  35.2144394  44.6457939  48.1109161  37.2045555  44.4250183
  47.1610870  37.6686745  44.1594582  48.4571381  37.5366783  45.4037552
  49.2673759  37.7098427  43.5174561  50.1751900  37.1068077  43.4994965
  48.8334885  37.6433716  42.5197411  49.6921082  39.1642036  43.7890167
  49.1764641  39.7600365  44.7243652  50.5217247  39.8573875  43.0704002
  51.1495972  39.4039268  42.4221306  50.7257843  40.8276863  43.2627068
  46.8842697  35.0393295  45.3708458  47.1584854  35.1037979  46.5364914
  45.7854538  34.3417969  44.8900299  45.4334946  34.4500542  43.9495506
  44.8474693  33.6491318  45.8162460  44.7354279  34.3045387  46.6799545
  43.4745827  33.3603668  45.0802612  43.8323936  33.0098915  44.1121483
  42.7219429  32.1922417  45.6306305  42.3489304  32.4327621  46.6261787
  41.9224091  32.0525131  44.9030876  43.3909378  31.3317013  45.6254120
  42.6452179  34.6713448  44.8300858  42.2582359  35.2245331  45.6858482
  43.1968613  35.2692833  44.1046486  41.4167938  34.4716377  43.9890060
  41.6583214  34.0762672  43.0023766  40.6911469  33.8387451  44.4998741
  40.9584312  35.4458466  43.8189430  45.5931168  32.3964157  46.3900566
  46.1669884  31.6912651  45.5894508  45.5640450  32.2154236  47.7531166
  45.0561676  32.8265877  48.3765259  46.1131058  31.1268730  48.5300064
  46.9687309  30.8040123  47.9369049  46.5995293  31.7267284  49.8932610
  45.7299232  32.1559486  50.3909111  46.8103371  30.9879017  50.6664352
  47.7305374  32.7439232  49.7230301  48.5745316  32.2660103  49.2256699
  47.4028435  33.5749626  49.0984573  48.1705551  33.2320290  51.1267014
  47.3575249  33.7650948  51.6195755  48.5263100  32.3475838  51.6551857
  49.3634186  34.1354942  50.9760513  49.5440636  34.4340019  50.0282288
  50.3358841  34.3999176  51.8622437  50.2674065  34.1732559  53.1542625
  51.1189003  34.3468704  53.6689682  49.5582237  33.5711250  53.5474548
  51.4296112  34.9097977  51.3841782  52.1389999  35.2248917  52.0303917
  51.4915962  34.9933662  50.3795547  45.1177254  30.0261726  48.6282730
  44.2974396  29.9557743  49.5899696  45.2708359  29.0708179  47.7292137
  45.8835220  29.2188377  46.9400368  44.5601654  27.7325764  47.8355370
  43.5657310  27.9111347  48.2445869  44.4953804  27.0375481  46.4188347
  45.5247993  26.8133183  46.1393318  43.9389763  26.1092415  46.5483131
  43.9225616  27.9598923  45.3740883  42.6683578  28.4633884  45.5034752
  42.4808960  29.2019958  44.4123764  41.6097908  29.8349495  44.3290215
  43.4638290  29.0669651  43.5161819  43.4218941  29.5906887  42.6535950
  44.4150543  28.2529373  44.0937119  45.3283577  27.8954182  43.6415405
  45.3902016  26.9082680  48.8890114  46.6493111  26.9116497  49.0870857
  44.6429520  26.0890923  49.5809441  43.6699333  25.9892216  49.3292236
  45.0820656  25.5198269  50.9584351  46.1419563  25.7730007  50.9332466
  44.2796898  26.1184731  52.0480652  43.2089806  26.0033550  51.8794594
  44.5472069  25.5905361  53.4684181  44.3130417  24.5264549  53.4367561
  45.5288124  25.6749840  53.9346962  44.0007401  26.1540909  54.2246437
  44.4737549  27.6255817  52.1965714  44.1379929  27.9055309  53.1950645
  45.5369186  27.8423214  52.0926285  43.9025307  28.2193489  51.4829559
  44.8104858  23.9762573  50.9198723  43.7037315  23.5591259  50.8286858
  45.9094658  23.2203693  50.8747787  46.7783127  23.7037277  50.6970978
  45.8113594  21.7607002  50.7816200  44.7787628  21.4134293  50.7462311
  46.3987923  21.2937126  49.4214821  47.3761292  21.7348309  49.2257156
  46.5736046  20.2180157  49.4010277  45.5737991  21.4398518  48.1500740
  45.1286697  22.6893196  47.7500954  45.3330612  23.6015816  48.2908440
  44.5433159  22.8347664  46.4898834  44.2868576  23.8160000  46.1186562
  44.3882446  21.7099342  45.6823845  43.7644844  21.8183784  44.4679985
  43.5719452  20.9330482  44.1506348  44.7281265  20.4471703  46.1616898
  44.6229858  19.5880756  45.5157051  45.3745155  20.3245430  47.3670845
  45.7205963  19.3482456  47.6728172  46.4296722  21.1734982  52.1100731
  47.3090897  21.8065872  52.6363258  45.8425179  20.1567745  52.7455521
  45.0655441  19.6418190  52.3566704  46.1972389  19.6793804  54.0713463
  47.2052917  19.9880657  54.3481979  45.1436272  20.2650452  55.1192513
  44.1863785  19.9595909  54.6967888  45.3441391  19.9223995  56.1343880
  45.2754974  21.8098850  55.2515488  45.1325569  22.1639462  54.2306137
  44.2097244  22.3856773  56.1823044  44.4431343  22.3920479  57.2470016
  44.0131874  23.4379921  55.9771042  43.2745171  21.8276882  56.1360512
  46.6134453  22.2032757  55.8709831  46.8248291  21.6909428  56.8095627
  47.4699211  22.0526276  55.2138214  46.4866982  23.2694416  56.0589447
  46.1631050  18.0863495  54.1064453  45.6176567  17.4642982  53.2591858
  46.7855186  17.4568367  55.1144905  47.2049294  18.0164948  55.8431702
  46.8035431  15.9379930  55.2125778  47.4112053  15.6139507  56.0574722
  45.3614769  15.3815250  55.5065956  44.7481537  15.5636129  54.6241112
  45.3932495  14.3073702  55.6890259  44.6673050  16.0057926  56.7145538
  44.5524063  17.0896339  56.7281456  43.6949234  15.5163641  56.7696800
  45.4576149  15.8170490  57.9831200  45.7844620  16.8515987  58.5469437
  45.6449242  14.6954927  58.5427399  47.5378647  15.3902512  53.9681511
  48.3257370  16.0631943  53.2947006  47.3390846  14.1310320  53.6580582
  46.8456955  13.4835701  54.2559395  48.0171661  13.5358839  52.4557114
  49.0879669  13.7290916  52.5202293  47.7150536  12.0415382  52.3579750
  46.6518440  11.8205423  52.4520569  48.0259056  11.6308308  51.3973579
  48.4970207  11.3468733  53.5118752  49.5475082  11.2858849  53.2275162
  48.3996544  11.8689146  54.4637642  48.1169472   9.8911772  53.6488190
  47.0971184   9.9354801  54.0310249  48.0608902   9.4081469  52.6732979
  49.1283417   9.2192507  54.6160622  50.1441307   9.1490164  54.2270432
  49.2198830   9.9373388  55.4309692  48.5817070   8.0121260  55.2084846
  47.6897163   8.2103367  55.6387978  48.3956375   7.2907104  54.5265465
  49.1353188   7.6069856  55.9497528  47.5865097  14.1999788  51.1869965
  48.3604050  14.0658998  50.2231598  46.4120522  14.8298512  51.0976410
  45.7483215  14.7442389  51.8540993  45.8332825  15.4374743  49.9237709
  45.8411827  14.6546907  49.1652946  44.3520050  15.8202906  50.1711845
  44.3532295  16.6745682  50.8481674  43.8803329  16.0015621  49.2053871
  43.7813225  15.0609055  50.7057457  46.6225700  16.6368904  49.4046478
  46.4074821  17.0568047  48.2919540  47.6408653  17.0835323  50.0816574
  47.7144928  16.7227669  51.0221519  48.7487640  17.9490795  49.6054535
  48.3276825  18.9187813  49.3399963  49.8339043  18.1006279  50.7320671
  50.0980568  17.1103039  51.1029892  51.1426201  18.6574287  50.3058319
  51.6319923  18.0544147  49.5409813  51.0198212  19.6635284  49.9048538
  51.8326569  18.7375431  51.1457901  49.2269859  19.0054722  51.7692146
  49.9937057  19.3485241  52.4638786  48.7048454  19.8709202  51.3612099
  48.4540710  18.4785652  52.3287392  49.3184738  17.5037861  48.2581635
  49.6658440  18.2562313  47.3600159  49.2769241  16.1513405  48.0214806
  49.0141258  15.6534348  48.8600044  49.7734871  15.4381533  46.8401756
  50.7460289  15.9061165  46.6876221  49.9851074  13.9392271  47.1232834
  50.1296082  13.8065691  48.1954880  48.6887016  13.1259041  46.9319687
  48.0247841  13.5364265  47.6927452  48.3027382  13.2074299  45.9158554
  48.8936501  12.0860252  47.1864281  51.1358452  13.1894827  46.4425163
  52.0413857  13.7894106  46.3520927  51.2929573  12.2920370  47.0408554
  50.6621056  13.0166998  45.4761734  48.9099045  15.7434940  45.6243134
  49.2720795  15.4262486  44.4587669  47.7736816  16.4335022  45.7858620
  47.3586769  16.6830730  46.6721954  46.9794731  16.8580494  44.6230125
  47.0195808  16.0234623  43.9230423  45.5225945  17.0736942  45.0994263
  45.6478348  17.6470070  46.0179749  44.9948921  17.6515923  44.3407021
  44.6571274  15.8603773  45.4938507  45.2559357  15.3149414  46.2232552
  43.2964745  16.2385998  46.0362091  42.7109871  16.5823231  45.1834755
  42.7157478  15.4253521  46.4715118  43.4698257  16.9897766  46.8067741
  44.4633560  14.8607063  44.3455124  45.3657684  14.5644159  43.8107605
  44.0980186  13.9253683  44.7695045  43.7896652  15.2843008  43.6006584
  47.4860611  18.0957737  43.9896355  46.9553947  18.5328445  42.9504051
  48.5372467  18.7565250  44.5909958  48.8890457  18.3252583  45.4338150
  49.2337608  19.9641113  44.1355743  49.2240334  20.0776520  43.0515480
  48.5197105  21.1518974  44.7496834  48.1963425  20.9098206  45.7620735
  49.1633186  22.0297642  44.8064156  47.2593498  21.5954247  44.0336380
  46.5802307  20.7542400  44.1725845  46.8639526  22.4837799  44.5261726
  47.4030266  21.8921089  42.5186996  47.5745087  20.9074211  42.0838623
  46.4384766  22.2845230  42.1965828  48.4525986  22.8508072  42.1565132
  49.3433990  22.5174847  41.8167076  48.4909935  24.1122875  42.0767365
  47.5180817  24.9629707  42.3993645  47.6635704  25.9263649  42.1332779
  46.6493111  24.6425953  42.8027229  49.6356964  24.5983906  41.7440643
  49.7474861  25.5391502  41.3939590  50.4077606  23.9899788  41.5120010
  50.7249832  19.9701614  44.4315605  51.2583351  20.7827702  45.2224388
  51.6313515  19.0421371  43.9101372  51.3462753  17.8534069  43.1083488
  50.7796593  18.2253284  42.2546959  50.8824463  17.1046829  43.7505112
  52.6742096  17.3417149  42.5883255  52.9470329  17.8723564  41.6761360
  52.6345520  16.2741528  42.3718987  53.5410728  17.6227379  43.7970314
  54.6053772  17.6219521  43.5617485  53.2821960  16.9011459  44.5718765
  53.0654335  18.9941673  44.2827377  53.1689301  19.0103436  45.3676949
  53.9440308  20.1694221  43.7491035  55.0631485  20.3845482  44.2597961
  53.4601021  20.9540462  42.8168106  52.5829239  20.7953033  42.3419876
  54.1290359  22.1834469  42.5338860  55.2052574  22.0114765  42.5504189
  53.7157478  22.5448952  41.0728989  54.3959961  23.3555279  40.8116837
  53.9679184  21.7479324  40.3733559  52.2035179  22.9720078  40.8883934
  51.9806252  23.7250519  39.9289894  51.3266907  22.4753933  41.5723610
  53.7896538  23.3581390  43.4942360  54.5841103  24.2811871  43.6798248
  52.5913696  23.3404751  44.1062164  51.9867363  22.5920658  43.7989616
  52.2464371  24.3434334  45.0912704  52.4609680  25.2917175  44.5984879
  50.7602997  24.2371941  45.2348747  50.2800789  24.2174549  44.2565613
  50.6870804  23.3634605  45.8824310  49.9487381  25.3021488  45.9542999
  50.4453621  25.6287098  46.8679886  49.9280624  26.4636097  44.9574356
  49.5747490  26.2797909  43.9428024  49.2843666  27.1948814  45.4463081
  50.9452019  26.8547325  44.9342346  48.5401192  24.9011459  46.1374474
  48.1460190  25.4642982  46.9834099  47.9518929  24.9417953  45.2206955
  48.4384956  23.8571339  46.4337730  52.9011879  24.2790260  46.4636650
  53.0836906  25.3544655  47.0251656  53.5585976  23.1841717  46.8782921
  53.5388374  22.3416080  46.3216972  53.9825439  23.1003590  48.2899094
  53.3801956  23.6880112  48.9826851  53.9913292  21.6419773  48.7464371
  52.9947853  21.2047558  48.8083992  54.4774704  20.9741745  48.0352364
  54.5834084  21.5333748  49.9805412  54.0430336  22.1071415  50.5286179
  55.4733582  23.6095695  48.3313217  56.3499489  23.1443005  47.5450363
  55.7515450  24.5911102  49.2158203  55.0127716  25.0155296  49.7582054
  57.0720673  25.2195473  49.3535614  56.9588737  25.9935780  50.1126175
  58.1611137  24.3100014  49.9704628  58.2895660  23.4555244  49.3060303
  59.0510788  24.9038868  50.1786957  57.6536446  23.6319771  51.2562370
  56.7211609  23.1070919  51.0487061  58.6756439  22.6175251  51.6508522
  59.6807632  23.0365620  51.6982880  58.3873634  22.3148422  52.6575203
  58.6938171  21.7866917  50.9455261  57.5631180  24.6358929  52.4539452
  58.5700111  24.8730545  52.7974892  57.0862503  25.5727272  52.1657867
  56.9926529  24.0692883  53.1899033  57.4704933  26.0664139  48.0732613
  58.5937767  26.3634815  47.8803940  56.4679260  26.4409943  47.2413063
  55.5002823  26.2105885  47.4164658  56.7346840  27.1973610  45.9871254
  57.2770233  26.6096210  45.2465019  55.3918915  27.3534431  45.2608261
  54.7807388  26.4530716  45.1981735  54.5317497  28.5392075  45.7932587
  55.0383186  29.4798126  45.5770378  53.5401993  28.4447613  45.3505287
  54.3850327  28.4689617  46.8710556  55.5415421  27.6944160  43.8613319
  56.0802498  27.0441246  43.4046974  57.5530930  28.5439510  46.2940025
  57.2774277  29.2880020  47.2732697  58.5086212  28.8734379  45.3817329
  58.6578522  28.2535305  44.5984421  59.3124542  30.1199989  45.4630852
  59.7454796  30.0486279  46.4608307  60.4249001  30.1678467  44.3933411
  59.8861694  29.9396591  43.4736671  60.8845634  31.1541634  44.3301659
  61.5260811  29.1480808  44.6666183  62.1152420  29.6052456  45.4615936
  61.0275497  28.3181820  45.1674500  62.2740860  28.8862705  43.3900032
  61.5921669  28.3088951  42.7657166  62.6364441  29.8201122  42.9601974
  63.3533516  27.8428650  43.6406059  64.0446930  28.1249065  44.4347115
  62.8748016  26.9220695  43.9741173  64.1110992  27.6568871  42.4159241
  64.7655106  26.8876038  42.4227448  63.3948860  27.4601841  41.7314911
  64.5585861  28.5309772  42.1796417  58.5131149  31.4060688  45.3774529
  58.8844528  32.3760910  46.1262703  57.4813881  31.3907356  44.5390549
  57.3250313  30.5870152  43.9477119  56.6635323  32.5267868  44.1903191
  57.2059097  33.0908813  43.4315529  55.3835220  31.9671040  43.6315575
  55.6093750  31.2747669  42.8205338  54.8521156  31.4178734  44.4087677
  54.4223099  33.0394249  43.2039566  54.6106262  34.2236061  43.1680984
  53.2352867  32.6946106  42.8393440  53.0853500  31.6982212  42.9088287
  52.6130486  33.3724976  42.4229469  56.5052414  33.4940186  45.3515167
  55.8217697  33.2154579  46.3501358  57.0648956  34.6564751  45.2878571
  57.5264320  35.0036392  44.4592628  56.9763145  35.6981430  46.3420258
  57.0011253  35.2632751  47.3412132  58.0479088  36.7996368  46.2591324
  57.7316055  37.7037735  46.7793159  59.3404655  36.2272224  46.7404099
  59.2888069  35.8156281  47.7483902  59.6403313  35.4576683  46.0290947
  60.0704880  37.0165329  46.9197273  58.2393570  37.0522041  44.8815384
  57.5582581  37.6622124  44.5889702  55.7440643  36.5121574  46.3380241
  55.4990654  37.2476082  47.3192558  54.9464035  36.3446465  45.2760582
  55.2776222  35.8297729  44.4727554  53.7218399  37.1405106  45.1748924
  53.8820801  37.9995956  45.8263512  53.4564056  37.6738243  43.7672920
  53.5214729  36.8182220  43.0951233  52.4377174  38.0481834  43.8684158
  54.3933182  38.8097305  43.3213234  54.0795021  39.2079582  42.3564224
  54.1380119  39.6043777  44.0223579  55.8462410  38.4379349  43.2939949
  56.3371124  37.5696144  42.4639816  56.4717522  38.9002457  44.2239342
  52.4765511  36.4465065  45.8234444  51.5075455  37.1115990  46.0768929
  52.4851456  35.1056595  45.8949203  53.3438263  34.5995598  45.7317314
  51.4460373  34.3437233  46.5732117  50.4582901  34.6416130  46.2214661
  51.5697136  32.8773689  45.9973755  51.3179398  32.8589706  44.9370117
  52.5864830  32.4987755  46.1020050  50.7422218  31.7755337  46.7094574
  50.6002617  31.9955006  47.7675514  49.3581963  31.7715435  46.1276703
  48.6443787  31.0883465  46.5878868  48.9440575  32.7774544  46.1964607
  49.4540176  31.3139114  45.1430397  51.3342514  30.3521137  46.5001831
  50.8336906  29.6480885  47.1649323  51.3694801  30.0572624  45.4514122
  52.3726540  30.3182526  46.8298492  51.4126968  34.4310875  48.1054306
  50.4105415  34.9998932  48.5925217  52.3559074  34.0051880  48.8283730
  24.9764977  46.6260872  44.8998146  25.8874855  47.0590744  44.9520035
  24.3308086  47.2537651  44.4424210  24.5797882  46.6589851  45.8280602
  24.8853531  45.2448807  44.3596268  23.9066429  44.9075775  44.7008781
  24.8191166  45.3996239  42.8325310  24.0821514  46.1773071  42.6320610
  25.7120819  45.8631325  42.4131584  24.2703209  44.2694130  42.0114403
  23.2647743  43.9763756  42.3132858  24.0313778  44.5929527  40.9983635
  25.2867413  42.7510452  41.9116211  26.5776005  43.2164192  40.6989174
  27.3522987  43.7624664  41.2372246  27.0499611  42.2971458  40.3526344
  26.0644779  43.8632469  39.9872932  26.0422821  44.3076820  44.8378830
  27.2273960  44.7383499  44.8211403  25.7679749  43.0761719  45.1666412
  24.8415928  42.7989960  44.8749237  26.6736050  41.9553032  45.6310768
  27.6112633  41.9105530  45.0770950  27.0924244  42.1807365  47.0759010
  27.9115086  42.8978500  47.1301994  26.2393703  42.5362434  47.6538391
  27.6351299  40.9665947  47.7929840  28.1252213  41.2771339  48.7157364
  26.8262939  40.2814026  48.0467453  29.0346584  40.1344986  46.8348999
  29.4011173  38.6345100  47.8077316  29.4135380  38.8491821  48.8763084
  28.6941223  37.8221817  47.6392632  30.3968086  38.3331795  47.4823189
  26.0200844  40.6308517  45.2988701  24.8801575  40.3773460  45.7487679
  26.7105217  39.7835617  44.5725060  27.6113930  40.0972710  44.2406578
  26.2361927  38.5134048  44.0500221  25.3124466  38.7077789  43.5050354
  27.1642475  37.9635429  42.9372368  28.1557198  37.7728806  43.3480110
  26.5863152  36.6708641  42.3487663  26.6210976  35.8353462  43.0479050
  25.6533146  36.9005852  41.8341408  27.1251717  36.2274704  41.5114326
  27.4037418  38.9815903  41.8462868  26.4745388  39.0908661  41.2870560
  27.5918446  39.9764099  42.2500839  28.3900795  38.6380615  40.7808685
  27.9105263  38.0976486  39.9647293  28.5020828  39.5004883  40.1237679
  29.3748150  38.2494850  41.0404892  26.0424118  37.4554596  45.1858521
  26.7248993  37.4648857  46.1827545  25.0091686  36.6235352  44.9910202
  24.5709419  36.7698059  44.0928764  24.4413719  35.7117920  46.0506592
  25.2328129  35.5049248  46.7710266  23.2525730  36.3980980  46.7680855
  22.6232033  36.6873055  45.9264488  22.5695667  35.6568298  47.1829643
  23.6401424  37.5847549  47.6085968  24.0415516  38.3828812  46.9841270
  22.7246170  37.9334908  48.0864067  24.6256390  37.2694969  48.8035088
  24.1278248  36.5433350  49.4461327  25.4639835  36.6978683  48.4053726
  25.0954533  38.4212837  49.6116295  24.4412842  39.1903343  49.5847588
  26.2676468  38.5679588  50.1822357  27.1722336  37.6159897  50.3667564
  28.0877094  37.8118019  50.7457809  27.0959721  36.6401787  50.1175957
  26.7052002  39.7125816  50.6446609  26.1469345  40.5485954  50.5470810
  27.5602074  39.6969910  51.1820755  24.1150131  34.2974625  45.4539452
  23.7906628  34.2702179  44.3061714  24.1421242  33.2680817  46.2742805
  24.4368744  33.4204407  47.2282257  23.6169777  31.9561653  45.9475365
  23.6626015  31.8368168  44.8650513  24.2578411  31.1926231  46.3884392
  22.2016678  31.7100506  46.5847511  21.9164238  32.2486839  47.6556778
  21.3861351  30.8099995  46.0857849  21.6935081  30.3858528  45.2222328
  19.9603119  30.6717548  46.4647713  19.8467522  30.9853344  47.5024948
  18.9603844  31.4659061  45.5419617  19.0786648  31.0302048  44.5498543
  17.5019798  31.2785225  45.9318047  17.1468983  30.2949276  45.6243172
  17.4504642  31.5168686  46.9941788  16.8172474  32.0259743  45.5311089
  19.3216877  32.9828262  45.4361534  19.7137756  33.2056923  46.4284782
  20.1136589  33.2450943  44.7346573  18.2460842  33.9745445  44.9151268
  18.7782497  34.9180412  44.7938232  17.8119888  33.7258263  43.9467278
  17.4203014  34.1977768  45.5906639  19.6729946  29.1736755  46.3182907
  20.0493927  28.6080437  45.2536049  19.0344543  28.5081539  47.2039795
  18.7204971  29.0698929  47.9824295  18.7951393  27.0572777  47.2436333
  19.0838108  26.6860752  46.2602806  19.7668648  26.4812164  48.3594322
  19.6166306  27.0506878  49.2766190  19.4717560  25.4489288  48.5475616
  21.2472019  26.5919743  47.8937302  21.3131371  26.3841095  46.8257675
  21.4559288  27.6608162  47.8477631  22.3533382  25.8709068  48.5697479
  23.2623348  26.0946579  48.0113945  22.4656639  26.2020779  49.6021309
  21.9932060  24.4400368  48.5755539  22.1441517  23.8660984  47.7582932
  21.5813503  23.7763615  49.6193810  21.3676510  24.2589207  50.7931328
  21.8312511  25.0735283  51.1694221  21.0063820  23.5884953  51.4565468
  21.2145271  22.5445366  49.6144638  21.2129192  22.0427990  48.7379074
  20.8229694  22.1017532  50.4334412  17.3597546  26.6634617  47.6116371
  16.5182762  27.4363251  48.1203079  17.0972061  25.3900414  47.3274689
  17.7934036  24.8485184  46.8353615  15.8893423  24.6735725  47.7071571
  15.5060997  25.0195198  48.6671295  15.1882629  24.9308243  46.9131737
  16.0644417  23.1866169  47.7129555  16.9695339  22.6926136  47.0178871
  15.2696342  22.4203777  48.4687462  14.4855518  22.8537865  48.9350853
  15.2864389  20.9473591  48.4238472  15.8522682  20.6200027  47.5516205
  16.1291084  20.3645077  49.6033974  17.1971874  20.5039101  49.4364128
  15.6603136  20.8230152  50.4740868  16.0019836  19.2825394  49.5675926
  13.8258839  20.4285660  48.3534889  12.8657436  21.0551567  48.7706604
  13.6291761  19.2287025  47.7894402  14.3354340  18.8772717  47.1587296
  12.3527613  18.5019989  47.6157494  11.7152319  18.6957531  48.4783707
  11.6883087  19.0325279  46.3547440  11.6171474  20.1078205  46.1910896
  12.2470579  18.5193691  44.9437485  13.2268753  18.9795895  44.8162231
  12.3550177  17.4347477  44.9501572  11.5489435  18.9275684  44.2129211
  10.3806124  18.5192509  46.5227165   9.7408161  19.1893559  46.2712822
  12.6080408  17.0143242  47.6023674  13.7002058  16.5667477  47.3468590
  11.5535440  16.2448788  47.6879730  10.6414356  16.6784191  47.7021713
  11.5848341  14.7825556  47.5587997  12.4865685  14.4379292  47.0526314
  11.5728216  14.0768414  48.9531250  11.3318596  13.0227346  48.8156586
  12.8845987  14.0942440  49.7440224  13.1737595  15.0981760  50.0548515
  12.8388195  13.4883528  50.6489525  13.6069794  13.6739187  49.0443115
  10.4600668  14.6242466  49.6388359   9.7007980  14.0886841  49.3974152
  10.4708204  14.2011204  46.7409592   9.3461056  14.7167406  46.6302643
  10.7227535  13.0918722  46.1347160  11.5310469  12.5392008  46.3823357
   9.7769003  12.3664818  45.3485909   8.9141092  13.0317202  45.3146896
  10.2182350  12.2824755  43.8795052   9.3559504  11.9187317  43.3207054
  10.4847651  13.7021751  43.3322029   9.6046286  14.2890854  43.5948830
  11.3640900  14.1629829  43.7822495  10.5913353  13.6252985  42.2501526
  11.4437590  11.3881063  43.6556816  11.0532703  10.3850632  43.8275223
  11.7088890  11.3773289  42.5984726  12.3192978  11.6152039  44.2639236
   9.5265636  11.0192928  45.9621124  10.3967257  10.4011469  46.5261078
   8.3399906  10.4844246  45.6884155   7.7581062  10.8695078  44.9581947
   7.9384027   9.1634083  46.1808968   8.3200388   9.0293741  47.1930656
   6.4731827   9.0562630  46.2752190   6.0398889   9.3278446  45.3126183
   6.2117791   8.0109806  46.4400024   5.8425117  10.0183678  47.3007431
   5.8783951  10.9750652  46.7796478   4.7941713   9.7215557  47.3322945
   6.4760890  10.0173044  48.7098007   7.3913808  10.8610773  48.9443626
   5.9842181   9.2521410  49.6276360   8.5369787   7.9968677  45.3923454
   8.4339504   6.8479834  45.8212624   8.9807796   8.2318316  44.1800499
   8.8448086   9.1814718  43.8641472   9.3240690   7.2395906  43.1050110
   9.8165627   6.3373933  43.4677658   7.9525237   6.7171245  42.6299667
   8.0580463   6.0490851  41.7751617   7.5842786   6.0889392  43.4410629
   7.0627637   7.8337917  42.2682838   6.6081543   8.3358936  43.1222878
   7.5822430   8.5420494  41.6228256   5.9468312   7.1907282  41.5447426
   6.3553586   6.5860214  40.7350922   5.4006667   6.5001397  42.1873131
   4.9379148   8.1859827  41.1177063   4.5887852   8.9647007  41.6578979
   4.2837873   8.2237749  39.9640236   4.3407869   7.2273383  39.1297760
   4.7797990   6.3478403  39.3618355   3.9446642   7.3480773  38.2085762
   3.7350318   9.2878084  39.5053139   3.6125073  10.0994101  40.0938644
   3.3912218   9.3262434  38.5564079  10.1341658   7.7631245  41.9381447
  10.0375280   8.9353209  41.5965233  10.9526949   6.8330798  41.4095764
  10.8525171   5.8706093  41.6989098  11.9396372   7.0637498  40.2669640
  12.3465290   8.0294762  40.5668182  13.0677452   6.0729384  40.1891327
  13.4990664   5.9250731  41.1791801  12.7195301   5.1121783  39.8099289
  14.1978502   6.6180453  39.2773209  14.3485117   7.8756313  39.2020454
  14.9766836   5.8554568  38.6881981  11.2188759   7.1260920  38.9324303
  11.0523863   6.1495256  38.2139587  10.7010555   8.3253088  38.6665001
  10.6114855   9.0640583  39.3493805  10.0129805   8.6387711  37.3498344
  10.6421213   8.1742926  36.5905304   8.6073847   7.9854717  37.2974167
   8.6633177   6.9498758  36.9619827   7.8661447   7.9005008  38.6659164
   8.3207569   7.1786113  39.3443642   7.7612262   8.8708582  39.1511993
   6.9186192   7.4294019  38.4044571   7.9336691   8.6769133  36.3126945
   7.8816781   8.1268578  35.5276260  10.0399532  10.1068096  37.0434074
  10.0153780  10.9980059  37.9269600  10.1853876  10.3901243  35.7096710
  10.0679178   9.6292629  35.0559196   9.9996881  11.7138319  35.1038017
  10.6789465  12.4023170  35.6064911  10.2555904  11.7606783  33.5402145
  10.2607412  12.7963066  33.2002869  11.2229881  11.3356133  33.2727051
   9.1206255  11.1886902  32.7181969   8.1809883  11.6808128  32.9691887
   9.3038816  11.4317217  31.6715565   8.9851274   9.6443577  32.8355789
   8.1469393   9.1012268  32.0846024   9.7421455   8.9728346  33.5450668
   8.6358652  12.3797235  35.4822121   8.6060019  13.5919065  35.2958145
   7.5880289  11.6229477  35.7710686   7.8011627  10.6370468  35.7193680
   6.2671609  11.9940739  36.1724892   5.9584594  12.7498226  35.4502335
   5.3430343  10.7722855  35.9816513   5.6844559   9.9125595  36.5581970
   4.3222852  10.9823790  36.3010750   5.1928749  10.2945766  34.4931755
   6.1819253  10.2116890  34.0426102   4.7262044   9.3095875  34.5038681
   4.2043972  11.1280279  33.6692581   4.6087117  12.2428885  33.2524147
   3.0538659  10.6068439  33.4830399   6.2411394  12.6813126  37.5389519
   5.3802090  13.5074749  37.6740646   7.1806617  12.5096703  38.4427528
   7.9379935  11.8895884  38.1936607   7.3442745  13.1669874  39.7325020
   6.5037689  13.8166246  39.9766808   7.4651184  12.1150961  40.8960190
   8.3586931  11.4911394  40.9134140   7.4426374  12.6767492  41.8299026
   6.2411575  11.2271338  40.9609871   6.0993371  10.7335272  39.9995613
   6.4643421  10.3749104  41.6028633   4.9922566  11.8643456  41.5135078
   5.0801167  12.8756380  42.2048950   3.9024763  11.5313959  41.0561638
   8.6236849  14.0631275  39.6991577   8.4840899  15.2283478  40.0059166
   9.7701435  13.5046291  39.3147621   9.7068720  12.5699749  38.9372482
  11.0744400  14.2152996  39.2935791  11.3707600  14.3864021  40.3284798
  12.3036718  13.5207729  38.6729393  12.0654106  13.1013832  37.6954727
  13.6177206  14.4318123  38.4854584  14.1071987  14.6215715  39.4407158
  14.3668013  13.8329754  37.9674072  13.4247427  15.3355131  37.9073715
  12.6113119  12.3779669  39.6303444  12.9440489  12.6892462  40.6205444
  11.7079372  11.7879744  39.7850571  13.6692533  11.2778730  39.1825142
  14.7129555  11.5910454  39.2092896  13.5652933  10.3691397  39.7753868
  13.4049358  11.0577850  38.1482048  10.9191599  15.5960894  38.6641655
  11.1542282  16.5828209  39.3903503  10.5933208  15.7062178  37.3587761
  10.1512184  14.8985529  36.9436569  10.6332073  17.0083351  36.7735291
  11.6329975  17.3986301  36.9637642  10.5100164  16.9614468  35.2615433
   9.5262280  16.5215111  35.0980949  10.5487719  18.0048275  34.9485664
  11.5403614  16.0882912  34.5130730  11.7587051  15.0625982  34.8103600
  10.8333378  15.7536831  33.1821823  10.4317636  16.6682854  32.7458992
  11.5578413  15.3830996  32.4570160   9.9667587  15.0955267  33.2451973
  12.8255997  16.9293652  34.3823547  13.5575743  16.3336010  33.8370323
  12.6243811  17.8966026  33.9218559  13.2354403  17.1180859  35.3745842
   9.5932484  17.9063225  37.5375290   9.9185514  19.0001450  37.8822136
   8.3710413  17.4680309  37.6130981   8.1437597  16.5273285  37.3241005
   7.2697444  18.3354225  38.1728401   7.2797561  19.2056541  37.5165634
   5.9045835  17.7058544  38.2350922   5.7050924  17.6183586  37.1670799
   5.9330797  16.7307930  38.7214470   4.6842389  18.6127777  38.7606125
   4.8651366  19.6229324  38.3932381   3.7370729  18.3731232  38.2773476
   4.4306855  18.5369854  40.2611847   4.3467350  17.4725399  40.9127998
   4.2617531  19.6806660  40.9171448   4.1678352  20.4727764  40.2975960
   4.0536613  19.7049541  41.9051781   7.6802187  18.9131699  39.5635948
   7.5785666  20.0851631  39.9121361   8.3031330  18.1361809  40.4500923
   8.5977535  17.2307663  40.1131592   8.8028917  18.6280365  41.7534485
   8.1089487  19.3597164  42.1672096   8.9782343  17.3872490  42.6640549
   9.7045946  16.6971207  42.2348404   9.5923281  17.6204185  43.5338936
   7.7312708  16.5249233  43.1726074   7.3088250  15.9128275  42.3757515
   8.0026522  15.7829838  43.9235916   6.6202936  17.4300880  43.7076836
   6.9749427  18.0268307  44.5480537   6.2366419  18.1782265  43.0139923
   5.3043237  16.7426090  44.0688591   5.3049188  16.1667843  44.9943428
   4.5408463  17.5099335  44.1969872   4.8180017  15.8535767  42.9968910
   5.4151464  15.0612793  42.8077011   3.9092433  15.4648438  43.2046127
   4.7680650  16.3869267  42.1406555   9.9890747  19.5711098  41.6943398
   9.9877996  20.5964851  42.2503700  10.8261538  19.3397789  40.7054863
  10.6782951  18.5070152  40.1534538  11.9359884  20.2564087  40.3736229
  12.5094509  20.5230103  41.2614059  12.8560209  19.6760502  39.2744408
  12.4366732  19.7231331  38.2694397  14.1437254  20.4264317  39.3932838
  13.9438658  21.4945183  39.3075867  14.5793285  20.1915436  40.3644562
  14.8395157  20.1271229  38.6094551  13.3959656  18.3654327  39.5239410
  12.6849279  17.7222919  39.4749870  11.4347649  21.5980282  39.8179626
  11.8734236  22.6928387  40.1801796  10.3791094  21.5319080  39.0069504
  10.1684990  20.6649303  38.5335655   9.7352314  22.6932964  38.4073257
  10.5934114  23.2996140  38.1174774   8.9530935  22.3212242  37.1281624
   9.4718361  21.5516529  36.5565224   8.0013704  21.9002380  37.4523392
   8.7784414  23.6024723  36.2803040   8.2980804  24.3964195  36.8521461
   9.7487936  23.9085045  35.8893280   7.9015388  23.3097134  35.0105133
   8.4949303  23.0028419  34.1492271   7.1266346  22.5545559  35.1422691
   7.0958629  24.4690952  34.4842491   7.6642017  25.3964920  34.4133377
   6.7301354  24.1892242  33.4963112   5.9066873  24.6650715  35.4023361
   6.1270757  24.9526196  36.3451233   5.1775064  25.2455616  35.0131989
   5.4476385  23.7909431  35.6151085   8.9438162  23.4693336  39.3985519
   9.0922756  24.6683903  39.3800087   8.3136921  22.7775154  40.3607864
   8.2701082  21.7689552  40.3290558   7.6105728  23.4787693  41.4104538
   6.8864088  24.1262569  40.9160385   6.8128705  22.3262825  42.0917015
   6.1668234  21.9655895  41.2913132   7.3925915  21.4387817  42.3454056
   5.7697196  22.8010654  43.1160812   5.8128581  23.8824940  43.2455101
   4.7834811  22.6059723  42.6949234   5.9453416  22.3930283  44.6097107
   6.6818714  21.4948273  44.9756470   5.2756400  23.0677433  45.5013161
   4.4415326  23.5590267  45.2132111   5.5265050  23.0393734  46.4792595
   8.5406179  24.0588093  42.4726791   8.2444191  25.1036034  43.0696983
   9.7724638  23.4723568  42.6891518  10.0140333  22.6385670  42.1728706
  10.8192825  24.0337143  43.5397453  10.3476467  24.2574444  44.4966202
  11.8722916  23.0207539  43.7228317  11.3239279  22.1329670  44.0378418
  12.3679276  22.8622532  42.7650604  13.0309296  23.2742271  44.6582451
  13.5537252  24.1902447  44.3831100  12.5564461  23.3656006  46.1013565
  12.0902376  22.4572506  46.4830017  13.4497280  23.6544876  46.6551552
  11.8596611  24.1957302  46.2174301  13.9883823  21.9790134  44.5826797
  14.9401264  22.2634335  45.0314407  13.6075430  21.1081715  45.1162491
  14.1822042  21.7148991  43.5430756  11.2839422  25.3730659  43.0478439
  11.4038477  26.3071098  43.8283539  11.5458393  25.3996449  41.7597084
  11.4996262  24.5813904  41.1694374  11.8548651  26.5771065  41.0707626
  12.7297173  27.0851574  41.4765015  12.4153109  26.1262836  39.7064285
  13.2684669  25.4724293  39.8872566  11.7224436  25.4530468  39.2016563
  12.9260073  27.2215042  38.7606697  12.0952702  27.8842697  38.5183487
  14.0840654  28.0535946  39.3654556  14.4750967  28.6485577  38.5400963
  13.8227558  28.6935997  40.2081947  14.8006773  27.3393345  39.7709160
  13.2860537  26.6006069  37.4113884  13.3777380  27.3439617  36.6194763
  14.0599289  25.8370361  37.4899750  12.4603596  25.9600391  37.1015244
  10.7290096  27.6268158  41.1789093  11.0455532  28.7356567  41.5383492
   9.4976702  27.2826958  40.8525734   9.3626785  26.2927704  40.7045021
   8.3278570  28.1937160  40.9123878   8.5274134  29.0410652  40.2564354
   6.9996901  27.4728832  40.5616837   6.9432063  26.5500984  41.1390762
   6.1566381  28.1343498  40.7612495   6.9373837  27.2687397  39.0834351
   6.7906051  28.2620144  38.6592140   7.8967628  26.8555794  38.7720032
   5.6648846  26.4500446  38.8242683   5.6821365  25.4622955  38.0894814
   4.5408444  26.7372551  39.4150352   8.1926508  28.8128719  42.3013802
   7.8304353  29.9836998  42.4237480   8.4686785  27.9884453  43.3851967
   8.4398699  26.9808578  43.3216438   8.4432364  28.4129105  44.7150803
   7.5637116  29.0567131  44.7224655   8.1092911  27.2738476  45.7583504
   8.7104034  26.3830643  45.5759544   8.1435785  27.6425533  46.7835236
   6.7264366  26.7783642  45.4994240   6.5053234  26.7133999  44.4340630
   6.5118170  25.8158245  45.9637032   5.6308713  27.7629642  46.0722275
   5.8557563  28.8151951  45.8980522   4.6517506  27.5796356  45.6297188
   5.4078493  27.5449200  47.5983276   5.2794471  26.4867897  47.8263054
   6.2815933  27.8523903  48.1729012   4.3100429  28.4208393  48.0923958
   4.3208990  28.3579502  49.1003761   4.5507746  29.3965607  47.9917870
   3.3551257  28.2966518  47.7877464   9.5733137  29.3725243  45.0641785
   9.3393011  30.4338760  45.6392632  10.7911510  29.1096249  44.5879517
  10.9099569  28.1646385  44.2518196  11.9610739  29.9943867  44.7168579
  12.2101717  30.1442337  45.7673798  13.1817904  29.2644043  44.2289047
  13.0063267  28.9111767  43.2127609  14.3687916  30.1830273  44.1554298
  14.2136021  30.8425713  43.3016090  14.4647789  30.7111187  45.1041145
  15.2503691  29.5503521  44.0522614  13.6484852  28.1149693  45.1139107
  14.2276516  28.3524075  46.0062599  12.7027750  27.6838531  45.4423485
  14.4613457  27.0302219  44.5183105  15.4786854  27.3134632  44.2483292
  14.3398418  26.2300625  45.2484360  13.9946947  26.7828426  43.5648193
  11.6898937  31.3212242  43.9792099  11.9816990  32.4055252  44.5251350
  11.0418873  31.2586918  42.8118095  10.7056160  30.4099808  42.3797073
  10.7376862  32.5095711  42.0875473  11.5705633  33.2077599  42.0041733
  10.2664919  32.2843704  40.5862846   9.4533052  31.5585938  40.5777092
   9.9558716  33.5951614  39.7849770   9.2803993  34.2772942  40.3012466
  10.8118744  34.1628761  39.4202080   9.5249577  33.4504395  38.7942848
  11.3009548  31.5670547  39.6908150  12.0206099  32.2943954  39.3150864
  11.8294296  30.8966122  40.3685455  10.7022266  30.7796211  38.4520264
  11.5741777  30.4491978  37.8875618  10.1434059  29.9174118  38.8159180
  10.1098089  31.4464149  37.8255081   9.6697159  33.3071251  42.8761864
   9.8137589  34.5083809  43.0592728   8.6333113  32.6142311  43.2919464
   8.6421108  31.6054573  43.2430038   7.5676894  33.2629738  44.0478668
   7.1444111  33.9828835  43.3473930   6.5461054  32.2068214  44.3967247
   6.0295668  31.8358135  43.5114899   7.0130816  31.3713226  44.9182396
   5.3918157  32.6699104  45.3704414   5.7986164  33.0983505  46.2864380
   4.7004099  33.4171867  44.9810219   4.4366021  31.4798203  45.6708984
   4.5868130  30.8071995  46.7257843   3.6310940  31.0949535  44.7816086
   8.0080004  34.0942421  45.2688522   7.4964824  35.2088432  45.4429245
   8.9379492  33.5353050  46.0429115   9.1908302  32.6075745  45.7339287
   9.7044744  34.1289062  47.2083282   8.9650526  34.6276665  47.8349037
  10.1591311  33.0373535  48.2134666   9.1957026  32.6096382  48.4908867
  10.7356110  32.2848816  47.6753502  10.9565973  33.3889160  49.4384422
  11.4092731  32.4614677  49.7891846  11.6469889  34.2195168  49.2915764
  10.0572319  33.9064713  50.5868759   8.9388237  34.3859673  50.2950668
  10.5051651  33.8760757  51.7548866  10.7563992  35.2448616  46.9047127
  10.7467070  36.2359581  47.5981636  11.5435724  35.0884476  45.8103523
  11.2583790  34.3247643  45.2140732  12.6531916  35.9701309  45.3978920
  12.7585354  36.6847572  46.2141762  13.9498701  35.1770439  45.2213402
  13.8606548  34.5153503  44.3597717  14.7665873  35.8464661  44.9512444
  14.2730064  34.4848289  46.4884682  14.9118795  35.0074158  47.4132652
  14.0231533  33.1682243  46.4831467  14.3970032  32.6311951  47.2525215
  13.5489626  32.6883621  45.7314987  12.3808374  36.8917618  44.1547356
  13.2424221  37.6990395  43.7732620  11.2191010  36.7720184  43.4680290
  10.5670023  36.0285454  43.6732407  10.7314529  37.6678162  42.3608284
   9.8266344  37.2150078  41.9554024  10.3041658  38.9940681  42.9311295
  11.1813850  39.5972862  43.1650352   9.7211132  39.4918442  42.1562920
   9.4193287  38.8146744  44.1487045   9.8938627  38.7260399  45.4571266
  10.8695621  38.7086029  45.7175255   8.8313990  38.5806694  46.2332916
   8.8885517  38.3715096  47.2913017   7.6928658  38.7203026  45.5449028
   6.7996898  38.3701057  45.8606567   8.0581932  38.7595558  44.2195511
   7.4411869  38.7829170  43.3334618  11.7635765  37.6749344  41.2605286
  12.1305094  38.7581100  40.7510223  12.3405895  36.4936600  40.9813538
  11.9056702  35.6119804  41.2128448  13.5428391  36.4530754  40.1814690
  14.1059160  37.3309021  40.4984283  14.3031406  35.1479263  40.5524101
  13.6976433  34.3193474  40.1850777  15.6732283  35.2578621  39.9647179
  16.4045792  34.6541328  40.5020676  15.6883087  34.9735985  38.9125481
  16.1649704  36.2239914  40.0782471  14.4576483  34.8810463  41.9733238
  15.0020990  35.6141663  42.2694740  13.3440256  36.5553322  38.6481934
  12.5450106  35.7846031  38.1037521  14.0272713  37.4496269  37.9010315
  14.6870403  38.0428391  38.3836288  14.2338533  37.2871437  36.4498978
  13.3837290  36.6898727  36.1202660  14.1773596  38.6976547  35.7232094
  14.2666216  38.5223351  34.6511078  13.2208586  39.1974258  35.8762970
  15.2592840  39.8320732  35.9692535  15.3250322  39.8830490  37.0560722
  16.2011433  39.5284081  35.5123177  14.9382782  41.2411575  35.4142494
  14.6319246  41.1843033  34.3697319  14.0091038  41.5309143  35.9049377
  15.9481840  42.3833847  35.5614319  16.8747559  42.2220421  35.0104942
  15.5618420  43.3069687  35.1303482  16.3082638  42.6522598  36.9772034
  15.4567852  42.7597733  37.5096741  16.7960587  41.8880424  37.4223213
  16.9488182  43.4327888  37.0009155  15.4710636  36.5321922  36.0070419
  16.5081654  36.8750534  36.5363159  15.4171734  35.6850128  34.9319649
  14.2203550  35.3815727  34.0270920  13.7875347  36.3391953  33.7377319
  13.4967375  34.7705498  34.5666542  14.7972145  34.6717377  32.8482132
  15.1008081  35.4645233  32.1645279  14.0769653  33.9621811  32.4409256
  16.0261383  33.9711533  33.4380531  16.7825985  33.8241005  32.6671829
  15.6588621  33.0531425  33.8968163  16.5305099  34.8750610  34.5216484
  16.8450031  34.2681084  35.3706474  17.6939049  35.7426796  34.0458069
  18.8661499  35.3328285  34.0230217  17.4643879  37.0123329  33.7018013
  16.5194054  37.2423058  33.4293633  18.5027905  37.9365044  33.1765289
  19.0167522  37.3912277  32.3849373  17.8868561  39.2358589  32.5462456
  17.1959381  38.8789940  31.7824497  17.1951160  39.6205902  33.2956314
  18.8319931  40.3212395  32.0136375  18.1770744  41.1923752  31.9962673
  19.6941299  40.4994202  32.6563416  19.3359337  39.9659042  30.6278839
  19.4361153  40.9080124  29.8184319  19.6472607  38.8270454  30.3130703
  19.5253925  38.1850700  34.2619705  20.7055588  38.2821274  34.0047951
  19.0568581  38.1446266  35.5489502  18.0578976  37.9968262  35.5306587
  19.8338814  38.3698654  36.7227364  20.5549355  39.1688385  36.5500336
  18.9877052  38.9117661  37.8971939  18.1346436  38.3313866  38.2486877
  19.6904736  38.8943367  38.7302094  18.4545364  40.3441467  37.7238655
  19.0190487  41.0890312  36.9422646  17.4158859  40.6572990  38.3102226
  20.7336102  37.1282425  37.0781517  21.7562923  37.2513962  37.7967148
  20.2536278  35.9316902  36.7666359  19.5300198  35.8355026  36.0686073
  20.8606567  34.6792488  37.2172585  21.1775360  34.7017326  38.2599373
  19.8237934  33.5595207  37.0997734  19.4474049  33.5330620  36.0771599
  20.3147640  32.1333656  37.4099884  19.4092560  31.5825634  37.1554909
  21.1762638  31.9066429  36.7818832  20.6966629  32.0960464  38.4302139
  18.7166805  33.9045601  38.0116997  18.1807404  34.8019028  37.7024536
  17.9470329  33.1403580  37.9033012  19.1784325  33.9276581  38.9987907
  22.0487003  34.3383064  36.3699188  21.8578663  33.9733391  35.1825104
  23.2208252  34.4584579  36.9453812  23.1006966  34.6175461  37.9355125
  24.5697594  34.0857468  36.4160423  24.9120255  34.7650528  35.6353378
  25.6080551  34.0865288  37.6138725  25.3011227  33.3512535  38.3576927
  27.0058422  33.6348610  37.3278694  27.0129185  32.5470276  37.2594681
  27.3855209  34.1607628  36.4518738  27.6916065  33.7036018  38.1723251
  25.7349567  35.3974533  38.3901787  26.3579140  35.2260666  39.2680511
  26.2371502  36.1728096  37.8116264  24.7410278  35.7878685  38.6087646
  24.4630318  32.6782684  35.8957825  24.8204002  32.3874168  34.7550774
  23.8886204  31.7963772  36.7357750  23.5049915  32.1501884  37.6004982
  23.8596725  30.3291759  36.5216675  23.6085320  30.2509403  35.4638786
  25.2944775  29.7929001  36.6149521  25.1608906  28.7407341  36.3635483
  25.9263153  30.1750546  35.8131752  25.9237518  29.6687183  37.9837875
  26.0238190  30.5912151  38.5557022  25.1839943  29.0496349  38.4913292
  27.2517185  28.9509144  38.0101395  28.0594845  29.0150833  37.1231766
  27.6313763  28.3112488  39.1357346  28.5396214  27.8697147  39.1513329
  27.0229797  28.1897755  39.9327278  22.9199219  29.6140785  37.5039787
  22.6923943  30.2304192  38.5004959  22.5951500  28.3195324  37.2274361
  22.7617817  28.0362949  36.2723885  21.8376961  27.4879169  38.1832809
  21.9643517  27.8892002  39.1887817  20.3445168  27.4814606  37.7650032
  19.9121494  28.4820213  37.7711830  20.1753101  27.0907097  36.7616196
  19.5239697  26.4784794  38.5634651  19.7844391  25.4628487  38.2655525
  19.7329369  26.6745205  39.6151276  17.7140770  26.6033649  38.3333130
  17.1310272  25.2408619  39.3335533  17.2356930  25.5078564  40.3851509
  16.1031399  25.1851597  38.9751549  17.7450981  24.3540955  39.1765137
  22.3313217  26.0816307  38.2429199  22.4202366  25.3182449  37.2878227
  22.6655521  25.6336651  39.4286613  22.7850895  26.1679420  40.2774010
  23.0663910  24.2158718  39.6966019  23.3875065  23.7413273  38.7693520
  24.1786518  24.1763020  40.8095589  24.0616627  25.0039043  41.5091896
  23.8831539  23.2365627  41.2761192  25.5982399  24.1360188  40.1805000
  25.7134323  23.3189240  39.4683266  26.0342064  25.2540455  39.2426033
  25.3537731  25.2958183  38.3920898  26.2151680  26.2125664  39.7290077
  26.9924374  24.9346256  38.8329010  26.6528397  23.8297386  41.2167015
  26.2751598  23.0508461  41.8791122  27.5418701  23.4455185  40.7166023
  27.0060139  24.7769222  41.6244011  21.7735023  23.4384613  40.2148056
  20.8006096  24.0820274  40.6874504  21.8200569  22.1103096  40.0640182
  22.6694355  21.6386719  39.7879486  20.7638817  21.1030560  40.4355049
  20.1774902  21.5361862  41.2458420  19.8842068  20.8427105  39.1380043
  20.4695415  20.3121395  38.3870201  19.1686802  20.0806522  39.4468575
  19.1458817  22.1225491  38.5251923  19.0721436  22.8780613  39.3074074
  19.8730278  22.6177826  37.3237724  19.2799530  23.2949562  36.7091217
  20.6673126  23.2765789  37.6747704  20.1970234  21.7757263  36.7121620
  17.6821270  21.7503738  38.2296410  17.2611446  21.4753475  39.1967201
  17.1823215  22.6785049  37.9523888  17.4856682  20.9132748  37.5597343
  21.4516525  19.8308563  40.9772377  22.5916977  19.5295181  40.6680756
  20.7905636  18.9868011  41.7700958  19.9134731  19.2544022  42.1934204
  21.4092484  17.7733250  42.2985916  21.9024067  17.3501091  41.4234962
  22.5058060  17.9361782  43.3507423  22.6664581  16.9192963  43.7088509
  23.3701744  18.3256645  42.8129044  22.1527195  18.8427639  44.4508934
  22.0997677  18.2995815  45.2406693  20.4096012  16.7879505  42.8118248
  19.2618580  17.1445713  43.1047516  20.7611980  15.5252600  42.6815605
  21.6877728  15.2608738  42.3788071  19.8395596  14.4022932  43.0529366
  19.1642971  14.7620058  43.8292961  19.0452061  13.9850588  41.8288651
  19.7297459  13.6647596  41.0434265  18.3552227  13.2210789  42.1871414
  18.4558220  14.7803745  41.3725777  20.5551834  13.2193661  43.6352158
  21.7239666  12.9155960  43.3608780  19.9256020  12.5573111  44.6040382
  18.9585915  12.8400145  44.6752243  20.3231106  11.2924204  45.1725121
  21.2629890  11.3795013  45.7176247  19.2241096  10.9275513  46.1955681
  19.4555874   9.9815159  46.6849899  19.1924057  11.9431410  47.3514519
  18.3431911  11.6473942  47.9674606  20.0857315  11.8010721  47.9596329
  18.9713840  12.9720974  47.0677185  17.9453144  10.8928061  45.6301842
  17.7818527   9.9759865  45.3971024  20.4450397  10.0522013  44.2813492
  19.7580433  10.0137386  43.2226868  21.2340832   8.9828196  44.7058296
  22.0186005   8.8403368  45.9777527  21.3990211   8.8256769  46.8744164
  22.7570210   9.6415634  46.0072975  22.7413235   7.5241537  45.8900490
  22.0101719   6.7993493  46.2480659  23.6699123   7.4465613  46.4555702
  22.9070740   7.2999477  44.3788948  22.9988976   6.2445588  44.1223335
  23.8100204   7.8527641  44.1196976  21.6159286   7.8290286  43.8611946
  21.8132820   8.2874870  42.8921890  20.5730858   6.7517281  43.5726128
  20.7677879   5.7572479  42.8614464  19.3729630   6.9531546  44.1381035
  19.2617645   7.7693305  44.7225609  18.1836033   6.2186251  43.9385948
  18.3748760   5.2411475  43.4958153  17.4508991   6.0186410  45.2628632
  16.4453144   5.6571198  45.0479088  18.1091938   5.3020477  45.7540283
  17.3059559   7.2926807  46.1226234  17.4785156   8.3750696  45.5101776
  16.9922848   7.2270236  47.3289337  17.1944447   7.0214553  42.9500656
  16.1205463   6.4504442  42.6864014  17.6621323   8.0730486  42.2798195
  18.5179291   8.5433512  42.5377541  16.9230042   8.6787767  41.2105103
  15.9225388   8.2712288  41.0653381  16.7996063  10.1784973  41.5566254
  17.7699890  10.6741552  41.5287285  16.1909370  10.5717812  40.7424049
  16.0303154  10.5119085  42.8790741  16.5652561  10.2216263  43.7833290
  15.7396126  12.0262547  42.8952904  15.4877653  12.4638634  41.9292831
  15.0112028  12.3042841  43.6570091  16.6790276  12.4906855  43.1951447
  14.7082157   9.7067404  42.9439888  14.0150375  10.0443172  43.7144737
  14.1798038   9.7050419  41.9906387  14.8173485   8.6529713  43.2004280
  17.6685562   8.5332794  39.9176407  18.8746548   8.7696762  39.8325844
  17.0230522   8.1291676  38.8202209  16.0153217   8.1780901  38.8669930
  17.6668072   7.7574077  37.5696297  18.6001167   8.3079271  37.4514771
  18.1062126   6.2764249  37.5464859  17.2931480   5.5807276  37.7539291
  18.4405899   6.0173388  36.5419159  19.1323738   5.7809625  38.5322685
  20.3501968   6.2884636  38.7919235  20.7747631   7.0660048  38.3068733
  20.9658661   5.5394959  39.7202797  21.8671036   5.7600312  40.2730331
  20.0763264   4.6152601  40.1740494  20.1828175   3.7995524  40.7600365
  18.9357204   4.7144728  39.4448357  18.0980377   4.0333033  39.4712219
  16.7800732   8.0167475  36.3002701  17.2705059   7.8370018  35.1512985
  15.5313635   8.3657656  36.4660378  15.1454525   8.2413263  37.3910713
  14.6463814   8.4314880  35.3381386  14.5784168   7.4459147  34.8775635
  13.2519407   8.6434669  35.8591652  13.0194912   8.0860081  36.7665253
  13.1152239   9.7160149  35.9971809  12.5530043   8.2896223  35.1012840
  15.0254936   9.4784441  34.2837219  14.5965834   9.3484764  33.1255760
  15.6333971  10.5894461  34.6690826  15.9005213  10.6579657  35.6407051
  15.8526487  11.8061743  33.9662590  16.2277966  11.4684954  33.0001640
  14.4908056  12.4896154  33.8240662  13.6553955  11.8560734  33.5260468
  14.0072851  12.9792852  35.1879196  14.2871675  12.3963947  36.0654182
  14.3714066  13.9757757  35.4379616  12.9285183  13.1220770  35.1249199
  14.4000511  13.6963234  32.9030342  14.8857603  14.5919189  33.2904472
  14.8351622  13.3464079  31.9669037  13.3785486  13.9556561  32.6248550
  16.8547554  12.7265196  34.6124573  17.0379848  12.6714668  35.8466644
  17.5055752  13.5817022  33.8254318  17.3034382  13.5833654  32.8358688
  18.4270611  14.5641146  34.3510094  18.9018116  14.1738987  35.2512550
  19.5641499  14.9477310  33.4179955  19.1587505  15.0338011  32.4098549
  19.9506950  15.8860569  33.8157730  20.7624264  14.0147762  33.3256912
  21.7650528  14.0515785  34.3142624  21.6048222  14.6120520  35.2234344
  22.8797989  13.2553806  34.1737709  23.7564240  13.4376202  34.7776909
  22.9695606  12.3905067  33.0522461  23.8961430  11.8570452  32.8996964
  21.9130707  12.2944727  32.1153793  21.9740276  11.6826515  31.2274818
  20.7725639  13.0776863  32.2929039  19.9700146  13.1615133  31.5750656
  17.6160583  15.7879066  34.7081184  16.9715595  16.3775768  33.8025398
  17.6090851  16.2637119  35.9922981  18.2481365  15.6061506  37.1225319
  19.3295727  15.5955820  36.9865761  17.9785633  14.5571461  37.2451019
  17.7351246  16.2597561  38.3689499  18.4730778  16.3253326  39.1684647
  16.8398075  15.6856585  38.6075287  17.2748337  17.6135941  37.9131584
  18.0437546  18.3847656  37.8667641  16.5789757  18.0771351  38.6124535
  16.7549114  17.3809052  36.4540558  15.7299471  17.0104904  36.4725571
  16.8155251  18.7156868  35.6803818  15.9168634  19.5037594  35.8005295
  17.9027672  18.9469528  34.9165993  18.5562439  18.1898766  34.7754898
  18.2030754  20.2182865  34.2194595  18.4722195  21.0105305  34.9180374
  19.3928852  19.8944988  33.3249359  19.7025948  20.7802067  32.7702293
  20.2684479  19.6429157  33.9234314  19.2135582  19.0831051  32.6195374
  16.9742470  20.6891155  33.3386269  16.7104855  21.8748608  33.2046432
  16.2478085  19.6971989  32.7004890  16.5239048  18.7541046  32.9338188
  15.1978083  19.9054031  31.7295265  15.7300386  20.4113159  30.9239941
  14.6021881  18.5669327  31.2976646  13.9619303  18.0418606  32.0065155
  13.9148483  18.8059940  30.4861698  15.6228085  17.4836140  30.8709660
  16.4136467  17.9196434  30.2605934  16.0969067  17.0172253  31.7345695
  14.9497375  16.4697189  30.0231476  14.1095104  16.0671387  30.5888748
  14.6335335  16.9460754  29.0951366  15.9335346  15.3029528  29.7586689
  16.8472881  15.7793856  29.4034710  16.0942097  14.8632593  30.7430229
  15.3540392  14.2603474  28.8622856  15.5271645  14.4926081  27.8947201
  15.7901850  13.3599482  29.0007019  14.3528767  14.2628841  28.9955845
  14.1115818  20.8342533  32.2085800  13.5684166  21.6311283  31.4074459
  13.6816435  20.6345444  33.4572830  14.0652561  19.9581757  34.1018486
  12.4941177  21.3057442  34.0175095  11.6822720  21.2078285  33.2968025
  12.0605812  20.7066269  35.3230324  12.7341137  19.9085522  35.6353378
  11.9816036  21.4266796  36.1375160  11.0748978  20.2544785  35.2130737
  12.7413645  22.8053131  34.0900497  11.7411594  23.5663395  34.0977745
  13.9954119  23.2559433  34.1592560  14.7678423  22.6055775  34.1374855
  14.3034878  24.7014694  34.1545868  13.6450272  25.1408424  34.9039078
  15.7595224  24.9362316  34.4675903  16.3623791  24.6189728  33.6167030
  15.9524632  26.3888378  34.7235718  15.6790552  26.9859715  33.8536339
  15.2250032  26.7875538  35.4306259  16.9651012  26.5975075  35.0687103
  16.2931213  24.2159996  35.7614174  16.0935841  24.9377728  36.5534668
  15.7132702  23.3227711  35.9938354  17.3592911  24.0214233  35.6451340
  13.8798199  25.3613014  32.8462791  13.1781435  26.3791904  32.9079247
  14.3204660  24.7927456  31.7127838  14.8339443  23.9237156  31.7478199
  13.9360037  25.2984791  30.3924179  14.2473221  26.3383179  30.2928276
  14.9128504  24.5731525  29.4431591  14.6328487  23.5274487  29.3158722
  14.8924866  25.0834618  28.4802113  16.3863525  24.4046059  29.9386292
  16.8050938  25.2911510  30.4148560  16.4711494  23.5218620  30.5724106
  17.3795147  24.2559338  28.7526951  16.8895187  23.6152611  28.0195236
  17.3686123  25.2388744  28.2817192  18.7301769  23.8773098  29.0319672
  19.2039165  24.4203529  29.7396240  19.2240868  22.6718273  28.9991837
  18.5318851  21.5842133  28.6955299  17.5422840  21.7014446  28.5310402
  19.0231590  20.7027302  28.7371807  20.4458351  22.4613361  29.3449459
  20.7027779  21.4846592  29.3584480  21.1395817  23.1677284  29.5445080
  12.5013342  25.0196953  29.9213505  12.3171711  25.3137703  28.7264061
  11.5950031  24.5997257  30.7999897  11.8876057  24.3771706  31.7407074
  10.1516895  24.7163143  30.4604321  10.0113029  24.4341183  29.4169960
   9.4288712  23.6732197  31.3048534   9.6278400  23.8478127  32.3622208
   8.3613453  23.7366333  31.0939808   9.7531614  22.2075100  30.9780674
  10.8233757  22.1228065  31.1666622   9.2314978  21.4966621  31.6189041
   9.4922562  21.9870548  29.5160866  10.5110817  22.2081966  28.7627888
   8.3433723  21.5713539  29.0997086   9.5583277  26.1339054  30.5932579
   8.3871670  26.3408279  30.2479820  10.3106441  27.0447979  31.2148209
  11.2433195  26.8249645  31.5340214   9.8138809  28.3349438  31.6026859
   8.7264109  28.2916164  31.5423470  10.2744942  28.5740700  33.0651894
  11.3140659  28.2490711  33.1072350  10.2573900  29.6149826  33.3881607
   9.6082535  27.8200569  34.1856461   9.4463024  26.7901134  33.8677063
  10.4300423  27.7854729  35.4146194  10.9173460  28.7569180  35.4978828
   9.7366037  27.4524269  36.1868401  11.1654568  26.9818172  35.3771667
   8.1557245  28.3712292  34.4697723   7.5888138  28.3529797  33.5389748
   7.6960812  27.7674599  35.2522621   8.1677208  29.4062405  34.8113976
  10.2837696  29.4561958  30.6751766  11.4184208  29.4308605  30.2079353
   9.4420528  30.4875641  30.4836197   8.4956779  30.3319073  30.8002357
   9.7512732  31.5501804  29.5714569   9.9695244  31.0390415  28.6337986
   8.5318298  32.4899445  29.4148941   7.7648311  31.9296932  28.8801689
   8.2210093  32.7964630  30.4136677   8.8459969  33.6553307  28.7000408
   8.0104218  34.1174049  28.6005268  11.0409870  32.2878799  29.9470196
  11.1485491  32.8378220  31.0757275  11.9389582  32.3243713  28.9414616
  11.6268950  32.1135063  28.0043106  13.3114414  32.9930000  29.0477085
  13.6599674  33.1843491  28.0328083  13.2310495  33.7828331  29.7945709
  14.3503094  32.0799637  29.8047390  15.5371122  32.1529961  29.6489697
  13.8358679  31.1661911  30.6573868  12.8341618  31.0421257  30.6933365
  14.6740942  30.3894882  31.6878338  15.2979364  31.1258621  32.1944618
  13.7383299  29.9095783  32.8198013  12.7512140  29.6146374  32.4638367
  14.1747408  29.0019035  33.2366600  13.4799032  30.8287678  33.9690704
  12.3743696  31.5672398  34.0400848  11.5389223  31.5855083  33.3559113
  12.5229912  32.4127083  35.1343651  11.8585196  33.1147461  35.4271469
  13.6422749  32.1352158  35.8667831  14.1773539  32.5991096  37.0495110
  13.6896963  33.4260178  37.5442963  15.2374210  31.9947567  37.6398544
  15.6163397  32.4125671  38.5608635  15.9762669  31.0082340  36.9073410
  16.8625546  30.6554279  37.4137230  15.5117140  30.5730934  35.5924454
  16.0719852  29.8879509  34.9735146  14.3190231  31.1300812  35.0835381
  15.6150589  29.3826256  31.0443592  16.6645489  29.0550079  31.6387939
  15.3562965  29.0773888  29.7744408  14.4982853  29.4943810  29.4427223
  16.2726421  28.3840466  28.8343010  16.4002762  27.3713722  29.2167912
  15.5698357  28.2569942  27.5149612  16.3166809  27.7788525  26.8811607
  14.7632017  27.5275917  27.5885391  15.0704861  29.4849453  26.7441349
  14.2898827  29.9870510  27.3156681  15.9196720  30.1662521  26.6910782
  14.5831327  29.2684135  25.3012238  14.5592632  28.1368542  24.7739811
  14.0570974  30.3318024  24.7249279  13.8898067  31.2177601  25.1801147
  13.6258545  30.2696476  23.8137398  17.6647530  29.1138630  28.6769104
  18.6797333  28.4700947  28.5277557  17.7175217  30.4739170  28.7586956
  16.9187679  31.0916748  28.7802544  19.0229397  31.1248379  28.7295895
  19.5769615  30.5910397  27.9574375  18.7370682  32.5671196  28.2817898
  18.2071400  33.1350632  29.0464611  19.6343632  33.1833496  28.2249889
  17.8928261  32.6315384  26.9528904  18.2589226  31.8552189  25.7914925
  19.1012669  31.1793346  25.7973690  17.4953651  31.9150028  24.5755501
  17.8849220  31.3569183  23.7369862  16.3107586  32.7136040  24.4949684
  15.6354866  32.8800735  23.3695488  16.1628036  32.7516708  22.5776825
  15.8466272  33.2704773  25.6710968  14.8846540  33.7614098  25.6728783
  16.6437435  33.2986221  26.8931313  16.3320484  33.8396988  27.7743168
  20.0239258  31.0829582  29.9805107  21.1978340  31.3973446  29.8977356
  19.5017452  30.5857143  31.1247787  18.4954338  30.6237297  31.2021790
  20.2913685  30.2420540  32.2856560  20.9204273  31.0953560  32.5391464
  19.4338226  30.1120815  33.5213547  18.7653141  29.2620220  33.3850021
  20.3153610  29.8867321  34.7730179  21.0811577  30.6498814  34.9118118
  19.6730099  29.9528236  35.6511536  20.7551708  28.8913403  34.7108650
  18.6916409  31.4544487  33.8923264  19.3767147  32.3006973  33.9437180
  18.0392799  31.8010845  33.0908470  18.0369320  31.4025898  34.7622528
  21.1117802  28.9709187  32.0203476  20.4630775  27.9681091  31.7678089
  22.4634914  28.9133282  31.9115219  23.3509846  29.9460182  32.3123398
  23.0686626  30.4375629  33.2433510  23.4080639  30.6433678  31.4765511
  24.7225590  29.2738495  32.6026344  24.9345493  29.1091862  33.6590652
  25.5318661  29.9631634  32.3618622  24.6363468  28.0704613  31.7362862
  25.3671360  27.3851852  32.1657562  24.7947884  28.1913528  30.6646614
  23.2036362  27.6245480  31.8652096  22.8971882  27.0358677  31.0005455
  23.0585442  26.8027534  33.1239471  22.9725113  27.4018974  34.2056923
  22.9050484  25.4762039  33.0031090  22.9282932  25.1411152  32.0505981
  22.5313873  24.5555153  34.0927849  22.7261467  24.9251308  35.0995369
  21.0337067  24.1082058  33.9909134  20.9897957  23.1713848  34.5463791
  20.1056423  25.2082920  34.5706062  19.0534859  25.0780602  34.3174248
  20.2244225  25.2129364  35.6541061  20.5026531  26.1761856  34.2645569
  20.7012653  23.6356144  32.5101357  19.6910267  23.2431831  32.6263847
  20.6720619  24.5051994  31.8535748  21.4020576  22.8841362  32.1464424
  23.5548820  23.3901978  33.9391060  23.9338646  22.9652824  32.8471107
  23.8897133  22.7929058  35.0727425  23.4272614  23.1841850  35.8809128
  24.2277718  21.3807392  35.1248817  23.9305668  20.9406013  34.1730156
  25.7044601  21.1965714  35.1118774  26.1175556  21.7889519  34.2954559
  26.3697243  21.6221466  36.4123917  26.2701645  20.8416119  37.1666832
  27.4493103  21.6909714  36.2787628  25.9695988  22.5565968  36.8058434
  26.0537682  19.8367977  34.8897972  26.2290649  19.5469742  35.7880592
  23.5216179  20.6595840  36.2315903  23.1622581  21.2987270  37.2008171
  23.5250721  19.3217697  36.2147026  23.7241001  18.8486309  35.3448601
  23.3346767  18.3501606  37.2975655  22.8217049  18.9294205  38.0653038
  22.3228340  17.1986523  36.9772263  22.8589573  16.6142216  36.2294884
  22.1760654  16.6560917  37.9111366  20.7822628  17.7535172  36.1564064
  21.3509617  18.7207642  35.4312096  24.7181664  17.8491249  37.7665901
  25.7035789  17.7635784  37.0389595  24.8080063  17.5245628  39.0542183
  24.0144844  17.7023773  39.6532211  25.7586384  16.5426292  39.7126961
  26.0744495  15.8842487  38.9034309  27.0214767  17.1953735  40.3505135
  27.5900269  16.4293652  40.8778496  27.6585236  17.7415791  39.6548615
  26.6360874  18.1325073  41.4593925  25.7851276  17.7160854  41.9984322
  27.4847164  18.2916012  42.1246872  26.3915787  19.9482117  41.0763245
  28.1362438  20.5394230  40.7927246  28.3743477  21.3011150  41.5351715
  28.8074970  19.6814003  40.8290520  28.1391068  21.0388985  39.8239021
  24.9067841  15.6849766  40.6804352  23.7688789  15.9168463  41.0193481
  25.5364990  14.5652361  41.0542603  26.4717522  14.4642115  40.6865692
  24.9302979  13.6209269  41.9950485  23.8501148  13.7182484  42.1038246
  25.4029961  12.1746387  41.7143059  25.5445747  12.0983677  40.6362305
  26.3083115  11.9721346  42.2865753  24.3189602  11.1449757  42.0882111
  24.0875664  11.2616711  43.1469536  23.4178143  11.4303503  41.5454407
  24.6966648   9.7008829  41.6960182  25.8325043   9.2822714  41.7925339
  23.8317699   8.8788452  41.2700005  24.0974751   7.9548297  40.9606438
  22.9513073   9.2948895  41.0020561  25.4833241  13.8484802  43.4144058
  26.6502342  14.2545691  43.6306343  24.5566998  13.5302877  44.3593788
  23.6866798  13.1953764  43.9707909  24.6322632  13.6165972  45.8000031
  24.6828346  14.6056309  46.2553635  23.3491135  12.9056282  46.3998642
  22.4436588  13.1566563  45.8473816  23.5429821  11.8397179  46.2800636
  23.1274071  13.0619192  47.9198647  22.5570889  12.2074156  48.2840958
  24.0462151  13.2831964  48.4629364  22.4062405  14.3135834  48.3299141
  21.1842194  14.2057934  48.5770683  23.0435543  15.3897305  48.3754196
  25.8559113  12.8350277  46.3025055  26.1554394  11.7416334  45.7671547
  26.5716228  13.2162838  47.4174652  26.5931530  14.1820335  47.7123604
  27.5377731  12.2958050  48.0498123  28.1290798  11.8312092  47.2607536
  28.4971523  13.0983047  48.9156990  28.9223938  13.9277763  48.3506775
  27.8982925  13.5452299  49.7092514  29.5630493  12.1914320  49.5981750
  29.2075291  11.2040396  49.8927269  30.3718777  12.0491419  48.8814774
  30.0629215  12.8646994  51.1922684  31.1096439  11.5842867  51.9191780
  31.9393044  11.3428526  51.2547455  31.5407810  12.0462866  52.8073044
  30.5762825  10.6514349  52.1019707  26.8285255  11.1583633  48.8419189
  25.9356785  11.4109230  49.6550789  27.2773056   9.9365292  48.5909157
  27.9793396   9.8061686  47.8765945  26.7249870   8.6789284  49.1135559
  25.6434975   8.6971359  48.9788437  27.2398548   7.5189710  48.1639786
  26.9754925   7.6961980  47.1214790  28.3243828   7.5954928  48.0861816
  26.8975506   6.1384935  48.6789017  27.4976902   5.1237817  48.1888618
  26.0727940   6.0218043  49.6379623  27.1526165   8.4885921  50.6142159
  28.2898579   8.1795139  51.0074997  26.1585388   8.6107912  51.4947357
  25.2146034   8.8184404  51.2015266  26.2319660   8.6716948  52.9125061
  27.1777554   8.2323847  53.2296677  26.0697651  10.2029867  53.2831039
  25.2347279  10.6340475  52.7308350  25.7321892  10.3934021  54.7250023
  25.8948784  11.4457121  54.9579468  24.7147827  10.1746464  55.0492439
  26.4599476   9.9158983  55.3810921  27.4328365  10.9142628  53.0275688
  27.5873909  11.0214596  51.9539223  27.5117779  11.9185400  53.4438591
  28.2953663  10.3887205  53.4373817  25.1326752   7.8003626  53.5779648
  24.0228024   7.7798467  53.0534859  25.4994259   7.1325803  54.6855659
  26.4111176   7.2881627  55.0914116  24.6921196   6.1286683  55.4054070
  24.2277317   5.4304566  54.7090187  25.5216484   5.4662261  56.5324211
  25.1918640   5.8183851  57.5098267  25.1553249   3.9541805  56.4715424
  25.3812256   3.6847167  55.4398155  25.8031044   3.4676023  57.2007408
  24.0956268   3.7039440  56.5217781  26.9188919   5.5771184  56.3725014
  27.0536861   6.4963856  56.6141167  23.3729343   6.7234817  55.9808884
  22.5458488   5.9941745  56.5417137  23.0553894   8.0361309  55.7133408
  23.7529812   8.5463066  55.1906700  21.7933712   8.6783686  56.1688881
  20.9085979   8.0755568  55.9642105  21.8500328   8.9147177  57.2314453
  21.3772526   9.9959164  55.4848213  22.1405735  10.4733105  54.5842819
  20.2217331  10.4721651  55.7951698  19.6696243  10.0112715  56.5042915
  19.5808868  11.6686049  55.1446953  19.5289345  12.4496508  55.9032288
  20.3416119  12.1605825  54.5386009  18.2929020  11.4468489  54.3275528
  17.6436691  10.4455338  54.3513985  17.8363380  12.5170727  53.6377983
  18.4239159  13.3344393  53.5555534  16.6347961  12.5433044  52.7560501
  15.6863852  12.2196999  53.1848831  16.4382477  13.9371395  52.0705414
  17.3755074  14.3530035  51.7008095  15.7366009  13.8216372  51.2444267
  16.0494766  15.0962000  53.0283051  16.8186588  15.1839495  53.7956123
  15.8350544  16.4551888  52.4166908  15.5903540  17.1009789  53.2600060
  16.7593174  16.7477303  51.9184380  14.9601784  16.3911495  51.7697067
  14.7259502  14.6820211  53.7656212  13.9298143  14.6238222  53.0234108
  14.7925758  13.8173656  54.4259491  14.4581261  15.4749308  54.4639549
  16.9632015  11.6130781  51.6060181  17.9731312  11.7513456  50.9075851
  16.1205635  10.6202278  51.3899422  15.2788858  10.5846739  51.9470940
  16.2069473   9.6418428  50.2759972  17.2485352   9.5809183  49.9605865
  15.6470594   8.2660084  50.6726074  14.5580006   8.2529259  50.7159729
  15.8341551   7.5714803  49.8536263  16.3065491   7.7014313  51.9543877
  16.3361244   8.4004889  52.7901764  15.6178961   6.8799853  52.1520844
  17.7134743   7.0458393  51.8872147  17.6912823   6.0995035  51.3467941
  18.4419842   7.6677380  51.3670044  18.1474991   6.6949673  53.2884521
  18.1478310   7.4987340  54.0247002  17.4779415   5.8846073  53.5767365
  19.4966888   6.0773826  53.3285980  19.5447922   5.5111680  54.1635742
  19.7060032   5.5334015  52.5037498  20.2059860   6.7939792  53.3876381
  15.3318033  10.1978273  49.1291389  14.3758993  10.9073105  49.3748779
  15.6322851   9.8317385  47.8902435  16.2364578   9.0225868  47.8715477
  14.8810091  10.3445683  46.7340851  15.6089630  10.1129398  45.9565659
  13.6283636   9.5388784  46.5591774  13.0062389   9.6188450  47.4506149
  12.9716492   9.9954433  45.8186493  14.0258923   8.0576286  46.1827316
  14.6791124   8.0781355  45.3103867  14.5649490   7.6389980  47.0325928
  12.7122097   7.2360415  46.0250778  12.1502228   7.6142607  45.1711349
  13.0178289   6.2182260  45.7826996  11.8857670   7.1048188  47.3650208
  12.5163059   6.8153543  48.2056923  11.4958706   8.1028967  47.5648384
  10.8864889   6.0894585  47.2787285  10.1943836   6.1521392  48.0116463
  10.4496403   6.1407213  46.3695335  11.2992659   5.1719847  47.1895218
  14.6207104  11.9050226  46.7813454  13.5313063  12.3842878  46.6759033
  15.7089815  12.6970949  46.8125343  16.5926476  12.2261505  46.6804543
  15.6503925  14.1314478  47.0420113  14.6430311  14.5449114  47.0906982
  16.3643761  14.4226360  48.3809433  16.0368710  13.8276091  49.2334595
  17.3670578  14.0360289  48.1985626  16.5040321  16.1796131  48.8672142
  15.1900673  16.3385906  49.0492020  16.3642502  14.8513794  45.8895264
  17.5009308  14.5159369  45.5438385  15.7510996  15.8811731  45.3518677
  14.8825941  16.0884285  45.8239365  16.2990513  16.9439259  44.4957619
  17.2472038  16.5450401  44.1352119  15.3729429  17.1703835  43.2745857
  14.4434805  17.6960697  43.4933510  16.0075874  18.2013760  42.3697548
  15.4959335  18.2266178  41.4076347  15.7395248  19.1933651  42.7333450
  17.0555058  17.9137268  42.2847519  15.0830479  15.9161139  42.4594994
  15.5254707  15.9588623  41.4642372  15.5281687  15.0510406  42.9510460
  13.6027737  15.5605230  42.4471550  13.1467342  15.8444366  43.3955879
  13.1458273  16.0757389  41.6022568  13.5179100  14.4801979  42.3297043
  16.5773869  18.2494621  45.2281952  15.7508554  18.6202641  46.0652542
  17.6472683  18.9571228  44.8913498  18.3430843  18.6242237  44.2393379
  18.1094093  20.1876869  45.4416885  17.2535133  20.7330284  45.8393669
  19.2265911  20.0272522  46.5657806  20.2370567  19.8970127  46.1783600
  19.2777519  20.9518394  47.1407776  19.0557747  18.8362141  47.4523849
  18.0389214  18.6273003  47.7847595  19.2782536  18.0222874  46.7623672
  19.8699684  18.8307838  48.7686234  20.9063931  19.1204643  48.5953827
  19.3455925  19.5238323  49.4265099  20.0395679  17.4931793  49.2957687
  19.8896961  16.7219429  48.6610756  20.4436588  17.1537380  50.5331955
  20.6171722  17.9019070  51.6037064  21.0677471  17.4466457  52.3846169
  20.5794220  18.9064598  51.5059814  20.6038895  15.8810129  50.7799568
  20.9445438  15.6151381  51.6928444  20.7298126  15.2369089  50.0122490
  18.6518269  21.0646057  44.2803001  18.8540840  20.6069965  43.1966248
  18.8147316  22.3621826  44.5269737  18.8071785  22.6482258  45.4955940
  19.2779140  23.2559795  43.6014633  19.8940620  22.8311920  42.8089867
  18.1639786  23.9616241  42.7992706  18.7071590  24.7421932  42.2665749
  17.3992805  23.0010719  41.9003830  18.0367546  22.4089050  41.2438316
  16.8451614  22.2577934  42.4736137  16.6728230  23.5250683  41.2792702
  16.9696770  24.6668167  43.6073990  17.3881798  25.5407581  44.1065865
  16.1316414  24.9828148  42.9861565  16.6073055  24.0199814  44.4063911
  20.1061058  24.3283253  44.1604996  19.8975639  24.7388287  45.3156853
  21.0447369  24.9205971  43.3780098  21.2010288  24.4886150  42.4785309
  21.8019981  26.1400146  43.7896347  21.2411194  26.5899467  44.6088257
  23.1895027  25.8281975  44.3846893  23.1202660  25.1423092  45.2290001
  23.8354454  25.2396755  43.7331505  23.9089718  27.0374756  44.9420166
  24.1613560  27.8061295  44.2115517  23.2549610  27.5293922  45.6620064
  25.4022484  26.6049461  45.9015121  26.4150162  25.8290329  44.6225700
  27.4675369  25.8915977  44.8989525  26.1471081  24.8015118  44.3765450
  26.3293152  26.4304218  43.7175369  21.9044361  27.1524563  42.5775604
  22.7807503  27.1397190  41.6891327  20.9655857  28.0851841  42.6068344
  20.3391705  28.0047035  43.3950119  20.8253651  29.2821999  41.7918816
  21.1784973  29.0598965  40.7849121  19.2578392  29.5510788  41.5730896
  18.7944031  28.7186394  41.0435867  18.8237247  29.8360863  42.5314293
  19.0578403  30.8661480  40.7321625  19.4213181  31.7612038  41.2369957
  19.5637112  30.8319855  39.7672653  17.3172359  31.2723045  40.3994179
  16.8830795  31.5939312  42.0981674  16.0337124  32.2644463  41.9674301
  16.6460476  30.6297741  42.5479660  17.7016068  32.0631332  42.6440277
  21.7743111  30.4246426  42.2719002  21.8399467  30.7135086  43.4474411
  22.4363480  31.0950680  41.3701019  22.5095787  30.7549267  40.4219208
  23.2877769  32.2302971  41.6717911  23.1316013  32.3645477  42.7421570
  24.7476368  31.8568001  41.3642387  24.8513050  31.8009338  40.2806168
  25.7190399  32.9695778  41.8180771  25.5629539  33.9553070  41.3798065
  25.5646286  33.2035942  42.8714027  26.7077427  32.6184616  41.5226402
  25.2554989  30.6619625  41.7910004  25.7033863  30.7462196  42.6359253
  22.8562431  33.5207520  40.9167938  22.6418190  33.4522324  39.6873589
  22.7675991  34.6432076  41.6403084  23.1725903  34.5786629  42.5633011
  21.9787636  35.8476791  41.3335457  21.9095402  35.8614845  40.2458305
  20.6213551  35.8357353  42.0490723  20.7014999  35.9006691  43.1341820
  19.7144547  36.9431953  41.4417839  20.0597343  37.9478149  41.6859665
  19.4804134  36.9450073  40.3772087  18.7509632  36.8229065  41.9370766
  19.9513760  34.4950447  41.6969910  20.1823826  34.0960541  40.7092972
  20.3930969  33.7189713  42.3220444  18.8648205  34.5645027  41.7486839
  22.6889610  37.1760712  41.6763763  23.0288239  37.4238319  42.8397293
  22.9283371  37.9845276  40.6354675  22.4150848  37.7137070  39.8088303
  23.3337708  39.4114571  40.8435669  24.1895485  39.3550949  41.5163002
  23.8322468  39.9594727  39.4759903  23.0041485  39.9359856  38.7676125
  24.0161877  41.0283127  39.5848274  25.1593037  39.2678108  38.9367065
  26.0205421  39.8839340  39.1950874  25.3105221  38.3819656  39.5535622
  25.2503147  38.9424057  37.5095482  26.1549873  39.4350471  36.8111610
  24.2877560  38.3083344  36.9183273  24.4944344  38.2802238  35.9300995
  23.4474049  37.8890610  37.2899742  22.2126331  40.2742348  41.4722595
  21.1308765  40.2903175  40.8742790  22.4428692  41.0143890  42.6067047
  23.3706913  41.0430946  43.0047302  21.4317722  41.5465355  43.3644104
  20.6903286  41.8607101  42.6297951  20.8284626  40.4277191  44.2547874
  20.3384094  39.7111702  43.5956154  21.8248310  39.7593079  45.2223358
  22.5875530  39.2069359  44.6734848  22.3523369  40.4535522  45.8764458
  21.2899208  38.9779472  45.7621918  19.8811531  41.0366364  44.9865456
  19.1248589  40.4886055  44.7645493  21.9504242  42.6891937  44.2460136
  23.1089382  42.7573471  44.5939560  21.0897141  43.6090546  44.5683670
  20.1847210  43.5520363  44.1235809  21.3250828  44.5284691  45.7023468
  22.3679924  44.8452530  45.6929207  20.5427628  45.8227272  45.4946709
  19.4933033  45.5376511  45.4207382  20.7173500  46.5081406  46.3240242
  20.9843464  46.4571457  44.2299995  20.1479645  47.0847626  43.5679169
  22.1856251  46.6084557  44.1016922  20.9284706  43.9763031  47.0469818
  21.2243576  44.4887810  48.1193275  20.0200882  42.9698143  47.0500526
  19.9977551  42.4049568  46.2130699  19.3559303  42.4166527  48.2466049
  18.8422947  43.2220726  48.7715607  18.2316608  41.4397430  47.7626572
  18.4812889  40.5506134  47.1836548  17.2898312  40.8476295  48.8585167
  17.7898464  40.0701866  49.4361572  16.8800735  41.6763573  49.4359322
  16.4683285  40.3652725  48.3288307  17.1600056  42.1818199  46.8903351
  17.5688171  42.4865303  45.9269409  16.4152069  41.4559135  46.5640869
  16.7783298  43.1226425  47.2869072  20.3015671  41.6274643  49.1705933
  21.1342697  40.8346710  48.6728020  20.2470322  41.7818108  50.5234146
  19.4795132  42.7811699  51.1793060  18.4715004  42.3832512  51.2962227
  19.3673306  43.6703568  50.5589256  20.1939125  43.1589584  52.4619217
  19.4710426  43.3177338  53.2621422  20.8750725  43.9684753  52.1996193
  21.0853443  42.0070534  52.7789879  20.4930553  41.4215469  53.4821815
  22.0313663  42.2950630  53.2374535  21.2901249  41.2932243  51.4266624
  22.3331623  41.4674568  51.1624336  21.2752800  39.7806511  51.5823898
  20.2913990  39.0716476  51.3688583  22.3652477  39.2001839  52.0928574
  23.1444759  39.7691269  52.3915329  22.5319843  37.7378502  52.2040329
  22.5054207  37.4084396  51.1653404  23.9702435  37.5481949  52.7076111
  24.6066494  38.3677635  52.3738480  23.9818954  37.6513252  53.7926598
  24.5778580  36.1806717  52.4385986  23.8309994  35.3867607  52.4347382
  24.9848518  36.3215752  51.4372978  25.8253155  35.9183693  53.4099312
  25.9645538  36.4029694  54.5595016  26.7776146  35.1835403  52.8861122
  27.6592388  35.3192253  53.3598557  26.6332798  34.7594490  51.9808998
  21.4625359  36.9520760  53.0576248  21.1776218  35.8124008  52.6724892
  20.9366550  37.6074944  54.1252594  21.1818924  38.5745201  54.2828102
  19.9091129  37.0256386  55.0202179  19.9364147  35.9490547  54.8519325
  20.1123161  37.3427849  56.4906311  19.3238640  36.8448219  57.0549698
  20.9911633  36.7865982  56.8167992  20.2686958  38.8606834  56.7851715
  20.9604912  39.6161346  56.0574722  19.6319675  39.2737350  57.7571678
  18.5245647  37.3235207  54.4595375  17.6147194  36.5971222  54.7037315
  18.3127804  38.3989525  53.6564522  19.0887222  39.0347977  53.5393143
  17.0150871  38.8090401  53.0576057  16.2514381  38.4658890  53.7555923
  16.9310093  40.2653503  53.0202980  17.4981709  40.5891113  52.1475983
  15.8949318  40.5289040  52.8077354  17.2790489  40.9935341  54.3132210
  16.6756287  40.4760857  55.0590324  18.3166656  40.8546066  54.6167870
  17.0442333  42.5253487  54.4048958  16.6018734  43.2192001  53.5661316
  17.1901283  43.0938683  55.5304489  17.7744312  42.5491028  56.1484451
  16.9839268  44.0739059  55.6612587  16.8897381  38.1587677  51.6927643
  15.7020359  38.1057701  51.2242737  17.9530849  37.6270523  51.0569038
  18.8716755  37.9558067  51.3180695  17.8353405  36.5679054  50.0396004
  17.1245441  36.8313026  49.2563438  19.2884426  36.3964539  49.3717041
  20.0562668  36.5556145  50.1288147  19.5067940  35.0282555  48.7021866
  19.3837318  34.1665573  49.3582573  18.7299480  34.7964249  47.9735832
  20.5412121  34.9900436  48.3606911  19.4527302  37.5234070  48.2672234
  19.0250034  38.4466438  48.6580925  20.4919281  37.7139969  47.9991913
  18.6223106  37.3484459  47.0216293  18.6843014  38.3112640  46.5144348
  19.0288506  36.5523300  46.3979073  17.5702553  37.3624458  47.3063774
  17.2731934  35.2823601  50.7022934  17.8230057  34.7503052  51.6672516
  16.2549706  34.5850525  50.1129189  16.0063934  34.8964958  49.1848488
  15.4228258  33.4613533  50.6842537  15.6510048  33.2817268  51.7348595
  13.9435463  33.8593674  50.6920204  13.7308426  34.2146225  49.6837311
  13.2215328  33.0669518  50.8891869  13.7050924  35.0238152  51.6166725
  14.4004622  35.8535614  51.4898643  12.6999140  35.4011612  51.4287186
  13.6960421  34.7440605  53.1383095  14.5405617  34.1288147  53.4487267
  13.7742043  35.6939392  53.6672020  12.5745182  33.9123955  53.6441307
  11.7127094  33.7956200  53.1305695  12.5513220  33.1769829  54.7047768
  13.5379467  33.1588287  55.5424843  13.3479271  32.6120567  56.3701553
  14.3779421  33.6871262  55.3543091  11.5202951  32.3536835  54.8295670
  11.5432329  31.6972084  55.5967827  10.7981453  32.3861923  54.1241989
  15.6341400  32.1648712  49.9101143  15.6309967  32.1368713  48.6791878
  15.8088837  31.1194210  50.6761169  15.7572775  31.2624702  51.6746025
  15.8660288  29.7342072  50.2496262  16.0046749  29.7003403  49.1690102
  17.0251312  29.1290722  50.9745903  16.8746586  28.8642578  52.0211678
  17.1816463  28.1902695  50.4433136  18.2651310  30.0120296  50.8032074
  19.1738739  29.9640694  49.7637978  20.1061268  30.8789558  50.0058060
  20.9781723  31.1420708  49.4255409  19.8198242  31.6008968  51.1044159
  20.4016857  32.2979698  51.5467072  18.6803551  31.0489845  51.6644554
  18.0703907  31.2658310  52.5289345  14.5506258  28.9615841  50.5941505
  13.7537432  29.2725754  51.5131226  14.1924171  27.9088802  49.7809677
  14.8615780  27.4730129  49.1626282  12.8794651  27.3543224  49.7541199
  12.2963686  27.7026691  50.6066208  12.0619068  27.8822575  48.5321617
  12.5710402  27.5571671  47.6248550  10.6259041  27.3467255  48.4321709
  10.0477629  27.5656166  49.3299103  10.1023378  27.6139851  47.5142670
  10.7572355  26.2649632  48.4068222  11.9165192  29.3844852  48.5510864
  11.0553694  29.6949692  47.9593735  11.6576042  29.8485413  49.5027771
  12.7559767  29.8859520  48.0694695  12.7954235  25.8062191  49.8386078
  13.1685877  25.0888824  48.9150352  12.3688049  25.2674732  50.9798012
  12.2129793  25.9001350  51.7515259  12.4147263  23.8227577  51.3307610
  13.0490704  23.2755013  50.6334610  12.9319983  23.5694084  52.8077507
  12.3164845  24.2443104  53.4025192  12.6868000  22.5232716  52.9909821
  14.4358110  23.7965603  52.9337349  14.9168882  25.1355648  53.0952606
  14.2265425  25.9653893  53.1301041  16.3153896  25.3307152  53.1437073
  16.7104568  26.3274460  53.2735558  17.1544342  24.2343693  53.1539459
  18.5364704  24.3079109  53.3138885  18.9650440  23.5050716  53.0083199
  16.7020264  22.9087849  53.0455818  17.4559174  22.1356030  53.0300789
  15.2927465  22.7044811  52.9870110  14.9054136  21.6963387  52.9915886
  10.9932852  23.2037144  51.1499023  10.1494436  23.8130703  51.7578964
  10.8339148  22.0418873  50.4522209  11.6026211  21.5623569  50.0058594
   9.4978790  21.4828568  50.1143684   8.7502804  21.8848743  50.7981682
   9.2028570  21.8870354  48.6524086   9.9496737  21.3603649  48.0582848
   8.2635098  21.4823475  48.2756386   9.2069883  23.3716183  48.2919044
  10.1996365  23.7716808  48.4985428   9.0325727  23.5112209  46.7941780
   9.2051973  24.5551243  46.5323372   9.7715511  22.9176369  46.2559700
   8.0469751  23.1867447  46.4603996   8.0958300  24.2139626  48.9134979
   7.1317978  23.8411503  48.5674438   8.2036905  24.1453819  49.9959793
   8.2571363  25.2085648  48.4977455   9.4051208  19.9412575  50.3173904
  10.4046984  19.2512112  50.4823952   8.1900492  19.4141407  50.2452202
   7.4064326  20.0452919  50.1575127   7.9416757  17.9501076  50.5425339
   6.8724718  17.7721138  50.6575165   8.2292032  17.0989246  49.3136406
   9.1759310  17.4353809  48.8910255   8.3754082  16.0388546  49.5209465
   7.2209320  17.2080383  48.1994858   6.8635683  18.2377529  48.1905251
   7.6865044  16.9654350  47.2442360   6.0233488  16.3903313  48.4154930
   5.4637465  15.9992294  47.3859978   5.5021801  16.0923443  49.4980240
   8.6570082  17.5902958  51.8539619   8.5858135  18.3269310  52.8227043
   9.2987814  16.4725552  51.8751717   9.4013643  15.8848581  51.0601921
  10.0204268  15.9206934  53.0913925   9.3475494  15.9547195  53.9482346
  10.4000597  14.3997793  52.8930130  10.7816954  14.3554964  51.8729668
  11.1986284  14.0937204  53.5688210   9.1742020  13.4524851  53.1203613
   8.7863045  13.4099865  54.1381187   8.4099913  13.8707027  52.4652443
   9.6642990  11.9899931  52.7591972  10.1128254  12.0798378  51.7698288
  10.3529310  11.6159019  53.5167885   8.5065250  10.9935026  52.6276970
   8.8915539   9.9740734  52.6028633   7.8838940  11.0976543  53.5162849
   7.5950251  11.3491526  51.5431786   7.7244983  12.2996788  51.2272110
   7.8766947  10.8219023  50.7290688   6.6186810  11.1279125  51.6769905
  11.2200613  16.7150726  53.5611725  11.5959253  16.6888332  54.6985054
  11.7824774  17.5871754  52.7297478  11.3818254  17.6357517  51.8038864
  12.9265623  18.4078884  53.0674667  13.6912527  17.8094769  53.5626945
  13.4039650  18.9633999  51.6831932  13.4967279  18.1151466  51.0049858
  12.6744270  19.6948833  51.3356133  14.4229708  19.3486710  51.7191772
  12.5025988  19.6072025  54.0247383  13.4101448  20.1635723  54.6509666
  11.2455387  20.0419292  54.1501312  10.5500517  19.6181316  53.5528069
  10.7360468  21.1852036  54.9004784  10.9243517  22.0678654  54.2892952
   9.2219906  21.0108147  54.9619446   8.8517399  20.6316719  54.0094376
   8.6940918  20.0557041  56.0356712   9.2953119  19.1483097  56.0928879
   8.7941875  20.5079212  57.0223732   7.6813693  19.7083950  55.8310509
   8.6639099  22.4432430  54.9666138   7.5878491  22.3760815  55.1268768
   9.1769590  23.1551037  55.6132431   8.7463760  22.8705616  53.9672661
  11.2604904  21.3631725  56.3308601  11.4175377  22.4740143  56.7878647
  11.5524988  20.2858105  57.0452499  11.2626038  19.3867149  56.6879196
  12.1338797  20.3035393  58.4152260  11.4549122  20.8069038  59.1035042
  12.2313328  18.9098606  58.9608345  12.5396490  18.8875923  60.0060883
  10.9002237  18.2170544  58.9058151  10.0957851  18.9293060  59.0893288
  10.6797638  17.8658314  57.8977737  10.9105644  17.4562721  59.6863327
  13.1669445  17.9447823  58.2008591  14.2264929  18.2006092  58.2038765
  13.1424170  17.0091953  58.7595901  12.8524809  17.6892738  57.1889648
  13.4689760  21.0557995  58.5704193  13.7934265  21.5756149  59.6834068
  14.2794580  20.9781151  57.4900360  14.0815458  20.3210526  56.7489586
  15.6143751  21.5862675  57.3603287  16.0444546  21.3593636  58.3358536
  16.3601799  20.9558125  56.1962624  15.6842356  21.0504684  55.3464165
  17.3168182  21.4644966  56.0771484  16.6480083  19.4854870  56.4351768
  15.7985563  18.9000759  56.7870827  17.2067947  18.8702812  55.1397705
  17.6201019  17.8708115  55.2752037  16.4350090  18.8486462  54.3703690
  18.0646763  19.4448891  54.7905350  17.7759457  19.3665504  57.5139618
  18.6280575  20.0141239  57.3074570  17.3080349  19.6771622  58.4481354
  18.0901871  18.3228416  57.5194702  15.6832056  23.1030121  57.2330399
  16.7475433  23.6493015  57.3606911  14.5500631  23.7903652  57.2675438
  13.6722479  23.2931404  57.3155823  14.6520472  25.2091866  56.8740501
  15.1661720  25.1878490  55.9131508  13.2143869  25.6116199  56.5112152
  13.1852875  26.5535698  55.9635086  12.7642756  24.8669090  55.8547821
  12.2815199  25.8180981  57.7265778  12.3115587  24.9520206  58.3877220
  12.7322474  26.6549263  58.2601166  10.9005280  26.2334232  57.3271942
  10.9160967  27.2863712  57.0458412  10.5265818  25.5725842  56.5451736
   9.9327259  26.1543007  58.4314461   9.8089533  26.9898739  58.9851608
   9.1054878  25.2476234  58.7749977   9.1923389  23.9962311  58.4246407
   9.9527588  23.7356796  57.8131027   8.3944502  23.3946800  58.5716400
   8.1693020  25.4982891  59.7035637   7.7693644  24.7152634  60.2005844
   7.9890451  26.4698315  59.9126396  15.3488922  26.2397213  57.7632446
  15.2065334  26.0608807  59.0305328  15.9374084  27.3376942  57.3150215
  16.0770760  27.6570282  55.8976364  15.1576281  27.5333252  55.3254395
  16.9118462  27.1166782  55.4512215  16.4004879  29.0990944  55.9441605
  15.4274101  29.5762615  56.0604820  16.8927536  29.5045757  55.0602150
  17.1691265  29.2799511  57.2032509  17.1130180  30.3360748  57.4669876
  18.1964817  28.9627934  57.0242119  16.6364155  28.3002110  58.2172623
  17.5169487  27.8709450  58.6952820  15.6930971  28.9938259  59.2462120
  16.1185169  29.0799465  60.4251976  14.4612999  29.1720314  58.8841896
  14.1999359  29.1814098  57.9086380  13.3953819  29.7120819  59.7943764
  13.7292700  30.7134533  60.0661736  11.9775839  29.7463627  59.1491928
  11.5042334  28.7732658  59.2800369  11.3808861  30.4493122  59.7304993
  12.1617184  30.2228565  57.7025909  12.6317225  31.3749790  57.4526100
  11.7574873  29.4768810  56.8308525  13.1637383  28.9134483  61.0588417
  12.5610228  29.4781761  61.9986992  13.5646572  27.6225452  61.1917458
  13.8504448  27.1361370  60.3539925  13.5696592  26.9180603  62.4902687
  13.0431070  27.5406857  63.2135811  12.7933159  25.5431442  62.3114662
  13.3468103  24.8005123  61.7368011  12.7678652  25.0813446  63.2984810
  11.3559961  25.6593494  61.8583679  11.3576660  25.9672337  60.8127556
  10.7711639  24.1951294  62.0347252   9.6974840  24.1459770  61.8533516
  11.3479586  23.5138569  61.4092064  10.9179583  23.8542938  63.0596123
  10.4471769  26.5245552  62.6837120  10.7441721  27.5732937  62.6765862
   9.5504150  26.5471096  62.0645103  10.3714952  26.1356182  63.6991463
  14.9028091  26.7931843  63.2680397  14.9343901  26.2800446  64.3603516
  15.9768448  27.2825966  62.6982536  15.8269005  27.5339298  61.7315865
  17.3564129  27.2104893  63.3027267  17.5758762  26.1560287  63.4702072
  18.4163113  27.7573166  62.3026276  19.3937321  27.7493382  62.7849998
  18.3642120  27.1075478  61.4290237  18.0774021  29.0259304  62.0370903
  17.3652649  29.0650787  61.3944931  17.5573845  27.7562447  64.7360229
  18.3663731  27.2441616  65.4768448  16.7637196  28.8076363  65.0431213
  16.1353645  29.2193336  64.3680115  16.8242855  29.4580154  66.3645401
  17.8261242  29.3615532  66.7830124  16.4038620  30.9607811  66.3138428
  15.3687973  30.9705887  65.9723129  16.2523079  31.3890820  67.3046494
  17.1393452  32.0509644  65.5471420  17.1656246  31.8605270  64.4742279
  16.4117432  33.3402863  65.8373566  17.1203442  34.1060677  65.5217972
  15.5171003  33.3632660  65.2151108  16.1190109  33.5872459  66.8578568
  18.5294209  32.0726624  66.0823517  18.9764595  31.0840416  65.9780502
  19.1838474  32.7696800  65.5589142  18.5581055  32.3822632  67.1270676
  16.0109196  28.7205162  67.4855042  16.3494644  28.8863831  68.6877213
  15.0878010  27.7988567  67.1255264  14.9349260  27.6084175  66.1454926
  14.5047398  26.7693787  67.9859695  14.3233662  27.1606102  68.9870377
  13.2273636  26.2928314  67.3399734  13.5176258  26.0374203  66.3208542
  12.6163368  25.0605354  68.0583572  12.2054386  25.4267998  68.9991684
  11.8546314  24.8045273  67.3219070  13.3137932  24.2730427  68.3438644
  12.2300816  27.3429871  67.3903809  12.5582037  28.0293961  66.8049011
  15.5232267  25.6599979  68.2001190  15.6799946  25.1249790  69.2746658
  16.1767406  25.2602158  67.0784149  16.1152153  25.7491837  66.1968079
  17.2101440  24.2211380  67.0660858  16.9064655  23.2867928  67.5382004
  17.4304256  23.9432526  65.5791702  17.5226898  24.8983307  65.0620499
  18.4194965  23.5063782  65.4414062  16.3956776  23.0103855  64.9063721
  16.4277592  22.0573654  65.4344177  15.4287062  23.5094357  64.9697342
  16.8959312  22.7749195  63.4943657  16.9347610  23.6605682  62.8601570
  17.8980904  22.3487053  63.5404053  15.9536514  21.7069626  62.8478165
  16.5837021  21.2657108  62.0755234  15.6387520  21.0557060  63.6631737
  14.8142061  22.3585129  62.1648979  15.1328659  23.1694012  61.6539993
  14.4551725  21.8153744  61.3927612  14.0679321  22.6559258  62.7770424
  18.4737206  24.6580582  67.7512436  19.0685749  23.8770962  68.5088882
  18.7942467  25.9082832  67.7604752  18.4009342  26.4831181  67.0290527
  19.7034588  26.6107464  68.7355728  20.6359673  26.0525513  68.8189163
  20.2216873  28.0191231  68.3601074  19.3729076  28.6882954  68.2191010
  20.7309780  28.4007206  69.2450409  21.0451050  28.1406155  67.0806961
  21.3324909  27.1744747  66.4332352  21.4302330  29.3847294  66.8065262
  21.0716000  30.1491890  67.3606796  22.0204411  29.5306034  66.0000076
  19.2880878  26.6849766  70.2211914  20.1415863  26.9499817  71.0930176
  18.0026436  26.7226124  70.5206833  17.3457661  26.6204338  69.7603073
  17.5490112  26.8230438  71.9033356  18.2979221  27.4300537  72.4120331
  16.1747093  27.5700531  72.0151138  15.5071154  27.0687256  71.3143311
  15.5862789  27.7384338  73.4667664  16.3370628  28.0528831  74.1917038
  14.8847399  28.5527916  73.2857437  15.0665941  26.8058643  73.6866302
  16.4852161  28.8741417  71.5524826  16.8330746  28.8082485  70.6601562
  17.4192638  25.5025101  72.5207825  17.9100838  25.3040237  73.6632080
  16.7803459  24.5788403  71.8393631  16.4527798  24.9186630  70.9464340
  16.4267292  23.2056808  72.3150024  16.0214539  23.2089081  73.3268509
  15.4130945  22.6422615  71.2713928  15.8206596  22.4643688  70.2762299
  15.1384964  21.6762714  71.6951370  14.0219421  23.3586693  71.2560501
  14.1320143  24.3896103  70.9196777  13.2080326  23.0066948  70.6222000
  13.3959866  23.1856785  72.6277771  12.9551897  24.1791630  73.2199402
  13.3185358  22.0809422  73.1710892  17.5892258  22.2540512  72.3264923
  17.6747017  21.3425426  73.1494675  18.6363029  22.5110035  71.5222778
  18.5872078  23.2819595  70.8716507  19.9358139  21.8492584  71.3622513
  20.2632866  21.9587822  70.3283920  21.0468140  22.3998032  72.3293839
  20.8850555  22.1522617  73.3785095  21.9656162  21.8356247  72.1693649
  21.3009186  23.9103184  72.1567078  20.3583927  24.4501801  72.2477722
  22.2164192  24.4570045  73.2545166  22.4650459  25.5102768  73.1245499
  21.8005066  24.3451347  74.2558212  23.1524811  23.9008217  73.3050232
  21.9900913  24.2259789  70.8185120  22.8900204  23.6291580  70.6700974
  21.3405151  24.0087700  69.9705963  22.2746887  25.2780018  70.7998123
  19.9217987  20.3157196  71.2959137  20.7654667  19.6753387  71.9743118
  19.0855026  19.7891312  70.4935989  23.2369003  15.9025860  30.2693195
  22.7489948  14.9383144  30.3944855  24.2317352  15.8051538  29.8399754
  22.7075844  17.0721111  30.6144409  23.4050026  18.3396053  30.3356094
  22.7859154  19.3514080  30.4909325  24.5986576  18.3183117  30.0144501
  21.4476051  17.2381897  31.1206818  20.2382126  17.2875786  30.2511005
  19.4185543  17.4086571  30.9699192  19.9542809  15.9252272  29.7804012
  20.5681515  15.1871624  30.2922115  19.1803360  15.7285929  28.6950436
  18.5510769  16.8361034  27.9811363  17.8407173  16.5955925  27.1925049
  19.1237507  18.0601444  28.1611252  18.6870537  18.8667603  27.5761490
  20.3217564  18.3049221  29.0557747  21.2603836  18.1395035  28.5128117
  20.2437840  19.5945568  29.6131573  20.8905563  19.5293922  30.3371544
  18.8664284  14.3083477  28.3184357  19.4130287  13.3395214  28.9039097
  18.1210861  14.0491581  27.4305096  44.0560837  17.4223995  41.7059174
  44.4912796  16.6436024  41.0833359  44.6430588  18.3058128  41.9479256
  42.7979431  17.3591919  42.2185707  42.3597641  18.4492855  43.2005882
  43.0854378  19.3883171  43.5598640  41.2255096  18.4049759  43.6488724
  41.9697685  16.3612156  41.8148155  41.2659454  16.4475250  40.5997620
  40.6204300  15.5745516  40.4434929  42.2337074  16.4942875  39.4724884
  42.6339569  15.5264292  39.1782455  42.6470718  17.6062889  38.7915344
  41.8164253  18.8129616  39.0343285  41.9850655  19.7327099  38.4775352
  40.8511200  18.8922672  39.9556007  40.2965355  19.8252640  40.0296936
  40.3262825  17.6647816  40.6391716  40.2518692  17.9238148  41.7024498
  38.9830894  17.3243179  40.2322426  38.4882011  17.0373154  41.0192947
  43.6786995  17.5791435  37.7038078  44.5063438  16.7011604  37.6075859
  43.8578033  18.5356102  36.9622536  20.2713165  21.3578129  55.2174759
  19.4870510  22.0946598  55.0577469  20.4894104  20.9951515  56.2196922
  20.8436604  20.8508091  54.0832291  20.5123425  21.3608742  52.6515579
  20.0661068  22.4628944  52.3700447  20.7994175  20.6775093  51.6782608
  21.7881908  19.8539104  54.1020508  22.6672726  19.4621868  55.2042732
  23.5126610  18.9074554  54.7790909  21.8276806  18.8220177  56.3126640
  20.9514732  18.2138004  56.0985069  22.2379951  18.6943684  57.5949898
  23.3988914  19.4862461  57.9689827  23.7951241  19.3144951  58.9679337
  23.9438725  20.4824543  57.1546135  24.8158875  21.0876541  57.3930511
  23.4265347  20.7523518  55.7705231  22.8047943  21.6514568  55.6797562
  24.5436420  21.0101337  54.8806496  24.1099377  21.3594036  54.0827522
  21.4985332  17.9065437  58.6571960  21.8730507  17.9319172  59.7795830
  20.4768887  17.2673721  58.4279747   3.3279722  43.1584892  24.6861248
  50.9132538  64.3333969  44.0085907  34.0271950  29.7775555  76.8356094
  79.8403244  21.2845440  42.0130844  67.6219711  32.3010254  60.2099190
   0.2590242  68.9574890  46.9979820  22.0086441  64.7505188  63.4096794
   4.2726903  70.5459061  22.4577141  80.2585373  53.6070709  78.5246582
  50.4612389  49.9126854  70.6989975  49.9298477  50.0618668  69.9169464
  51.1473198  50.5785751  70.6529846   6.3668551  47.8596954  43.5634766
   5.9333782  47.2183723  43.0004196   6.4300814  47.4269142  44.4149094
  25.5032883  42.7096710   9.1324577  25.8607483  42.2982712   9.9193544
  25.9033890  42.2287941   8.4079514  51.6910934   6.1258745  84.4645386
  51.9198074   5.4469004  83.8297806  51.7299843   6.9423218  83.9664078
  54.7585678  17.2055244  19.4487953  55.1654739  16.3990822  19.1320782
  54.5188026  17.6811733  18.6534939  50.1963005  29.4560394  50.1149406
  50.5955048  29.2201519  50.9523354  50.6254501  30.2750168  49.8672791
  84.1758041  17.2138023   5.9727707  84.1102982  16.8705711   5.0816293
  85.1122589  17.1916542   6.1697297  45.4790459  32.1819153   2.9647462
  45.1233788  31.3035259   3.0995243  44.7076721  32.7432785   2.8867285
  73.8902512  59.5926132  45.0826607  73.6296310  60.3588905  44.5716591
  74.2909317  59.9562531  45.8722496  76.1272278  53.9911270  33.5219841
  76.1471863  53.1928215  34.0497589  76.1233978  54.7019920  34.1629906
  73.9923553  41.4242973  86.1593704  74.3284988  41.1733017  87.0197449
  73.9660187  40.6054764  85.6643219  60.1773529  21.2654743  24.9552212
  60.5964928  20.8995438  24.1763458  59.2401886  21.1458015  24.8014736
  43.8030281  58.1180115  43.2025719  44.6309395  58.5965157  43.1598434
  43.8784790  57.5786324  43.9897232   3.8448429  65.5027313  19.7068100
   4.3359323  66.0363846  19.0820904   4.1236892  65.8214340  20.5652409
  82.9765472  55.7739944  85.6412201  83.7730484  55.2485924  85.5652313
  82.2649231  55.1340599  85.6237335  26.6439075  45.5956764  49.6194954
  26.8614998  44.6905899  49.8424339  25.7462196  45.7100067  49.9314575
   0.2053955  63.5928040  20.7779064  -0.6241771  63.4605484  21.2367630
   0.7733920  62.8947334  21.1039562  18.6546726   2.9532969  25.9028721
  19.5147266   3.1985245  26.2440491  18.2280407   3.7874324  25.7068233
  82.3822556  24.9425755  36.1929970  83.1537323  24.3788223  36.2499313
  81.6738052  24.3535442  35.9334373  56.7600822  33.9480820  49.7942505
  56.3325844  34.7867165  49.9679489  56.0627670  33.2993927  49.8901215
  74.3629990  16.0197201  52.1986885  73.7114334  15.3700104  51.9349213
  74.4962311  16.5562191  51.4172478  71.6459579  42.9447937  85.6659164
  72.2922745  42.3137589  85.9826202  71.4871063  42.6893539  84.7572098
  56.2909851  32.8968849  67.0897903  55.6213341  32.3509674  67.5018311
  56.0732384  33.7886543  67.3610229  63.5865822  69.9660034  73.7119446
  63.5646210  69.5890121  72.8323822  62.6853752  70.2437057  73.8760681
  46.6004524  67.0452652  62.9695549  46.0665779  66.8291397  63.7340813
  45.9822502  67.0480118  62.2387657  86.2518158  53.5653152  36.3337708
  87.1558609  53.6471748  36.6374817  85.9026108  52.8182411  36.8197365
  44.8663063   6.7554259  67.1540375  44.5894279   6.3479247  66.3333588
  45.1400223   7.6376328  66.9029922  22.2760048  37.2516861  80.7910538
  22.7762089  37.9776688  80.4182587  21.4439507  37.6445961  81.0547638
  80.4870071  18.7428265  65.9581680  81.0010910  19.0902176  66.6870422
  80.9880981  17.9876842  65.6501083  19.5110760  32.9441147  75.7663956
  19.6872120  32.1145172  76.2102127  18.8928833  33.3963356  76.3404770
  79.2352295  12.1086426  66.5944061  79.4724731  11.7347002  65.7458115
  79.7056274  11.5721607  67.2324829  76.6594772  39.5924416  72.3555069
  77.4658966  40.1031151  72.4271698  76.8869629  38.7341156  72.7129440
  63.2266617  68.1417770  21.3785591  62.9094276  67.5352554  20.7094364
  63.9793053  67.6965942  21.7678833  31.6919365  28.0000610  66.5026321
  32.0488052  27.4281502  65.8230743  31.6882153  27.4597626  67.2927551
   6.4217553  43.9044914  74.5825882   6.4709463  44.2544975  75.4721451
   6.1457787  44.6485405  74.0473709  56.4446793  31.7778053  29.9950333
  55.8959236  32.0250702  29.2507477  57.1051445  32.4687843  30.0456638
  10.5081310  60.1582069  47.8079300  10.6935444  59.8801117  46.9109840
  11.3269720  60.5503006  48.1112328  32.7529564  43.3005371  39.7028351
  33.5699463  43.2328339  39.2086868  32.0696754  43.0924416  39.0656128
  10.4350080  49.9863472  85.8460236   9.5367832  50.2761383  86.0055389
  10.3425007  49.2202415  85.2796707  83.7195663  58.1293831  31.2995377
  84.4576111  58.5215759  30.8329563  83.6313782  58.6559372  32.0940170
  76.9372864  53.3694572  72.2111359  77.4315720  53.9838524  71.6685181
  76.3128281  53.9179878  72.6858978  68.5723572  36.2079620  39.1232414
  68.4796219  35.2776756  39.3286667  67.6743622  36.5384789  39.0985985
  64.9598465   6.5046830  73.6709290  64.2188187   7.1084008  73.7223282
  64.8981705   5.9812064  74.4699249  16.4089394  69.7097397   8.6071215
  16.9929619  69.2304230   9.1948338  15.5982056  69.2008743   8.6076651
   9.7440453  30.1396465  13.6984529   9.7451191  29.2841053  14.1277304
  10.6575594  30.4239197  13.7286587  39.7585907  55.7620735  37.6132851
  40.3705635  55.0925293  37.3076210  39.7092628  56.3888893  36.8915520
   2.0462651  45.0333824  28.0172691   1.8979080  44.3391609  27.3751812
   2.8332412  44.7596741  28.4884224  44.0774460  34.8412590  24.9661446
  43.2235756  34.4593010  24.7630482  44.6702499  34.4609299  24.3179417
   4.2904935  19.8134842  86.2488937   4.1706929  18.9069500  86.5318680
   4.9017224  19.7563591  85.5144730  51.2880402  20.1316624  30.3395729
  51.4714432  20.8928051  29.7888851  52.0422211  20.0730801  30.9260960
   4.8482256  70.4394760  18.4302483   4.6689959  70.1938171  19.3378620
   5.4977241  71.1395721  18.4954014  68.5194016  29.4316483  50.3569221
  68.3695374  28.8439579  49.6163864  68.8813934  28.8679428  51.0406113
  86.2106552   8.4457130  34.8643341  86.2247009   9.1413727  35.5216713
  86.9281540   8.6637678  34.2694626  43.8963509   3.2960689   9.8900108
  44.2001495   2.7333007   9.1778088  43.0651131   3.6520321   9.5760632
   8.0077658  16.5079193  74.7413101   8.2008686  17.0988503  74.0134735
   8.4978418  15.7109118  74.5392303  25.0132961  59.6307030   5.3739381
  25.7025700  60.2946777   5.3904147  25.0978870  59.1767921   6.2124147
  81.7710953  36.7561378  62.6726303  81.7749100  37.6535530  63.0055847
  80.9309998  36.3979073  62.9592285  86.2361603  62.0628128  71.3617706
  86.5647659  61.5893593  72.1260300  86.5375977  61.5479660  70.6132355
  82.6386871  35.1769524  88.4578552  82.3734970  35.3726692  87.5591888
  83.4966049  34.7617531  88.3693771  58.2615204  28.0391521  58.8867950
  58.4205589  28.0742664  57.9435539  57.8480263  28.8778496  59.0913544
  71.2622147  25.2382450  76.7461166  70.8239594  24.7932129  76.0207825
  70.5717773  25.7536278  77.1631393  78.7501678  51.6618919  53.3951530
  78.2929306  52.4986420  53.3113670  78.1972580  51.0385895  52.9239655
  47.1399231  25.5854130  14.6957121  46.7737694  25.9258270  13.8794527
  47.9631271  25.1723499  14.4350452  50.0962906  29.7110519  41.6738968
  49.3621750  29.4468479  42.2284279  50.8715591  29.3872643  42.1325417
   3.0513182  15.6720409  25.7541561   3.9408460  16.0251770  25.7378426
   2.4887848  16.4431400  25.8262215  85.2094955  66.9665604  50.1730766
  85.9030228  66.3287659  50.3417931  85.2393417  67.5575104  50.9254875
  78.4039383  61.7233086  79.8769531  78.8526535  61.5846634  79.0428925
  77.4831848  61.5442200  79.6862335  38.5713768  54.4136620  56.6558685
  38.9736176  53.8366127  56.0066757  38.0429802  55.0228195  56.1401558
  62.1518326  16.9181366  40.2468987  62.6093903  17.1335945  41.0595818
  62.8028946  17.0619202  39.5601120  82.5575027  54.0613518  21.4390812
  82.4961777  53.8763123  22.3762207  83.3224792  53.5658379  21.1466579
  73.4054718  13.2912216   7.8922448  73.9911423  13.0254545   7.1833105
  73.6986160  12.7827864   8.6484137  65.2993317  17.9253254  75.8831406
  65.5160522  18.7176151  76.3746109  65.7394867  17.2206841  76.3585129
  28.3485527  34.7556686  82.5554733  28.9989319  34.9789658  83.2213364
  27.8480759  35.5618477  82.4296570  22.2880516  17.2460766  62.1916428
  21.6216984  17.6270618  62.7635345  22.1708221  17.6955757  61.3547211
  85.3001633  42.1948433  11.1747398  86.2382278  42.3519249  11.2823734
  85.2460022  41.3159637  10.7994099  81.2168198  19.1785526  81.3327789
  81.7697983  19.8548965  81.7239380  81.0528412  18.5613003  82.0457611
  20.6808453  45.2154160   1.3654616  21.3216572  44.5474854   1.1216145
  20.9540558  45.9964523   0.8842485  16.8320732  58.1312523  48.9426727
  17.6941376  57.8605843  49.2586136  16.2488594  57.4154663  49.1951485
  59.3964348  26.0251999  38.0059166  59.1298180  25.7639961  38.8873444
  58.5766945  26.2436695  37.5625992  57.4614182  62.7580452  11.4915743
  56.7800674  63.0880089  10.9058094  58.0938148  62.3363152  10.9098091
  12.7165146   5.6259151  88.5207596  12.2475529   5.1855774  89.2295685
  13.5096731   5.9670362  88.9339981  67.8750305  17.8987789  42.2550392
  68.6344986  17.8451748  41.6748886  68.0809097  18.6170120  42.8533592
  11.0894375  24.8890781  81.3940887  10.6766081  24.1391296  81.8223190
  11.7883024  25.1520443  81.9929810  40.5402679  40.3859406  15.5159740
  39.7076569  40.0157661  15.8091688  41.1469116  40.2105331  16.2353134
  32.0983200  64.3054123  16.5375309  32.2067719  64.3070831  15.5864954
  32.8771400  64.7529984  16.8681927  86.0737381  32.7896652  72.4137421
  86.4684296  32.4945831  73.2343369  86.0128403  33.7405052  72.5055695
  66.1264801  66.3265991   3.0603538  66.5811462  65.6910095   3.6131017
  66.3962936  67.1785583   3.4032898  54.4199944   9.7967644  43.1435242
  55.0021362  10.1016197  43.8395157  53.5558434   9.7589931  43.5534592
  51.1655159  27.0547409  80.7111130  50.2447891  27.2830410  80.8390732
  51.2266998  26.1410656  80.9898376  47.4839439  12.8460312  57.4928741
  48.1977310  13.3058367  57.0509224  46.8120918  13.5153236  57.6228561
  74.8458252  62.5533524  37.8867760  74.2179947  63.2056923  38.1974449
  75.3250809  62.9965553  37.1866913  32.5278931   9.7813444  83.2357178
  32.2453194  10.6048956  83.6334000  31.7597198   9.4708309  82.7564240
   8.9452124   5.3199110  25.9266205   9.4847555   5.8611717  26.5029545
   8.4434099   4.7628860  26.5217247  55.6396675   8.8291349  60.4430695
  55.4157143   9.2499170  61.2731400  55.6507874   7.8933778  60.6442299
  75.8062897  40.8156357  39.5783195  76.3741684  40.3945923  40.2236671
  74.9559097  40.8795433  40.0130615   5.0512795  57.2005157  52.1369781
   5.6847177  56.5366707  51.8644028   5.3680077  57.4978714  52.9899101
  58.9939880  57.8299179  59.0448647  59.0775223  56.8952255  58.8561897
  58.5767899  58.1953888  58.2647324   2.4497561  34.2653389  79.6435471
   3.0053344  35.0377808  79.7479324   2.7551227  33.6578598  80.3173065
  36.2133904  33.6491280  85.3663254  35.2872276  33.8528862  85.2361908
  36.5869942  34.4529228  85.7276688  27.6441460   1.2828993  29.7846622
  27.3631153   0.3772241  29.9150715  28.0278072   1.5378067  30.6237431
  58.1233978  51.2668800  25.5045948  57.5488586  50.8381882  24.8702755
  58.8107147  50.6236877  25.6781693  60.6344833  55.2451248  36.5352821
  61.1686974  55.6050606  37.2433014  60.3357964  54.3984756  36.8672562
  50.2852783  61.6258888  77.1635742  51.2315178  61.6632385  77.3031006
  50.1141396  60.7148438  76.9249573  70.7637711  61.3112068  19.9872417
  69.9943161  60.8210106  19.6976185  71.4949646  60.7069397  19.8589783
   6.6356702  54.5170975   8.1117620   5.8895268  53.9876976   8.3932581
   6.2569299  55.1723518   7.5257378  55.2067337  35.7729912  87.2711487
  54.7731819  36.6054039  87.4591827  54.7177391  35.4096642  86.5328369
  81.9873428  40.5156097  54.8870354  81.7051086  40.7866325  54.0134659
  82.8068237  40.0438385  54.7383537  57.1015396  33.5731430  64.5895233
  56.9957428  33.2214546  65.4734650  56.2233543  33.5364799  64.2104721
  17.4362431  48.7369423  29.7699223  17.3960342  49.1267509  30.6432285
  17.5817528  47.8045540  29.9302807  33.1882668  55.4153862  56.1893234
  32.7709084  56.2710609  56.2886429  33.3414955  55.3314285  55.2482071
  38.6526184  37.3309021  11.3739958  38.8536377  38.1840706  10.9893866
  39.4123459  37.1294594  11.9203129   6.5271416  52.5733719  88.6268234
   6.8314285  52.0846558  89.3915482   7.1927037  53.2482681  88.4935150
   4.3748174  48.3466225  62.4990921   4.0594096  47.8016167  63.2200089
   4.0792904  49.2299576  62.7195740  81.4836273  29.8793678   6.5616946
  81.9363480  29.6133957   7.3620286  81.5940475  30.8296013   6.5285664
  30.0215626   7.4383535  38.0080566  29.1317673   7.4402103  38.3608856
  30.0269260   8.1501169  37.3680573  19.4985657  30.9003792  71.3353424
  19.5915108  31.8218555  71.5771561  18.7518234  30.8839931  70.7367249
  32.7841263  53.2896309  10.9970150  32.6810417  53.3371048  11.9474621
  32.8730278  54.2015152  10.7198944  67.3533173  27.0801811  49.1355972
  67.5584259  26.3866940  49.7626839  66.4247513  27.2642956  49.2773285
   1.3732860   9.1821079  11.9034014   2.2211704   9.0939722  12.3387814
   0.9460132   8.3361521  12.0376711  51.1067848   8.7402248  24.4993992
  50.7449303   8.5844860  25.3717747  51.7390137   8.0328178  24.3725548
   9.9116526  68.1769867  11.4426384  10.3328123  68.4490585  12.2580128
  10.6162663  67.7814789  10.9294853   6.5327926  53.3100739  50.9107170
   5.6950011  53.6879044  50.6431732   6.8234568  52.8084641  50.1490517
  71.5997467  45.3353119  18.1421738  72.2866592  45.0384293  18.7390327
  72.0675735  45.8132477  17.4573765  60.7890701   1.5961938  23.2505054
  60.0709190   1.0860265  22.8760471  60.4158173   2.4659204  23.3936577
  29.7717056  58.1976929  35.0181885  30.6817265  58.4233589  34.8253937
  29.6728134  58.3790436  35.9528351  51.2955437  38.3975830  68.3073883
  50.8788757  37.5399017  68.3910828  50.7138939  38.8910217  67.7290878
   7.1386189  35.9496422  88.6295929   6.6454606  36.6364822  89.0782318
   6.5856853  35.7031479  87.8881531  62.2530746  15.7724972   8.5508194
  62.8875008  16.4665108   8.7299385  62.6813812  15.2192068   7.8976312
  79.0987701  25.2278728   7.8380589  79.9763031  25.1554298   7.4626603
  79.0904388  24.5906429   8.5522718  86.0832062  58.1940269  68.4736023
  86.7249603  57.6935844  67.9696655  86.5831223  58.9226570  68.8415909
  82.7775650  29.5325260  54.0428047  82.5843506  28.9503365  54.7776222
  82.8309860  28.9511700  53.2842522   7.2974305  43.6880112  41.8385277
   7.9540114  44.2449722  41.4202843   7.8068628  43.0166550  42.2923889
  80.9974213  58.4904442  39.6468658  80.8966293  57.7366982  39.0655403
  81.9432907  58.6275406  39.6994858  67.5152130  47.6201401  16.9495068
  68.0373535  47.1226006  17.5788364  67.1452179  48.3396492  17.4610195
  48.0357246  43.3822441  25.8360214  47.6972351  43.3355522  26.7301559
  47.4990578  44.0515137  25.4114017  74.4216461   8.0996008  65.0261459
  74.8337631   7.9763985  65.8812561  73.5301590   7.7702494  65.1402283
  72.8488159  23.7822647  46.2355728  72.7285385  24.2039776  47.0864105
  73.7322617  23.4156837  46.2727013  45.9767036  60.6583862   1.8649342
  46.7189789  60.0965500   2.0876310  46.2597542  61.5385857   2.1126468
  80.4141464  59.9377022  48.7627106  80.3535843  60.8306618  49.1021042
  79.5267715  59.7327614  48.4680862  75.9233093  71.1900330  26.0555496
  75.0994034  71.6766129  26.0300655  76.4757919  71.6201782  25.4028931
  46.9212570   5.8882627  37.6534729  47.8156433   5.9202061  37.9930000
  47.0242043   5.6672435  36.7278481  16.6583443   1.2444593  21.4436436
  16.6659412   0.3112899  21.2306423  17.0641327   1.2959095  22.3090458
  24.4144497  51.3970299  87.3673325  24.8705025  51.0263710  88.1228790
  25.1107140  51.5965958  86.7415314  48.4463272  63.1551056  14.0975943
  48.6712227  62.3266258  13.6741877  48.1460762  62.9039154  14.9710846
  45.9512978  62.0461311  23.3916550  46.6525269  61.8542442  24.0143032
  46.3966408  62.1337128  22.5489006  22.2419643  54.7266464   5.9391351
  22.2804985  55.0697975   5.0463896  21.7266788  53.9233932   5.8649464
  28.3008518  12.3262472  14.7048874  27.6234646  12.6278057  14.0995455
  28.9458599  13.0334320  14.7141333  23.6378841  28.7579460  73.0815582
  23.7140179  28.4256401  72.1871262  22.7116699  28.9800758  73.1765137
  11.0409489  67.6452942  43.4735832  10.8172550  68.5734711  43.5419998
  11.8103504  67.6256714  42.9044914  54.2125816  32.5906181   2.1057098
  53.9408417  33.0810013   1.3298790  53.9622574  31.6861649   1.9172086
  48.6121788  62.2547836  74.2948532  49.3570137  62.7010536  74.6977158
  48.6803207  61.3505707  74.6014252  83.8908310  47.8531761  32.9849930
  84.4936752  48.3853951  32.4658127  83.0436096  48.2881279  32.8887062
  53.0939980  33.2467804  79.1649094  53.6369629  33.6750946  78.5031128
  52.9408188  32.3682671  78.8170776  28.6279163  66.5052414   9.0460186
  28.1102600  66.1801758   8.3094072  29.2606678  65.8084183   9.2200899
  78.0169449  50.2678337  62.1697311  78.6452332  50.4403877  61.4685059
  77.6029739  51.1150627  62.3342438   4.7199922  65.6162262  25.0706272
   5.2513556  66.4118652  25.0995560   5.1780901  65.0445404  24.4545460
   1.4934973  11.3671694  31.4352074   1.8132985  10.9421511  32.2310219
   1.9420720  10.9109888  30.7232304   7.3562531  21.0875301  63.6939392
   7.3945775  20.4632683  62.9693260   8.1430264  21.6228542  63.5907516
  11.7698307  41.1318169  76.2720490  11.2731581  40.3481216  76.0367432
  11.1470432  41.6735268  76.7567368  78.2120667  64.1085129  60.8423996
  77.6490555  63.4564323  61.2595901  78.3727264  64.7588348  61.5261459
  52.0381165  24.4019756  70.1769485  52.7075043  23.9909801  69.6299286
  52.4738731  24.5531540  71.0156937  13.8419352  51.3729134  58.2415771
  13.1145496  51.2288132  57.6362839  13.5360785  51.0121689  59.0737724
  12.7934008  67.6592407  52.4016380  12.6816158  68.6008606  52.2709656
  13.7256575  67.5526810  52.5907822  49.3145790  54.3061409  82.3122711
  49.4820251  55.2481232  82.3415756  48.7190361  54.1458511  83.0442963
   5.5907645  22.3103294   0.9425570   4.8520408  21.9618664   0.4434654
   5.5230513  21.8864307   1.7981015  58.1417084  31.1316185  56.4675064
  57.3988228  30.6394749  56.8170052  57.9439926  32.0445023  56.6767464
  80.2705154  26.3111610  41.1539955  81.1797028  26.0608349  41.3181686
  79.7729263  25.8721924  41.8438759  74.6940536  53.7757950  16.0247955
  75.1812897  53.2389259  15.3998070  73.8958054  54.0222740  15.5575895
  36.7548752  64.5476532  49.1384315  36.9439354  65.2168045  48.4806099
  37.2969360  63.8011131  48.8833427  39.8751717   6.1565137  71.7209702
  40.1876373   6.2093854  70.8177567  39.7479706   5.2205563  71.8760071
  73.6295166  43.5909119  27.2210636  73.7148895  43.8770752  28.1304874
  74.4586487  43.8400230  26.8127480  36.1957703  21.5768909  66.6882172
  36.2847939  21.8738270  67.5938339  35.5065994  20.9133816  66.7203674
  56.8242188   1.2082067   6.2844372  56.5752220   0.3177576   6.5320902
  57.7132530   1.1214044   5.9404659  56.2945099  42.6644096  74.4129868
  55.9139938  43.4006195  74.8919830  55.8073273  41.9004288  74.7215652
  11.1821947  14.5290823   6.2254305  12.0399027  14.3194065   6.5950313
  11.2481165  14.2713442   5.3059430  52.8471718   5.6555085  48.1171761
  52.4326553   6.5124278  48.2176590  53.7689514   5.8095980  48.3240814
  47.9732895  46.9599686  23.2674408  48.5459595  47.5493126  23.7583160
  48.5594063  46.5053406  22.6624489  50.7813873  15.8494759  26.3655567
  50.8982048  16.1280193  27.2738514  49.8762856  16.0819626  26.1582584
  45.0684471  21.2883854   1.5006931  45.0731354  20.3897285   1.1711055
  45.9440575  21.6206341   1.3028258  77.2706299  62.8681564  24.7866592
  77.2450714  63.2637405  25.6579170  76.4002304  62.4870071  24.6710491
   9.0570574  62.8847580  73.9694061   8.9281235  63.7069511  73.4965363
   8.5448599  62.2428017  73.4776993  84.1230087  51.4189453  60.8014679
  84.2354813  51.4799995  59.8528633  83.1976624  51.6165199  60.9461517
  79.0398941  20.8234158  39.8980255  78.4182510  21.5191078  39.6840134
  79.3122635  20.4759827  39.0487099  84.9685211  51.7007484  46.0194550
  84.0343857  51.7266350  45.8122063  85.2431259  50.8162956  45.7774429
  70.1992264  14.3264761   5.0463219  70.0073090  13.9467001   5.9037428
  70.9381714  14.9139719   5.2045541  81.7526169  70.8232727  46.7341080
  81.8574142  71.6813278  46.3230247  81.6431656  71.0156097  47.6653748
  28.7411213  18.5316238   2.3618293  28.1403484  18.8698959   1.6978450
  29.5583782  19.0060444   2.2093546   9.4779978   9.4889631  11.1371021
  10.2832479   9.6874599  10.6591864   9.6562815   8.6543646  11.5705662
  16.0905285  42.4189987  62.4396553  16.1891747  42.8153038  61.5739517
  16.8032341  42.7937012  62.9572258  71.9132156  39.2686081  87.5108948
  71.6332932  38.6874580  86.8036880  71.3503418  40.0381050  87.4255219
  47.8612480  41.3532677  62.2589951  48.1916122  40.9738503  63.0733261
  48.3624840  42.1615181  62.1506996  51.0257034  65.1439056  68.8421631
  50.8700638  64.3523788  68.3269119  50.5601616  64.9899597  69.6642303
  73.1765594  17.0065098  65.2896729  73.8038330  17.4279461  65.8771667
  73.3196106  17.4297123  64.4431076   4.0932994  59.3928375  75.7676849
   4.2858849  60.3303566  75.7817230   4.8743825  58.9935837  75.3846207
  56.0409317  55.0849800  26.7700214  56.6318092  55.5390587  26.1692677
  56.3727226  54.1876144  26.7997074  74.9230118   3.3930068  22.5439072
  74.7899551   4.3367662  22.4553280  75.7717133   3.2310722  22.1319466
  26.1131916  12.8959961  67.6300659  25.5326595  13.1303158  68.3541641
  25.5745678  13.0050077  66.8463364   0.7556702  55.0668907  48.4408722
   0.4689067  54.6802940  49.2682419   0.6585636  56.0102348  48.5709038
  72.6629791  58.4260368  16.1633873  72.5238190  57.6030083  16.6318836
  72.8918915  58.1591148  15.2731133   3.5303242  32.9352226  64.9032288
   3.0912399  33.6640625  65.3416672   3.0639558  32.1566658  65.2075119
  43.8642082  56.6184044  18.0000420  43.0260468  57.0083389  17.7517090
  43.6266365  55.8188705  18.4696579  21.6876240  27.5702438  62.8351097
  22.2837505  28.2306881  63.1882057  21.4453888  27.9036522  61.9711685
  19.4681377  57.2076302  47.4390411  20.0633068  56.6606560  46.9263802
  18.5995502  57.0100021  47.0887146  76.8745117  71.3122101   0.8712054
  77.7399521  71.6290283   1.1297774  76.8798294  70.3838272   1.1042649
  26.2137489  39.0784378  81.6140442  26.0458488  39.6324234  80.8517227
  26.1588135  39.6751137  82.3604965  84.1803436  70.1958084   8.7414150
  84.7377777  70.5149078   9.4511147  84.6647339  70.4065170   7.9431686
  72.8807449   4.1621995  47.5980873  73.6566849   4.5965648  47.2438736
  72.4739838   4.8204780  48.1615143  18.3204689  54.1386147  89.2326279
  17.4011154  53.9116631  89.3723221  18.4726601  53.9609718  88.3044510
  57.2379723  59.9908943   3.4408145  57.4094276  59.7181931   2.5394437
  56.3591690  59.6608200   3.6278596  12.2619686  16.7130241  80.8309479
  12.0587616  17.5903568  81.1553345  12.9624920  16.4019699  81.4043121
  77.7082825  56.5539169  27.1488838  78.2834778  56.6680031  26.3923359
  78.1345062  55.8764114  27.6738110  59.8219223  67.7761612  64.5478287
  59.6310654  68.5072250  65.1354904  60.7473869  67.8814850  64.3272476
  60.9523735   2.2812045  31.1896362  60.0826378   2.0414615  31.5095119
  61.4656410   2.4340160  31.9830074  76.6251221  25.6684761  20.5818596
  76.4984360  24.7248173  20.6802959  76.5344391  26.0161457  21.4690666
  65.9774628  21.6433582  62.9566307  65.7335510  22.0282307  62.1148415
  66.4800339  22.3288670  63.3967819  78.9368515  35.9127007  53.1343613
  78.1104660  36.2061310  53.5180473  79.2559052  35.2413521  53.7374611
   8.9762783   5.6032963  22.9419136   8.9966793   5.1157203  23.7653713
   9.4945660   5.0729585  22.3366432  20.1550026  69.2723007   7.4091387
  20.5921993  70.1219330   7.3523612  19.8397198  69.1053467   6.5209079
  52.6033821   6.8660121  55.1445580  53.2391624   6.3943782  54.6064339
  52.6425667   6.4323382  55.9969788  45.4519920  17.1030827  72.6919174
  45.4723434  18.0037460  72.3684616  44.8839951  16.6401825  72.0760117
  49.7948570  10.3321676  68.9518738  49.3449326  10.2579651  68.1102753
  50.5647087   9.7704515  68.8622437  38.9640846  33.2454109  73.5841751
  38.8511009  33.5870285  72.6971817  39.8922806  33.3792229  73.7759476
  35.0293007  14.8553028  71.7260437  35.8768654  14.9495564  72.1607590
  35.2466850  14.7261047  70.8028488  20.0893993  13.2180195  73.5136185
  19.3399239  13.7421007  73.2310257  20.3391495  12.7185354  72.7361984
   4.1491332  54.4965286  78.0056152   3.3427384  54.8683052  78.3630219
   4.5513282  54.0411568  78.7452850  24.6778126  19.8134575  88.4134598
  23.7917404  19.9227009  88.7586746  25.0387726  20.6998043  88.3953476
   6.3884168  37.5843735  35.6300888   5.5481153  37.2723846  35.2942467
   6.4904199  38.4559784  35.2478142   4.0184779   1.7468498  14.2751312
   4.3269606   2.1883624  13.4838428   4.1089544   0.8141832  14.0797367
  49.4997330  53.3545647  69.4709396  50.4060364  53.3505554  69.1629944
  48.9964142  53.6914940  68.7297363  84.8508072  61.4232559  59.9156494
  84.9013214  61.9020195  59.0883255  83.9300766  61.1728325  59.9916229
   3.3149297  20.4716797  54.0671806   3.7080171  21.3209572  54.2682838
   3.3378158  19.9946995  54.8967590  86.8120956   1.8487751  41.5075378
  85.8655777   1.9908900  41.4955559  86.9905319   1.4975570  42.3799133
  13.6919346  35.5682678  71.8359299  13.5008907  36.5007782  71.7351685
  13.9790640  35.4794350  72.7447205  19.1241760  13.1447344  59.0563660
  18.3846359  13.4611712  59.5751915  18.8069820  12.3351517  58.6561241
  25.0435143  24.8236103  69.1273193  24.6548691  25.6073551  68.7388229
  24.6816826  24.0988770  68.6173477  81.8471909  46.4915886  74.6089020
  82.1028290  46.2781715  73.7114944  80.8962021  46.3832207  74.6192398
  46.4507942   4.2629828  41.8332672  46.2942009   5.1910567  42.0075951
  47.3983536   4.1981864  41.7142715  71.7428055  51.3603935  76.3609619
  70.9513016  51.8458824  76.5934525  71.4419098  50.4615898  76.2273636
  61.1785927  54.9282722   1.5762600  60.7436562  55.1887512   2.3881779
  61.3250122  53.9874153   1.6741719  45.2368927  59.1225014  55.8675079
  45.5226440  58.2729912  56.2035332  45.2180023  59.0100899  54.9171181
  63.7644958  55.6489029  46.6752853  63.5921097  56.2860870  45.9820976
  64.0858841  56.1736717  47.4084702  33.0731087  47.7763634  25.8060169
  33.0155182  47.5664330  24.8738995  32.5138435  47.1272316  26.2327271
  82.6481934  16.7885761  65.2956619  83.4031601  16.3730869  65.7123413
  82.3505478  16.1498547  64.6478348  82.1018448  65.8606262  38.7817421
  82.4876251  65.6541290  39.6330719  81.3237000  66.3775101  38.9904366
  34.3589287  51.0186043  21.4381428  33.5815620  51.5651588  21.5530968
  35.0784187  51.6426163  21.3423653   1.4172238  16.1038990   8.5255861
   1.2124915  15.4766817   9.2190666   1.9472525  16.7738495   8.9574041
  58.2774887  61.3243446  37.5856819  58.5782280  62.1340485  37.1731644
  58.2584038  60.6853371  36.8732643  26.3431454  59.9881973  43.8022423
  26.8590221  59.2511864  44.1292229  26.1881924  60.5331116  44.5737915
   3.2743297   0.5254635  10.8743153   3.8303525   1.2262524  11.2148523
   3.4401212   0.5248792   9.9315825  10.9012804  68.0780258  73.1281891
  11.6344471  68.4593658  73.6111832  11.3106833  67.4725952  72.5100632
  71.4469147   7.5948915  66.1913223  72.0590057   7.8656511  66.8756180
  70.7582474   8.2594538  66.2093353  47.9695320  70.4981079   2.0450168
  48.2862511  71.3065186   1.6420310  47.2148666  70.2451248   1.5133134
   1.1886574  48.5870628  60.9243507   0.7266669  49.3086777  61.3510475
   2.1032948  48.8684006  60.9015617  32.9954910  53.1587524  51.9923973
  33.7697334  52.6165047  51.8415833  32.6403008  53.3176308  51.1178513
  52.4789505  16.8828583   0.2404252  52.5494156  17.8172760   0.4356975
  53.2502899  16.6907825  -0.2928443  51.8164253  70.7419662  37.3116989
  52.6415710  71.0945358  36.9784317  51.3892250  71.4885178  37.7316856
  57.9535179  49.1595688  11.7502871  56.9978981  49.1338196  11.7017107
  58.2288818  48.2713089  11.5235643  45.4777870  46.1344490  26.7796040
  45.0158005  45.4041481  27.1912575  45.6560593  45.8333855  25.8886414
  15.6486692  69.9232559   2.2817023  16.3645077  70.2254944   1.7227203
  14.9853859  70.6100388   2.2137728  44.4431076  43.8499336  41.7968140
  44.4382629  44.1148186  42.7166214  43.7765770  43.1651840  41.7412491
   2.0279579   2.1056437  65.9493561   1.9657340   3.0527737  65.8256378
   2.3010480   2.0005713  66.8607330  80.9200363  37.9270134  52.8652229
  80.2989731  37.2134628  53.0113792  80.3828964  38.6489868  52.5389214
  85.7147980  56.2329597  21.3161945  84.8834381  56.2379265  20.8418026
  85.4765167  56.4426079  22.2192459  68.8580399  18.9076538  18.0682697
  69.6751175  18.5665684  18.4319611  68.5411072  19.5242844  18.7282333
  79.9618301  10.5272646  64.2825241  79.8916550  10.7554274  63.3555679
  80.8997803  10.5685930  64.4690170  20.5243244   0.7606390  60.9270325
  21.0520458  -0.0344454  61.0017433  20.6413689   1.0413920  60.0194511
  13.2341509  15.9777584  69.6015320  12.2967243  16.0266438  69.7888107
  13.6399460  16.5393257  70.2619934  79.6557617  61.1467781  18.4157906
  79.2572708  60.3649712  18.7981720  79.8663940  61.7004128  19.1676884
  13.4840860  52.0613174   7.4799800  13.2195187  51.4873543   6.7610912
  12.7945900  51.9572563   8.1357231  29.4037609  59.7164268  67.2552414
  29.9900036  60.4505234  67.0717926  29.0829124  59.8818893  68.1417618
  79.8846512  24.8764343  38.7602730  79.2108994  24.2839470  39.0938110
  80.1197586  25.4195423  39.5125961  27.8904762  67.2773514  80.1962280
  28.4105816  66.5485611  80.5347366  27.6944523  67.0320358  79.2919998
  46.1734543  25.7723389  69.1837311  45.5645447  25.0497761  69.3365936
  46.4179230  26.0690689  70.0603256  81.1195908  69.2184601  84.4072037
  80.2724380  69.0611954  84.8241348  81.5800247  68.3822174  84.4774628
  57.3478813  53.6104050  69.8150330  58.0164833  53.2519188  70.3987274
  57.4799538  54.5577011  69.8527756  75.5643997   8.8282471  60.0050049
  75.1534271   8.2801409  60.6735191  75.1080322   8.6007118  59.1949501
  84.6920395  62.5878029  57.3518867  84.4095383  63.4546127  57.6435471
  84.1221008  62.3873787  56.6094398  15.6762495   8.6263838  23.6536198
  16.3333397   9.0017281  24.2397785  16.1385078   7.9264417  23.1925030
   6.7045817  32.9761238  49.7182045   7.3749003  33.6004448  49.9959183
   7.1633625  32.3793373  49.1269379   8.0711479  51.1875038  66.5084076
   8.6406507  51.9526558  66.5886536   8.2574987  50.6672134  67.2899475
  45.3293953   6.8428760  32.7581062  44.4337654   6.9755292  33.0687180
  45.8775558   7.0328674  33.5194588   2.4444287  36.4820061   3.7781963
   2.3765697  37.2880211   4.2900190   3.3290119  36.1609001   3.9532251
  56.2863235  20.4144058  52.8114166  56.1536369  19.7510948  52.1341858
  56.2027740  21.2485180  52.3493462   8.0040236  41.2187042  36.5870857
   7.8253713  40.6107750  37.3045349   7.6026258  42.0419769  36.8651772
  25.3730831  49.8769417  56.9663811  25.6033897  50.0415344  56.0519943
  24.7448235  49.1557465  56.9290504  85.9135666  10.2908754  77.6517181
  85.4004974  10.5150928  78.4280701  85.5494080  10.8397875  76.9572220
   4.0887537  55.2129021  35.6447029   3.6240416  55.1426964  36.4785767
   3.3949044  55.2806549  34.9887962  75.3796234  38.8103828  30.8840046
  75.0745316  38.0518341  31.3817577  76.2863693  38.6009407  30.6600075
  50.5858192  46.5995522  26.5619450  51.2421684  46.6541176  27.2565365
  49.8659668  46.1029701  26.9511089  57.7920723  43.7501831  80.2524948
  58.6192513  43.6453209  80.7226105  57.3087769  42.9444695  80.4354782
  30.4374104  60.3814507   8.9887953  29.7739429  59.7253227   9.2021866
  30.1655445  60.7295914   8.1396074  26.3551788  18.0019341   0.2158889
  25.8651562  18.8044605   0.0368276  25.7027626  17.3042068   0.1545387
  66.4502487  54.7074013  37.0819092  66.0024643  55.5077858  36.8078499
  66.5220947  54.7868538  38.0330963  52.2447777  11.0061779  85.7465210
  51.8426132  10.1570091  85.5637360  51.7235794  11.3688211  86.4628067
  80.8535995  17.6726112  83.7429047  81.2718658  17.8183460  84.5914612
  80.0366135  18.1691341  83.7901611  55.5616493  30.7481251  62.7623138
  55.2407646  30.4747429  63.6216888  54.7720757  30.8341656  62.2280846
  21.5563507   2.3283544  83.6711731  20.8691292   2.8749998  84.0521393
  22.0732250   2.9312184  83.1367340  10.8928242  42.5104675  73.5420990
  10.9630833  41.7952995  74.1744232  11.6825075  42.4350052  73.0064316
  40.5972061  25.0245342  10.1684418  40.7568436  24.8970909  11.1035919
  39.7499123  25.4680691  10.1283684  74.5241470  63.2096024  11.8840380
  73.5933533  63.1360054  12.0948677  74.9723129  63.0137901  12.7068605
  60.0095062  25.4936829   5.8935294  60.1292610  24.7694225   5.2792497
  59.3667107  26.0628624   5.4703484  12.5869579  21.6093369  24.5722752
  13.3087215  21.9196148  25.1191006  11.9291668  21.3016167  25.1958542
  43.0052605  50.0289726  12.0304146  43.4852066  50.1553879  11.2119398
  42.8581200  50.9151001  12.3611050  71.2194748  57.8576775  83.2779083
  71.3414383  56.9266548  83.4637833  70.8114090  57.8776436  82.4122772
  45.7181168  14.9277191  76.1048737  45.1309280  15.6809397  76.0408478
  46.5387459  15.2913465  76.4374008  84.7164688   8.7565088  20.4374466
  83.9058228   9.2340965  20.6134930  85.3859177   9.2311449  20.9301872
  36.7095985  41.5687599  62.3108788  37.1396446  40.7223740  62.4330406
  36.8878670  41.7985878  61.3989410  57.0271034  50.1550980  30.3359375
  56.8470306  49.6193886  31.1084766  57.8718834  50.5655212  30.5206909
  70.0665817  59.7820358  56.9632797  70.4157104  58.8975525  57.0729599
  70.7416687  60.2463531  56.4684067  37.8356934   8.3843117  18.1943321
  38.2468529   7.5201950  18.1723499  38.3594170   8.9141073  17.5932789
  45.4379883  59.1587868  51.0001450  44.6057892  58.9931335  51.4431267
  45.6971130  58.3062019  50.6505852  74.7531204  34.8707390   8.2020578
  73.9530334  34.8478813   7.6771131  75.0156097  33.9534264   8.2786674
  45.2800446  43.8183746  22.1877117  44.4765205  43.6025772  22.6610088
  45.0224342  43.8180618  21.2658291  18.5731983  69.6005249  10.7237234
  18.1264400  70.4470673  10.7249165  18.7074089  69.3992310  11.6498442
  76.8175201  13.4182329  23.3512230  77.6052246  13.6032143  22.8398228
  76.5162125  12.5690365  23.0282516  35.7632904  52.8631744  11.5562563
  34.8408051  52.6831818  11.3750010  36.0083389  53.5285263  10.9132233
  33.7925453  10.2834225  80.5848312  33.3201599  10.2544804  81.4168396
  33.4913216  11.0898552  80.1663055  19.9658337  61.0904274  14.4500561
  19.8335457  60.3535194  15.0464592  20.1285534  60.6835747  13.5990410
  22.3223572  40.1688004  67.2967224  22.0911312  40.7549438  68.0172806
  21.8514690  40.5206108  66.5412598  76.8120880  22.1405811  57.3186760
  77.0317612  21.7982693  56.4521866  77.6046600  22.0046368  57.8378944
  42.7936592  65.4584427  20.4463863  42.1940804  65.0521164  19.8205776
  43.6139488  65.5567780  19.9629707  23.8737736   6.3644600  18.2928028
  24.5053005   6.8842416  17.7955780  24.0372543   5.4621592  18.0182877
  -0.1842598  70.3633270  37.4751587   0.4361450  70.9266510  37.9377594
   0.3661202  69.7475281  36.9913177  60.0906639  61.7907410  11.0597715
  60.9182854  61.3518257  10.8632174  60.3460426  62.6709023  11.3360472
  60.7263489  53.3838425  40.5086975  60.4729500  54.1487465  41.0253677
  61.4926643  53.0320053  40.9616928  59.9830894  19.6824017  39.5469971
  59.7135925  18.8921204  40.0150337  60.9078064  19.5382042  39.3461456
   1.4639159  19.3321705  39.6770859   2.0530696  20.0865479  39.6703300
   0.7124780  19.6104336  39.1534996  25.4326401  41.5351486  69.0616150
  25.1220493  42.2957268  68.5704117  24.7146320  41.3264732  69.6592331
  52.2002335  12.2475681  19.2509937  51.7900581  11.4854012  19.6597614
  52.4219742  11.9549341  18.3670101  28.8847370  51.4608841  40.0498428
  29.0606575  50.6166611  39.6344299  29.7256718  51.9176674  40.0295525
  67.0743103  45.4251633  15.1688805  67.2826767  46.2185364  15.6622114
  67.2351151  44.7106934  15.7852478  49.6765480  36.7735214   6.3711686
  49.2086678  35.9471741   6.4914441  50.3307304  36.5827179   5.6989555
  16.9596901  38.0739975   2.6939692  16.2332630  37.4552727   2.6183832
  17.6606750  37.6854630   2.1706238  36.3284645  12.1125669   9.0086555
  36.5281296  12.9099941   8.5182734  36.1354446  11.4596491   8.3358450
  83.5882568  13.0958204  64.2091904  83.7533035  12.1862869  64.4576645
  84.0578384  13.6120739  64.8643265   5.7193942  67.2086182  11.9624872
   6.3125877  67.8386459  11.5533142   4.9344177  67.2282944  11.4150782
  44.6392403  55.6620216  39.4068756  44.2443352  55.7763748  38.5424652
  44.3852539  56.4471207  39.8919945  54.4964142  33.8624039  63.6627350
  54.3512077  34.6846428  63.1946869  54.4134750  33.1861916  62.9903603
   4.7484908  17.2516212  30.8341751   4.4244132  16.5433178  31.3905125
   4.4370770  18.0510998  31.2585411  83.6921768  53.7800522  76.9677582
  83.7606964  52.8434792  76.7823639  84.5977020  54.0684433  77.0821457
  57.7159348  11.5320358  88.7167816  57.4375992  12.0733347  89.4555359
  57.0798759  11.7224522  88.0272903  35.9342690  16.0762119  84.7355270
  36.5526962  16.0593910  85.4659348  35.4928589  15.2278233  84.7758484
   4.1895061  30.6480503  88.1797180   4.3379340  30.3846645  87.2715149
   3.7394774  31.4903259  88.1143341  21.8850288  44.3812637  16.1354198
  21.1969948  43.8182297  15.7806950  21.9499760  44.1288223  17.0564442
  18.7452984  48.2812042  22.1146412  18.0552502  48.9297829  21.9753094
  19.4512367  48.5527763  21.5280151  -0.0607419  35.4582977  48.2305260
  -0.1282691  36.0969086  48.9403496   0.4609455  34.7452049  48.5987244
  29.4028530  26.4448948   5.5883622  30.2826347  26.5165443   5.2181163
  29.2868824  27.2528496   6.0883551  41.9995613  15.5427809  74.4345856
  42.1118507  14.6494236  74.7594528  42.5919266  16.0691185  74.9715271
  68.3362350  23.7592220  75.9745636  68.2478180  23.2081528  76.7522125
  68.8340225  23.2236538  75.3568268  73.7317657  68.7114639  39.6514816
  74.3146820  69.3839417  39.2990341  72.9619064  69.1949310  39.9511642
  67.5102158  42.0995598  87.2423019  67.5683594  41.9360466  86.3009644
  66.6466751  41.7690811  87.4899063   9.3778486  40.7707939  28.0644360
  10.2329149  41.1979027  28.0127735   8.7643538  41.4207878  27.7218494
  83.4637222  50.8139839  42.5223694  83.1128922  51.5854950  42.0774803
  82.7108536  50.4370689  42.9777412  68.1300049  47.7296638  60.3265533
  68.8595047  47.5736427  60.9263153  68.5002441  47.5837402  59.4560013
  25.3812675  50.7044258  27.8465118  25.1720314  50.6071930  28.7754879
  25.0669365  51.5798492  27.6205521  15.0791826  64.7094650  21.2753468
  14.6424656  64.0342026  20.7561817  15.9852648  64.7001495  20.9668655
  39.4906693  55.7582207  24.2996063  40.2483597  56.3288918  24.1712627
  39.6450653  55.3422318  25.1477489  53.6214561  64.5382538  70.9878616
  54.3404732  65.1700668  70.9802170  52.8505440  65.0555267  71.2210007
  73.5139465  42.9760666  44.7718582  73.4798355  42.2152367  44.1920204
  74.3597260  42.9025230  45.2139893  22.9668217  16.1775284  15.3359880
  22.8551769  15.3465824  14.8741465  23.8038502  16.0877533  15.7915707
   0.2680214  27.5838833  81.4130783  -0.3346041  26.8838158  81.1621170
   0.3920590  27.4669476  82.3549728  61.8347511  55.9660759  27.8236103
  61.6461754  55.0297661  27.7604065  61.3227615  56.2632751  28.5757885
  77.1988831  19.6750317  27.6944771  77.2883987  20.6241531  27.6085224
  76.3189926  19.5486202  28.0495090  39.5148849  55.9365845  61.8872223
  39.6472893  55.4706078  62.7127914  39.8761864  55.3515205  61.2213478
  67.7037277   8.7627048  19.3935070  68.4747086   8.6984730  18.8298607
  67.3194122   9.6123962  19.1777363  52.8053970  36.6294594  17.1881657
  52.6175499  36.7435875  18.1197872  53.0680695  37.4997444  16.8884277
  56.7556000   9.4567595  80.6907501  57.4823532   9.4211082  81.3126755
  56.8899574   8.6989107  80.1216736  37.9003792  35.1790199  76.2665787
  37.4809151  36.0101776  76.0441666  37.3445320  34.5139771  75.8603897
  62.0738564  25.6454697  37.1295013  61.1167374  25.6576385  37.1270561
  62.3038025  25.0316753  37.8270798   0.4030135  50.4168282  20.1772041
   1.0377312  50.9046898  20.7019482  -0.0541588  49.8619690  20.8091507
  14.3912745  70.6089554  78.2771378  14.7191439  69.8658142  77.7707062
  13.5240879  70.3327713  78.5736847  15.2825861   4.8300877  36.2539711
  15.7022314   3.9735668  36.3346062  15.2699394   5.1755867  37.1465530
  26.0480461  22.0627613  88.4283981  26.7659721  21.7619286  87.8713379
  26.1694870  23.0105591  88.4846191  57.6875191  35.3250732  42.3893661
  57.0982056  36.0787773  42.3598480  57.3376884  34.7216873  41.7337952
  68.1126404  21.1158428  13.9118080  68.4308090  20.2958965  13.5340719
  68.7076950  21.2904453  14.6409559  68.9178391  11.3880796  47.8456993
  68.3746719  10.6210556  48.0270309  68.4311905  11.8742285  47.1800652
  46.6317520  45.2911987  15.1760521  46.8294182  44.4150124  14.8452044
  45.9673538  45.6296158  14.5758181  72.9411774   2.8300207   5.6860833
  73.0292282   2.5175300   6.5865436  73.7297821   3.3511565   5.5352201
  27.5443192  38.7032585   9.0070410  27.6546726  38.9851723   8.0989790
  28.4053879  38.8330688   9.4044571  34.0699654  22.2187767   2.4030707
  34.6707840  22.6011162   3.0426509  33.2186050  22.2252026   2.8405397
  61.7727890  61.2549706  74.3356171  62.5375900  61.5750771  73.8572388
  62.0003014  61.3733635  75.2578201  62.6539001   7.1835647  14.5209742
  63.3162422   7.8422008  14.7300978  62.5693398   6.6662240  15.3218737
  72.9425964  63.6191025  26.8717136  73.0830078  63.7844467  27.8040104
  72.2617569  64.2421875  26.6178398   6.8004246  38.6552544  60.6261139
   7.0870419  38.0620308  59.9317322   6.5076175  38.0763817  61.3299599
  76.0160980  65.7571869   1.9505011  76.4756775  65.8623657   2.7835414
  75.1686401  65.3822250   2.1901691  34.9049759  69.0909424  32.7694283
  35.4475288  69.8738861  32.8635788  35.1488457  68.5397110  33.5130005
  75.8033752  17.0260849  25.0446625  75.5466766  17.5064182  24.2575035
  76.7538986  17.1297646  25.0892067  17.6558304  58.6122971  65.1506882
  17.3992767  58.2290840  65.9894714  18.2942371  57.9963074  64.7912064
  23.3467274  28.7279453  19.4624958  22.9171696  29.4239769  19.9597416
  23.3171158  29.0290527  18.5543728  41.4175453  66.9996567  85.8913040
  42.0492554  66.3396912  86.1770020  40.9750519  67.2715607  86.6953506
  58.5834885  14.9177837  69.2116013  58.7656174  15.6782923  68.6596146
  58.4939919  15.2781134  70.0938644   1.6901581  19.2887516  48.3236237
   1.1710401  19.5187225  47.5529976   2.5709631  19.1349983  47.9818993
  18.7316685  60.0368843  62.4732628  18.8284206  59.0870667  62.4045677
  19.6100292  60.3796616  62.3082809  32.2556496  49.6487808  14.8768883
  32.9865189  49.1763382  15.2754660  31.9101658  50.1951561  15.5828266
  30.5764446  21.4565258  15.4407196  30.2027874  21.4155998  14.5604134
  29.8259449  21.3476028  16.0247746   1.1419410  27.5659771  50.6941948
   1.6330346  28.3814697  50.5940437   1.4465297  27.2035885  51.5261383
  80.0972977  12.2051134  51.0242081  80.1904755  13.0887289  50.6681557
  79.8586121  11.6667557  50.2696037  24.6430664  54.4806099  60.6700859
  24.1840286  53.9898720  59.9884033  24.5934334  53.9193420  61.4438744
  38.2977753  57.3769722  87.8246460  39.1527367  57.7066803  87.5479355
  37.7111588  58.1281013  87.7356644  58.9813004  68.8564377  75.8641891
  59.2469788  69.7151566  76.1931915  59.8048859  68.4096603  75.6684113
  54.6461258  70.1772690  12.8774452  54.9187050  70.8693848  12.2750263
  55.4298744  69.9856262  13.3924608  81.6806107  70.7954712  34.7376900
  81.4085617  70.9059906  33.8266449  81.1355286  70.0800858  35.0653229
  22.9340038  52.1840286   1.2043321  23.8098450  52.0691719   0.8356292
  22.5595837  52.9129486   0.7096415  15.9327040  32.8560219  85.3920746
  15.8533878  32.7782631  86.3428040  15.9141932  31.9528713  85.0755157
  43.2209625  38.9213829  38.4296455  42.7760773  39.3872375  37.7216301
  44.0741730  38.6880684  38.0638199  24.7087097  17.4860859  69.8721924
  25.2895145  17.2415047  70.5926590  24.3876801  18.3564072  70.1082230
  40.8900681  70.9445343  55.4060097  41.1519356  70.0373154  55.5629082
  40.7575951  71.3102570  56.2806129  11.6051645  68.5593262  22.8783264
  11.8723173  67.7491531  22.4441872  11.5592642  68.3298187  23.8064690
   1.2492797  68.8420334  76.3096161   1.0354511  69.5118332  76.9591446
   1.6902637  69.3209915  75.6079330  29.5103149  69.4556046  61.0639267
  28.9353313  69.6990891  61.7894211  30.0108070  70.2500534  60.8779488
  21.8811436  47.5804710  62.3052864  22.3727379  46.8330116  61.9648781
  22.1955471  48.3265343  61.7946281  17.2466164  42.5346184  40.0224152
  17.2328148  41.7675056  39.4500694  17.4871330  43.2595787  39.4455147
  15.5546970  51.6354790   9.2715816  16.3883228  52.0908508   9.1535254
  14.9433317  52.1038551   8.7031727  82.5133743  13.4896364  39.5735474
  82.3328476  13.8544607  38.7072067  82.7686310  14.2450504  40.1030998
  56.1587906  14.5690050  22.2969494  55.5325432  14.9040308  22.9386673
  55.6147614  14.1876955  21.6078453   5.4109616  44.7884636  69.1005096
   5.0140729  45.5762939  69.4720383   6.0022788  45.1151428  68.4223862
  52.3985481  64.5864182  81.6944122  51.7431908  65.0610962  81.1831207
  51.9138336  63.8637276  82.0931625  17.9626312  35.0077171  87.8933716
  18.4692173  35.7749329  87.6269455  18.5450363  34.2665443  87.7269440
  33.3872795  47.3281250  84.5532913  32.5361290  47.7655983  84.5335007
  33.3459473  46.6913681  83.8397980  72.5547256  24.5812855  30.2130089
  72.3368301  25.4908791  30.4164639  73.0509262  24.2780418  30.9733124
  34.5472031  41.9622078  66.8049240  34.8890915  42.2339020  67.6567001
  33.6218948  41.7776222  66.9660492   7.2601810  63.9370117  50.9869270
   8.0600157  63.8689346  51.5083313   6.6251030  63.3907928  51.4501228
  15.0134296  10.3056126  15.7913151  15.5591021  10.9007206  16.3054352
  14.3519850  10.8711872  15.3927574  79.1422501  10.2444715   8.8974285
  79.1353149   9.7771025   9.7327423  78.4277725   9.8507137   8.3967218
  46.7600250  36.1183510  12.2429152  45.9386215  36.6021652  12.3292332
  46.4943390  35.1993675  12.2095480  32.8454056  65.3797913  38.9947891
  33.0419350  64.8113556  39.7394218  32.2915230  66.0698395  39.3598595
  29.6785889  59.7234879  77.0432434  29.4935532  58.9103165  76.5734024
  28.9895096  60.3250999  76.7613449  72.6395645  50.7694092  48.7874184
  72.7378998  50.7038536  49.7372971  71.6946487  50.7258759  48.6408806
  47.5207367   8.9530325  75.5867157  47.1108704   8.8833370  74.7245178
  47.3601074   9.8574581  75.8558731  33.1019936  52.5237808  13.8688154
  32.1456070  52.5037537  13.8348093  33.3338242  51.8376160  14.4946432
  28.4830074  66.5586243  45.2911415  27.8768520  65.8178177  45.2868919
  28.4798355  66.8654938  46.1978111  25.3159027  25.6941757  57.6674423
  25.3940849  26.4679680  57.1094437  25.7944012  25.0109482  57.1978989
  27.3165970  60.5348892  65.4242020  27.9713192  59.9403763  65.7904358
  27.0914593  60.1506386  64.5769196   3.0422792  17.6212521  15.8145790
   3.0441604  17.0238571  15.0666838   2.8957763  18.4856129  15.4303274
   4.7691574  40.5525551  28.6561108   5.4171882  39.8549652  28.5578346
   4.1359792  40.2045517  29.2839737  66.5171890  39.7820396  75.8277664
  66.0547104  40.5785370  76.0884171  67.3898163  40.0835686  75.5751190
  62.7477722  12.6480875  21.7921867  62.8294601  13.5475311  21.4750748
  62.2108841  12.2093029  21.1322994  83.7873840  48.7340240   2.2520871
  83.9814758  49.4464645   2.8611743  82.9801788  48.3446732   2.5883315
  36.4713936  64.2817001  19.4844990  36.6347466  63.8129501  20.3029270
  37.3384552  64.3912811  19.0940781  62.9193344  39.5705910  30.7553482
  63.5249557  40.2003975  30.3644543  63.4827003  38.8738213  31.0920486
  67.3918304  52.1109047  62.0370712  66.8592682  51.5543518  62.6052780
  66.8230133  52.8511162  61.8254852  49.6161194  70.6149368  21.5245457
  48.8143845  71.1116180  21.3609447  49.8095474  70.7701111  22.4490662
  12.8721609  30.3264160  17.3599739  12.0071716  30.6695156  17.1356792
  12.7100306  29.4196987  17.6203766  43.8880196  71.9065247  39.5764465
  44.4205933  71.1133728  39.5171356  42.9848022  71.5897217  39.5679588
  51.6748238  71.4214935  72.2149887  52.1461220  71.3989716  73.0478134
  51.1595650  70.6148300  72.2094803  61.2287254  19.6243935  47.3306694
  60.9036331  20.2925777  46.7272797  60.5364761  19.5361137  47.9858246
  86.8869705   4.0317383  81.8706741  86.2155609   3.9816263  82.5510635
  86.4809875   4.5431252  81.1707535  35.8829536  52.7887459  50.5683899
  36.4227829  52.9648705  49.7978058  36.4939613  52.8323708  51.3039169
   1.1624460  65.2373734  19.1719532   1.9706215  65.4901581  19.6182499
   0.7179447  64.6583557  19.7911434  51.2170219   7.5429139  41.2088432
  50.5745697   7.1947560  40.5905571  52.0247803   7.0710983  41.0059929
  26.9986401  46.0016937  72.1683121  26.4160423  46.7478485  72.3099594
  27.6099300  46.0320168  72.9042664  22.7229042  15.8537025  55.8779869
  23.5479774  16.0909977  56.3012848  22.1937962  15.4749689  56.5800133
   4.5546303  21.6618519  25.1413250   4.1455698  20.8922348  24.7456093
   3.8491991  22.0814800  25.6337795  61.3378029  11.2471323  19.6430798
  61.6075249  10.5008402  20.1783657  60.4039078  11.3486176  19.8268452
  38.2491493   2.6599584  74.4804688  37.3481522   2.5682335  74.7903442
  38.5895119   1.7654421  74.4654846  55.2630577  43.9340210  53.5562782
  55.6476707  43.1041641  53.8384857  55.1068954  43.8191490  52.6189156
  64.7430115  10.8875065  44.4019127  64.7448883  11.5433922  45.0990791
  64.7138824  10.0487604  44.8622246  11.4008865  55.4248238   3.3739586
  12.0925503  55.9266586   3.8052287  10.5986624  55.9118919   3.5621951
  57.9379234   9.3274984  15.6478577  58.0691147   9.2480917  16.5926933
  58.5357056  10.0257940  15.3808937  29.3930626   7.6085706  65.9951019
  29.2564697   8.2638845  65.3108978  29.8216724   8.0881844  66.7039719
  46.9878654  56.4344254  25.2931118  46.2429733  56.4615326  24.6925850
  47.6483421  56.9911728  24.8807545  60.2881508  42.5672646  47.8199501
  61.2178726  42.4141388  47.6514091  59.8366852  41.9213028  47.2766800
  61.7059593  24.3301392  88.9722137  61.9307480  25.1318359  88.5000000
  61.3729706  23.7395458  88.2965240  76.1392212  14.8826599  48.6214142
  76.0992203  15.7752237  48.9648705  75.2297897  14.5840540  48.6239929
  23.1030331   1.2915062   9.2902040  22.5496941   2.0361202   9.5259991
  22.6211910   0.5262169   9.6038809  71.8815308  26.9851475  26.8769875
  71.8298187  27.6170673  26.1598854  71.6967697  27.4992104  27.6630116
   1.9876751  67.9292526  30.5793362   1.9763180  68.8701706  30.4038868
   2.8502185  67.7672577  30.9614468  78.3563004  12.3475542  77.9334106
  78.2268524  11.4618034  78.2724075  77.4886932  12.7496061  77.9763184
  61.1318741  20.0943680  67.1360703  61.5777817  19.2533646  67.2366409
  60.2697067  19.9567661  67.5284576  62.9191132   0.7419778  66.0715866
  63.4833336   1.1145027  65.3940048  62.6739006  -0.1188892  65.7324524
  80.7725677  30.0779991  24.1655197  81.6183624  30.4994411  24.3179741
  80.5773315  29.6284084  24.9877014  10.6490965  41.5886040   2.2063210
  10.6162939  41.1679535   3.0655122  10.8145361  42.5117531   2.3977690
   4.6031342  30.7832737  21.9588757   5.4846997  30.9729729  22.2799492
   4.2435241  30.1666050  22.5965519  19.3894711  42.0775223   3.8424187
  18.9554768  42.7116318   3.2716429  19.7286968  42.6014023   4.5681639
  78.6910172  24.6102543  50.7152328  77.8086624  24.9389439  50.8874054
  79.2304535  25.0006847  51.4028358  79.0235138  54.9689636  44.1957779
  78.4808197  55.2619476  43.4637413  79.8560410  54.7221947  43.7929955
  67.1330795  67.4233017  77.0175858  66.7238846  67.0040436  76.2606125
  66.8225250  66.9174271  77.7685089  80.0832901   8.0615854  23.2729797
  80.4889145   7.2929621  23.6741276  79.6296616   8.4971018  23.9946308
  80.3429413  63.6264839  66.9485474  79.4983063  63.8845367  67.3176422
  80.1186218  63.1245461  66.1649857   4.2942405  54.6084824  42.5127869
   3.7777355  54.3776932  43.2849197   3.8444924  55.3677216  42.1419525
  39.9810944  71.0419388  12.6249752  39.7729149  70.1232376  12.4550180
  40.8930283  71.1357727  12.3496513  62.5720787  27.3580818  15.0231009
  61.8312416  27.1076984  15.5750971  62.3364143  27.0453911  14.1496496
  37.4785194   7.6902165   3.4584053  37.1014748   8.5602913   3.3278704
  36.8174286   7.0888124   3.1156180  18.0707264  26.6610336  32.2951508
  18.8927174  27.1279812  32.1450691  17.4021454  27.3460312  32.2921486
  71.7815018  20.6133442  46.5536842  72.5352859  20.9257755  47.0541115
  71.8525009  21.0597286  45.7099228   0.6183745  49.1815453  58.2413788
   0.9740838  48.8504829  59.0660591   0.8603045  50.1076088  58.2307930
  13.6629114  60.6921883   6.6427250  13.1029453  59.9337769   6.8085170
  13.0686750  61.4416161   6.6810880   5.6418471  63.3213882  81.1368942
   5.7144852  62.5233803  81.6604767   5.0408421  63.8785019  81.6315155
  40.7882423  21.1424999  10.4341764  41.7398071  21.1159725  10.3339052
  40.4571419  20.5929089   9.7238579  31.6371975  69.1919174  67.9417038
  31.4361515  69.9006958  68.5528030  31.1082687  69.3856812  67.1678009
  86.2520828  16.8639965  27.6187630  86.9881058  16.5895519  28.1657391
  86.6466675  17.0674305  26.7707348   9.1756754   4.0573206  38.9748573
   8.9233923   3.9412851  39.8908920   9.8594093   4.7268109  38.9976921
   9.7548313  52.2153587  29.3968334  10.4982424  51.6133614  29.4310608
  10.1408119  53.0595589  29.1632156  29.0460911  70.0136948  34.9804802
  28.6570969  69.2975540  35.4825363  28.5008411  70.7733765  35.1849899
  15.3706913  31.2924900   1.7033423  15.7882595  31.6640396   2.4804013
  15.6365061  30.3729420   1.7051440  81.5259018  65.8409729  17.6217022
  81.4353638  66.1779556  18.5130386  81.7587128  66.6077957  17.0982361
  46.5765762  58.7318382  22.3713799  46.7068901  57.9643936  21.8143559
  45.8326797  58.5005569  22.9275799  79.4610291  52.1048660  82.6661987
  79.4398956  51.8656845  83.5927887  80.3724747  52.3468513  82.5020294
  58.5221901  47.5283470   8.7461863  58.5015755  47.0424423   9.5706272
  58.6235619  48.4429626   9.0096922  31.5634651  24.4739876  76.8430328
  32.2754707  24.7248459  76.2545242  31.6131096  25.1045818  77.5614471
  39.6374321  41.8842430  57.0769844  39.9305267  42.0772934  56.1864471
  39.0379639  41.1447563  56.9768219  36.5319366  14.6258554  11.6807556
  35.7444077  14.7175732  11.1444597  37.1217880  15.3074341  11.3586369
  54.7615814  12.7997093  74.1521378  55.3048859  12.7412262  74.9380341
  54.1464691  13.5090475  74.3384476  72.5690994   4.8144960  66.2648773
  73.2580338   4.4591975  65.7033081  72.7676468   5.7489133  66.3255081
  52.4662399  41.9561157  29.0157070  51.8920746  42.5782204  28.5689964
  52.3039246  42.1064949  29.9469795  84.9733887  46.6449165  12.6635809
  84.0474014  46.8873444  12.6609707  85.0638123  46.0367088  11.9300022
  45.0892181  68.7229996  42.9618988  44.3853531  69.0185623  42.3844452
  45.7620125  68.3896484  42.3682175  51.8569298  53.3678703  36.3825264
  51.9378319  54.2889633  36.6300583  52.4278717  52.9041977  36.9951172
  15.7115049  41.3562469  70.4826431  15.5081358  41.2689934  69.5513763
  16.0171585  42.2583542  70.5775604  78.0111542  20.2812138  64.5085678
  78.8021393  20.0470581  64.9941025  77.4641190  20.7377644  65.1477356
  73.9490662  16.4788685  86.8649902  74.1121140  16.5736141  87.8034286
  74.6622467  16.9622993  86.4479675  75.2311172  38.2810020  11.8006744
  75.2874985  39.1931610  12.0853138  75.6144638  37.7810822  12.5213394
  37.0729408  37.1309280  58.7267189  36.7783470  36.8665657  57.8551903
  37.9266129  36.7101669  58.8288498  48.4892349  19.9303894  23.6960201
  48.9229202  19.8042450  22.8520813  49.0326080  19.4478588  24.3190308
  17.3497276  44.2823029  26.7743092  17.0586853  43.8703957  27.5878563
  16.5545177  44.3595695  26.2471447  12.8779278  63.9084511  58.8628349
  12.9686823  62.9801254  58.6478806  11.9348660  64.0698471  58.8342133
  52.7592926  29.5524025  63.3114281  53.0755501  28.6779404  63.5384331
  51.8062019  29.4654617  63.2944031  28.4754925  29.4209175  71.9594650
  27.7529678  29.9108829  72.3520508  28.1542778  29.1742496  71.0921707
  70.1988831  55.9802513  33.3897552  70.8137741  56.7126579  33.4312325
  70.2873154  55.5449600  34.2376556  19.7369251  65.6146088  54.7633209
  20.0488129  65.9169312  53.9103508  20.2813206  64.8525314  54.9610519
  43.2628250  11.8449554  20.0003242  43.4142761  11.4463863  20.8573170
  44.1164017  11.8153028  19.5681686   0.3981100  32.2043495  74.8448105
  -0.1280936  31.7866840  75.5266495   1.0386357  32.7294960  75.3245773
  34.3447495  18.5950718  84.5458374  35.0088463  17.9072800  84.5921860
  34.7679977  19.3629456  84.9298477   6.3484492  36.2714882  41.8516083
   5.6406355  36.8936615  41.6838837   7.0880704  36.6080589  41.3457298
  81.9396133  25.6187973  23.9558640  82.5326920  26.1140785  23.3909016
  81.3643112  25.1527634  23.3491726  16.3665581  48.5382423  25.0916500
  16.5568504  47.8337784  24.4721737  16.1211815  49.2816925  24.5409164
  84.2539444   9.5145769  56.0880356  84.4811096  10.2013893  56.7148666
  84.9223633   8.8417158  56.2173004  83.8009949  35.1178207  82.0581436
  83.2785034  35.7149048  81.5226746  84.2913513  35.6912193  82.6472092
  20.0859375  27.2019405  87.6047974  20.4771214  27.5557537  88.4035568
  20.2435837  27.8748207  86.9425201   2.3074811  67.5210495  73.0548706
   2.8507519  68.2502060  73.3539047   1.4580655  67.9182968  72.8627319
  28.0862389  49.5980988  48.7810822  28.2847233  50.1141815  49.5624237
  28.9424095  49.3950424  48.4042892  29.3232861  28.8124638   6.9586296
  29.1668758  29.1438732   7.8429008  29.0259838  29.5168972   6.3827682
  45.8748741  26.2515068   9.6462288  46.6758690  26.2699203   9.1224928
  45.2993889  26.8908157   9.2263079  11.1603127   2.9966230  30.4264030
  11.5188179   2.3101013  30.9888897  11.1451082   2.6065493  29.5524216
   4.5857029  70.9365845  78.7508698   5.3804145  71.1819916  78.2771149
   4.5787849  69.9796906  78.7275085  13.5717745   8.7552814  19.5573559
  13.6187506   8.2696590  20.3808823  13.5565453   9.6749935  19.8221779
  22.6702175  56.9782333  21.8748245  21.8167267  57.0938911  21.4572010
  23.2094021  56.5572548  21.2052822   2.6064148  30.7130508  66.3531647
   2.8975694  31.5223236  66.7733307   1.7239554  30.5696945  66.6951370
  29.8899746  66.9653549  26.6757298  30.0075760  67.7914886  27.1446762
  29.0671177  67.0754395  26.1992645  85.1277924  47.9413910  29.2079124
  86.0544662  48.0357437  29.4283791  84.6817398  48.5723457  29.7728615
  24.3086090  45.1491280  21.3382320  23.9403152  44.2692261  21.4180202
  24.3511238  45.4734573  22.2378063  25.3387794  25.0629063  74.4332504
  24.4067745  25.1477699  74.6342392  25.3614349  24.7601433  73.5254745
   8.8139677  17.3413067  17.6651878   8.1613703  16.6470699  17.5736275
   8.5157681  17.8526459  18.4174118  14.7382898  68.7940216  35.1470680
  15.1730242  69.1596069  35.9175148  14.6409006  67.8628616  35.3462982
  52.7938347  29.5663986  54.5793228  52.3869362  29.2220421  55.3743591
  53.7317696  29.4279709  54.7110367  62.3380165  46.6209106  26.0713081
  62.0613861  46.6053352  25.1550846  61.5237961  46.5440788  26.5686722
  77.9833755  50.6315956  42.4574547  77.3027954  51.3039398  42.4259033
  77.6253738  49.9552040  43.0323982  45.9848709  45.0858650  82.5644455
  45.8789520  45.1204948  83.5151367  45.0903206  45.0700874  82.2242050
  48.5242043  60.9564400  83.6875000  47.8824310  60.7685509  83.0026245
  48.7826614  60.0954285  84.0162582   1.6325334  52.0189896  58.2823257
   1.8594846  52.8811646  57.9339256   2.2868476  51.8553047  58.9615250
  73.1421356  63.7976723   7.3719258  73.7785797  63.1478806   7.0736976
  72.7063828  63.3821716   8.1160440  17.9484463  12.6806107  86.5408325
  18.6870003  12.0901003  86.3922882  18.2957516  13.5516043  86.3485336
  20.9901505  71.2677917  42.0013771  20.8783894  70.7899780  42.8232269
  21.6745472  71.9101715  42.1889610  36.0938110  25.8852367  80.6235733
  35.3372765  26.4508476  80.7783966  35.7789116  25.0038300  80.8240509
  32.5489769  45.5808220  41.7108383  32.6903725  46.5000725  41.4845276
  32.6182518  45.1155357  40.8772087  21.9661350   6.7058277  65.4191742
  21.2765274   6.0935445  65.6756592  22.7122765   6.4709959  65.9708633
  65.0814743   6.6936393  64.7036896  64.4031982   6.7400150  64.0298767
  65.8374176   7.1321216  64.3131638  22.0058746  38.9739571   9.7673855
  21.8420391  39.3759232  10.6205053  22.8630180  39.3097038   9.5050659
  68.3376465   4.0637460  40.7744331  67.9606781   4.7131019  40.1807480
  68.2484055   3.2325733  40.3081512  36.5234451  55.7389641  25.8657780
  37.3034401  56.2805672  25.7453403  36.1666603  56.0170784  26.7093353
  76.1116791  51.5036774  38.1305885  76.5600052  51.9746246  37.4281311
  75.2232895  51.8600426  38.1288910  53.1137238  14.9377432  28.1719055
  52.4013252  14.9390354  27.5325985  53.7848816  15.4990978  27.7837543
  42.4479599  70.5746994  11.3692808  42.9897842  70.9329605  12.0723543
  42.9472809  69.8278351  11.0389690  51.5372963  44.1053047  54.3843803
  52.0637321  44.4189224  53.6490288  51.9614334  44.4764404  55.1580696
  64.9164734  49.4978333   9.9478073  64.9457016  49.1663208   9.0503235
  65.8228607  49.7334633  10.1457367  49.4186249  28.6997585  69.8905029
  50.0454254  28.3676395  70.5331955  49.9574547  29.1553059  69.2436905
  57.0574875  43.5074768  83.4178085  57.3154411  42.6012306  83.2492523
  57.8436089  43.9170265  83.7790680  52.6842690   6.6072598  69.8646851
  53.1842537   6.0496349  69.2686081  52.9821281   6.3521070  70.7378464
  64.1527863  69.7044907  13.0242596  63.9067078  69.1881256  13.7917519
  63.4821777  69.4996185  12.3726921  73.8253479  40.2013092  54.2277946
  74.2297516  40.6973038  54.9396095  72.9202805  40.0709038  54.5107803
   9.2714701  19.0073967  27.5149803   8.4249516  19.4405117  27.4052105
   9.2958403  18.3495750  26.8200626  23.6894016  39.7713203  71.3850937
  23.3283844  39.8947678  72.2629700  23.0235062  40.1316185  70.7994308
  50.9436569  22.8380127  24.2264023  51.2026215  22.0079670  23.8261585
  51.3252831  23.5072193  23.6582851  62.9381065  37.7753716  86.2658844
  62.5191231  38.5781250  86.5761642  62.2416992  37.3023834  85.8103256
  61.8996620  43.1716728  35.7191620  62.5508232  43.3378906  36.4007721
  62.0796738  42.2774811  35.4289017  71.6077881  24.8005695  41.8738518
  71.1651840  25.5031700  41.3977394  71.3268280  24.9126740  42.7819939
  10.6928244  44.6253052   3.4157555  11.3247261  44.2325516   4.0179815
  10.9023294  45.5592575   3.4243338  57.4234772   8.3763857  46.5097275
  56.6952171   8.6661110  45.9602470  57.7897453   9.1849737  46.8678703
  85.5246429  39.6215591  10.2323561  85.6528015  38.8823547  10.8268185
  84.6326828  39.5119896   9.9027462  56.3259392  63.8388748  40.4969902
  56.4076538  62.8973160  40.3452492  56.4443741  64.2319946  39.6323166
  84.4780502  40.5563354  80.2961884  84.0404892  40.5086174  81.1461868
  85.0084686  41.3516884  80.3441620  39.9665794  65.5279922   9.1527166
  39.2112541  65.4084778   9.7284184  39.6351357  65.3261108   8.2777195
  53.5332718  27.7601490  79.3870163  52.7187576  27.6475964  79.8770523
  54.2215004  27.5234776  80.0087585  15.6458778  54.9609184  83.3644333
  15.0901041  54.2722206  82.9996796  15.0408583  55.6741104  83.5682449
  47.8693352  63.2234497  11.1640186  48.1039658  63.0749054  12.0800514
  48.3641968  64.0035706  10.9134951  22.3624668  64.9234085  18.6012135
  21.7574730  64.9093781  17.8595810  22.9848957  65.6190872  18.3894310
  42.2929802  11.7433338  15.2650127  41.7137566  12.4183073  14.9112606
  43.1062164  12.2066526  15.4655533  19.1506939  53.8047028  56.9504623
  19.4454403  54.2246323  56.1423683  18.2217236  53.6271591  56.8030701
  43.3218079  55.8042641   3.0980132  43.3789978  55.3119011   2.2791488
  43.6606064  56.6724548   2.8796272  48.6051025   8.5721693  61.6473961
  48.0602379   8.4510450  62.4250107  48.1986351   9.3029480  61.1815910
  71.3024979  69.5330276  63.7754936  72.2344894  69.3879166  63.9384460
  70.9127884  68.6598816  63.8199234  70.0982819   5.3791251  45.3462906
  69.9882889   4.8063617  46.1052856  69.4836960   5.0370841  44.6970482
   4.0103426  26.8130798  54.4772415   4.8652039  26.7451649  54.0519981
   4.0522923  27.6327515  54.9697952  50.4344902  32.4121513  62.1797981
  50.0145226  32.3765030  63.0392075  50.0930939  33.2117348  61.7793694
  46.7314415  54.7301445  22.3029785  46.7925301  55.4371071  21.6605587
  45.8310890  54.4142799  22.2266350  73.8083649  49.3839531  76.7936935
  73.0090103  49.2908020  76.2754517  74.5148315  49.1667709  76.1854401
  16.3137798  66.2396927  41.1084862  17.1610928  66.6652679  40.9773941
  15.9713240  66.1103745  40.2240448  12.6628027  30.9530678  11.9921446
  12.3764439  30.1132164  11.6331472  12.9049292  30.7566452  12.8971443
  84.5334167  11.8616295   4.5210519  84.9779129  11.8490772   3.6734090
  84.6912918  12.7422886   4.8612680  83.6773682   5.4765959   0.8060233
  84.0024338   5.6511221   1.6892574  83.4202652   4.5547304   0.8232369
  49.0288811  64.6211777  71.1054077  48.2908554  64.0435638  71.3000946
  48.6484146  65.3288651  70.5851669  73.3749008  42.4683990   0.5174625
  73.5415573  41.5719376   0.2262260  73.9809341  42.5999184   1.2466161
  74.9659195  47.8491936  80.6298828  75.3317566  46.9667358  80.5693436
  75.7266083  48.4279022  80.5781174   9.7115526  48.3312187  83.7744446
   9.8588381  47.3898964  83.8663864   8.8159847  48.4023781  83.4441071
  76.8343353  18.6841850  45.0459824  76.9764404  17.8091145  45.4069405
  76.7853622  19.2546368  45.8130646  82.1300430  38.7112236  88.0558624
  81.8372650  39.4287224  87.4939804  81.5631790  37.9765282  87.8210907
   3.0978668  67.0343552  50.8314133   2.3059835  67.1236877  51.3616676
   2.9261942  67.5647659  50.0533218  38.2091255  27.1955700  79.7938843
  38.9011803  26.7346668  79.3196869  37.5196648  26.5413036  79.9070740
  41.2650452  66.0891647  77.3649750  41.1346245  66.8066101  76.7449036
  41.8581581  66.4479446  78.0250702  75.2384720  61.5527534  29.3812256
  74.5586319  61.8825226  29.9688492  76.0609818  61.7932129  29.8077183
  46.1376076   1.5647035  40.9418716  45.4110107   1.2236828  40.4203415
  45.7926521   2.3643057  41.3392067  71.4206543  55.5336647  88.4911728
  70.7493515  55.6936417  89.1544952  72.1955948  55.2779388  88.9914932
  56.7176552  68.2398453  20.3802261  56.8404427  68.8249130  19.6326637
  56.5932846  68.8269272  21.1259460  17.7559547  23.6702900   1.6353322
  18.5030575  24.2297878   1.4231275  17.4664402  23.3265743   0.7901852
   6.2159882  23.8032761  76.5673447   6.8691072  23.3697224  76.0180740
   6.6909776  24.0374241  77.3647079  47.0485687  38.3747253  78.3849411
  46.3668060  38.8792992  78.8286057  47.5472069  39.0268936  77.8927383
  71.4685440  34.8648911  20.3031960  71.5572128  35.7241249  20.7156143
  71.7923203  34.9926453  19.4115257  36.6971054  47.4497643  69.4097977
  37.4049072  46.8259544  69.2482071  36.8210411  48.1295052  68.7473602
  58.6548767   2.8734660  80.5679474  58.3009186   3.6949022  80.9088135
  59.5023727   3.1147025  80.1940689  71.3037796  14.1019526  33.9923668
  70.4327774  14.2138748  34.3732338  71.9059296  14.3355236  34.6988297
  37.0082588  64.9639740  26.8647041  37.3670578  65.5314789  27.5469322
  36.1493111  64.7033844  27.1971684  23.9587898  55.2539597  14.9788437
  24.1736164  55.6339798  14.1269836  24.4162769  54.4132156  14.9882832
  75.6964645  46.3543282  47.9136848  76.0891953  46.9441605  48.5571861
  74.7532806  46.4472275  48.0478897  69.1967545  66.3131866  60.6829300
  68.2613373  66.4197693  60.8557472  69.4779510  67.1663055  60.3522301
  39.6035385  36.0255280  82.4170380  38.8874207  36.6584892  82.4696274
  40.2942352  36.3992920  82.9642792  37.1654320  53.0322952  54.6273232
  36.4675255  52.7122726  54.0557022  37.0606956  53.9837379  54.6236038
  41.5428696  71.4190292  23.0435963  41.6562042  70.8517303  23.8061981
  40.6171494  71.3323746  22.8160858  71.2351456  23.8052025  71.9077454
  71.3788223  24.6112347  72.4036255  71.8646088  23.8512993  71.1881104
  86.9099045  51.7872200  42.6194611  86.2291260  52.4411278  42.4607811
  86.5139847  51.1749039  43.2395744  79.2561035  68.9983444  39.1955452
  80.0347900  69.0460358  39.7501678  78.7566605  69.7846527  39.4157906
  80.0552902  32.2508774  22.9277496  80.1876755  31.3351517  23.1730080
  79.1916733  32.2658997  22.5152245  57.4740906   6.4957342  64.2894669
  56.5653191   6.2711453  64.4892807  57.7827835   5.7768288  63.7379990
  20.4402008  24.9070225  21.7221813  20.2076168  25.6876259  21.2193966
  21.3791714  24.9976521  21.8845100  16.5167675  37.6665077  85.3186417
  16.3766937  37.9365463  84.4110718  16.8789330  36.7829399  85.2524567
  56.5637817  65.6009216  19.7030144  55.7719116  65.4722366  19.1808910
  56.6008911  66.5455704  19.8530083  73.1628113  12.5813751  76.1423035
  73.8728333  11.9448280  76.0592041  72.9165497  12.7846498  75.2399445
  77.1982269  69.3201447   8.2187443  77.5578918  69.0478973   9.0629902
  76.8911057  68.5078812   7.8160882  34.0897560  67.5846329  46.6801682
  34.1422653  66.6727676  46.9664803  34.6553917  68.0597610  47.2888947
  19.5630646  24.1343288  10.8209791  18.8770828  24.6139374  11.2853470
  19.7683048  24.6828976  10.0638914  55.3487549  63.3936310   9.8936510
  55.0180511  63.1933174   9.0180149  54.5669060  63.6122780  10.4007397
  43.8912621  55.3786888  24.9794598  44.5496140  55.5090446  25.6619625
  43.7951660  54.4283257  24.9177647  30.7303276   0.4224267  33.5663643
  30.8293438  -0.4525279  33.9417076  31.6020355   0.6420361  33.2375298
  48.9080582  19.3950596  19.1130295  49.4342613  19.4612160  18.3161831
  49.4989357  19.6707172  19.8138199  22.6094379  44.9506874   7.7343631
  23.0931606  45.4693222   8.3772192  22.8780918  44.0477676   7.9040294
  72.7274323  12.4796190  61.2297935  72.8661499  12.1477757  62.1168480
  73.1732788  13.3265696  61.2184563  71.4591370   2.9533889  55.7272301
  71.2764435   3.4612806  56.5177345  72.2459412   2.4519970  55.9411926
  50.0409660   0.8584684  67.5032654  49.3940392   0.8978209  66.7988739
  49.5789375   0.4400761  68.2296982   7.3337803  60.0172424  83.3586121
   6.5340209  59.5004463  83.4562836   7.3419423  60.5927734  84.1234207
  18.0381737  42.7427101   9.0736122  18.5326672  42.7635689   8.2543011
  17.9459305  41.8112869   9.2740479  22.1176968  -0.0358722  19.4369030
  22.6387959   0.7670138  19.4290676  22.7277851  -0.7145665  19.7256927
  64.2208023   1.3627775  19.6803226  63.7726479   1.7584387  20.4278812
  64.0489655   0.4251164  19.7669086  18.2618561   2.2200377  73.4748306
  18.6609631   1.3920333  73.7419586  17.4838963   2.2999914  74.0267563
  28.7804756  48.4070320  18.1203537  29.1926556  48.6616783  18.9458809
  29.5136929  48.2375526  17.5288277  54.1473351  53.4597664  16.7559071
  53.4714355  53.1053810  17.3336639  54.9611740  53.3595772  17.2497272
  64.2360077  10.3587770  71.8665009  64.9510803  10.0950394  71.2874146
  63.5390663  10.6400290  71.2737122  48.7060623  16.0857544  70.8301392
  47.8562508  15.6587715  70.7217789  48.8095093  16.1763878  71.7774124
  27.8019962   1.2512927  76.5580597  26.8467922   1.2102448  76.6042252
  28.0992355   0.5049162  77.0784454  24.0403576  19.1624870  14.0421486
  23.9903908  20.0608635  14.3687296  23.3269119  18.7056408  14.4877024
  20.7313557   2.1828094  58.2103081  20.9721260   1.8675640  57.3391685
  20.2767258   3.0094986  58.0486679  80.4737015  28.6234131  26.8746338
  81.0850067  28.3017120  27.5372372  80.4082108  29.5630093  27.0452366
  40.1006660  20.1458378   8.1660900  40.2296295  19.2845879   7.7687888
  39.2060509  20.3883095   7.9271207  52.7968369  29.0774441  82.2801361
  53.5978432  29.3192539  81.8152237  52.5098228  28.2678776  81.8576889
  34.0000038  61.4743271  83.4567413  34.7057419  60.9038734  83.7612839
  33.7686195  61.1295280  82.5942917  28.8804684  32.5659447  15.2871904
  28.6650658  33.4180641  14.9080801  28.5178452  31.9305916  14.6698866
  85.8013840  41.6107635   1.1389778  84.9801941  42.0702515   1.3143328
  86.1592636  41.4204826   2.0061264   5.0376558  13.3485775  17.2373333
   5.8412142  12.8430700  17.1149063   4.5509524  12.8665209  17.9058933
  28.9963417  59.6261253  40.9534492  28.0944157  59.8240128  41.2056427
  29.0651989  58.6750603  41.0369034  11.9554510  44.5859337  83.1584167
  12.3630056  45.3218384  83.6151199  11.7240639  44.9363670  82.2982483
  74.0303497  56.9750099  60.9931068  74.2248230  56.6711998  60.1064796
  73.0912399  56.8223495  61.0980072  83.2470398   1.1966962  62.7637100
  84.0810547   1.4203256  62.3506279  82.7092285   0.8564922  62.0486946
  65.7579575  35.1553726  31.5260410  66.1117706  36.0284615  31.3564568
  66.3026810  34.8093529  32.2329941   2.2031617  65.5450516  70.6407852
   2.9048214  66.1087341  70.3149414   1.8970376  65.9795685  71.4368515
  28.6384392  51.9741211  23.2040806  29.5940819  51.9526291  23.1539326
  28.3856125  52.7076340  22.6434822  61.2386360   7.6640048  52.5171814
  60.9245033   8.5647840  52.5955925  61.2704697   7.3421721  53.4180946
  69.4459991  24.5522175  66.0022659  68.6758118  24.4308491  66.5575256
  69.7498474  23.6637096  65.8166275  33.1848907   3.9078956  83.6469040
  33.0288277   3.8706391  82.7032471  32.7351837   4.7030311  83.9328308
  84.2249832  14.6710215  25.2870140  84.4216156  14.8571854  24.3689117
  84.9723511  14.1568909  25.5925369  71.4020920  64.0799332  39.8161201
  71.6178284  64.2578659  40.7315598  72.2407608  64.1327057  39.3577766
  32.3243179  57.4342194  21.3546944  31.7431583  57.0384026  20.7052193
  33.0952415  57.7021408  20.8545704  41.3724213  59.8982201  51.1979408
  41.1613503  60.1981583  50.3137932  41.2978477  58.9450493  51.1516914
  63.8398857  54.0784569  64.7333527  63.8806915  55.0340233  64.7715454
  62.9318428  53.8685837  64.9516296   7.6512408  68.1222610  64.9598465
   8.1986971  68.0232468  64.1809235   8.2062969  68.5883865  65.5850449
  14.4878969  53.8160057  23.8275509  14.9323120  54.3599014  23.1772366
  13.6446800  53.6044960  23.4269505  16.9882984  50.5375366  22.1201611
  16.5614071  49.8570480  21.5996475  16.2659760  51.0197601  22.5225830
  82.5041275  67.9425354  15.9045382  82.1844559  68.7105637  15.4310637
  83.3944855  68.1763535  16.1668968  58.1921120  28.7419796  63.1542549
  58.2633781  29.0342617  62.2455635  57.2542534  28.7733936  63.3431015
   5.0766530  25.1696167  79.2476654   4.7156434  25.7836151  78.6082001
   5.9809866  25.0335541  78.9649963  17.1581841  55.1491547  86.2920914
  16.5902233  54.3836899  86.3799210  16.8894730  55.5533829  85.4670868
  69.2002487  48.6464195  64.0238037  68.4521790  48.0971413  63.7894592
  69.7612076  48.6306686  63.2483635  16.7808685  59.4088326  68.9264984
  17.2505569  60.2426720  68.9081573  16.5436821  59.2877159  69.8459015
  45.0461884  57.3908119   8.1254215  45.5948715  58.1745796   8.1552019
  45.4098549  56.8709488   7.4086804  22.3422241  59.3729019  13.4783611
  21.9648991  58.5884018  13.0803490  22.9279537  59.0387573  14.1577005
  39.6284866  37.7766953  79.9654846  39.6494637  38.6520576  80.3521881
  40.5022621  37.4216652  80.1288910  79.4821548  35.5540237  76.6662292
  80.0200577  36.1488495  76.1436615  80.0844345  35.1977310  77.3193359
  21.1912422  65.4911880  20.9285927  21.1339931  66.4305573  20.7538300
  21.6876907  65.1398697  20.1894398  11.0961637   1.7565075   9.0679131
  10.9092236   0.8976870   9.4470072  11.9563351   1.9902208   9.4167900
  35.4485207  61.7201233  42.5422211  34.5129433  61.6651840  42.3475113
  35.8712578  61.7372360  41.6835976  58.3284874  45.4136353  51.5929108
  58.8731270  44.7728844  51.1357040  57.7516594  45.7650795  50.9146843
  70.3140793  61.4233475  73.1234055  69.6526871  60.9053841  73.5822144
  71.1482010  61.0361443  73.3890228  56.3086929  36.2573128  31.9555187
  55.5612373  36.3278694  32.5492859  57.0740089  36.2816887  32.5299149
   7.0747514   6.0905032  11.4173470   7.6421881   6.3501339  10.6915102
   7.1647859   6.7973862  12.0564413  48.4910431  60.1531067  20.9270306
  49.1927490  60.3194885  21.5564423  47.7425804  59.8955917  21.4652882
  73.8693237  37.3275108   2.5740969  74.6552658  37.8256187   2.3495703
  73.6588745  37.6016655   3.4667225  37.3793907  61.8057289  16.4107285
  37.6260490  62.6614761  16.0598927  38.2117271  61.3513451  16.5410557
  65.0025101  41.2682037  87.7937927  65.1642990  40.3252373  87.7643051
  64.7579727  41.4409485  88.7029572  10.4604731  56.6286430   0.6384349
  10.7133579  57.4614716   1.0367814  11.2889118  56.2273331   0.3760023
  65.5856323  61.2322159  74.8028564  66.3191605  60.6369247  74.6485825
  65.0322800  60.7719536  75.4338837   3.7311919  35.6465225   9.5923500
   3.2714591  34.8261185   9.4139795   4.3397932  35.7441483   8.8600216
  57.4338493  50.2534027  42.1341782  57.7644119  49.5112877  42.6403656
  58.2113609  50.6235733  41.7162247  34.2866821  57.1362839  80.2643433
  33.3973694  57.4839134  80.3314896  34.1953049  56.3457756  79.7323837
   4.4861479  49.2477989  82.3203049   4.5313754  49.8226509  83.0843277
   3.7745993  48.6394958  82.5200424  80.6466827  18.0137825  17.3031006
  80.3412781  17.2244892  17.7502823  79.9420319  18.6490021  17.4303570
  33.9205704  19.5501251  66.7838669  33.1988792  18.9251900  66.8534851
  33.4957848  20.3861465  66.5918808  38.4491653  71.1751099   5.9531832
  38.7323799  71.7884750   6.6312728  37.5035248  71.3088531   5.8890681
  46.0770645  17.9777069   5.4501047  45.5195351  17.2328281   5.6749272
  45.5836296  18.4530735   4.7816868  35.4020653  34.4091339   7.6834230
  35.8502274  35.0452080   8.2409124  35.8316193  33.5760193   7.8774180
  62.6404953  28.4273319  64.0673981  61.8850517  28.7844296  64.5343170
  62.6464882  27.4980450  64.2967911  13.3101797  64.2216110  16.6179028
  13.5796833  64.9864044  17.1265202  13.5227633  64.4489212  15.7127113
  27.4019756  47.5688133  41.7660713  27.2716923  47.7834969  42.6897430
  28.2910519  47.2165337  41.7251472  11.0931997  38.6662521  49.2490311
  12.0257874  38.8816185  49.2603798  11.0556984  37.7835350  48.8807449
  85.1235199  24.0123005  26.8000278  85.5079956  24.3659668  27.6021080
  84.2215347  24.3326645  26.8052998  35.9484978  57.2292480  28.1134529
  36.0267982  56.3618469  28.5105877  35.3122864  57.6875114  28.6625080
  80.5613861  22.9867401  35.3903961  80.9864731  22.9272518  34.5348320
  79.7029266  22.5839520  35.2598419  50.6863670  14.9030142   8.1059399
  50.3999023  15.8009272   7.9388390  51.5681229  14.8601398   7.7359405
  13.0909300  65.7460709   4.8329749  12.3006554  66.2590714   4.6640849
  13.7883701  66.2268143   4.3872299  23.7035389  71.7326202   1.4041117
  23.3628521  71.6280746   2.2924998  23.8546505  70.8381195   1.0987273
   6.5022354  26.2393646  63.5835915   5.5735002  26.0077114  63.5792007
   6.5425496  27.0580387  64.0779419  73.6869354  41.2899513  18.7704926
  73.6248932  40.9568214  19.6657047  74.4916916  40.9026871  18.4260597
  78.2752380  68.9987717  63.6784973  78.6400909  69.8041229  64.0452728
  77.5943756  69.2971802  63.0754929  26.6436577  64.0496979  54.9852486
  26.7992649  64.8182449  54.4362946  25.8343163  64.2508469  55.4550743
  10.9545364  43.1936111  80.0645599  11.5000553  43.9604263  80.2395859
  11.4142113  42.4703064  80.4908981   9.6864986  38.3623734   2.8462901
   9.5833464  38.2925148   1.8972318   9.5061235  37.4806824   3.1723590
  77.0777512  55.7818718  30.8819485  77.3780899  54.9868927  31.3224506
  76.4467850  55.4719162  30.2323074  11.7162666   1.2962132  57.9492416
  11.2601471   2.1159172  58.1396942  12.0324802   0.9946108  58.8008728
   4.8784461  66.7249146   4.6906476   5.0632486  67.6416702   4.8947034
   4.6047254  66.7341690   3.7734652  36.2106247  57.4787445  57.2362366
  35.7871094  56.8550529  57.8260460  36.2932892  58.2796745  57.7538338
  81.7817764  52.2243538  33.7428856  82.2149963  52.4499779  34.5660782
  82.4542618  52.3556671  33.0744858   0.8042324  30.2931652  71.8599930
   1.3392934  30.0069809  72.6002884   0.2736658  31.0086765  72.2103806
  56.9334831  21.5355549  63.8979759  57.3097572  21.1595554  63.1021881
  57.6015854  21.3942661  64.5687256  53.6207161  67.6412964  33.9611244
  52.9131393  68.2829437  33.8989601  54.3599701  68.1337662  34.3177910
  56.9466667  33.6217346  40.2949104  56.1270256  33.3049583  39.9153366
  57.6063995  33.4406204  39.6254463  34.7361565  57.3768234  15.0461569
  35.1679382  57.5660019  15.8792276  34.9808235  58.1074562  14.4782267
   9.6191187  39.5551262  53.7136383   9.4928579  39.1206093  52.8701439
   8.7444353  39.5843048  54.1013374  83.3681488  13.4930363  49.4803696
  83.4419174  12.6262922  49.8797989  83.1442490  14.0736599  50.2076797
  76.9133377  11.9473877  68.0698090  76.5796585  12.8276043  67.8962860
  77.6614990  11.8542833  67.4800415  66.7209702  34.8481140   0.9242997
  66.6297913  35.4262123   1.6817415  65.8795090  34.3956184   0.8656860
  32.4060555   7.3823581  71.8182297  33.2611694   7.5644560  71.4285507
  31.7974586   7.9371185  71.3302917  77.9766388  24.7188797  56.1654129
  77.6049271  23.9605808  56.6160164  77.4845505  24.7757301  55.3463593
  53.9977913  26.6062889  31.4966984  54.5030136  25.8018093  31.6141548
  53.6092758  26.5201721  30.6261387  71.6860733  50.0240402  10.2602453
  70.7805634  49.7283630  10.3543692  72.1869278  49.4500580  10.8398314
  69.4356537  26.8858185  67.3204041  70.0211639  26.1286430  67.3104095
  68.5660172  26.5141811  67.4681931  49.1577110  58.7309761  11.2603493
  49.4493599  57.8677597  11.5536585  48.5474396  58.5476761  10.5460682
  52.0480118  27.5009174  48.6427803  51.2573853  28.0175629  48.4871483
  52.0856285  26.8924351  47.9048347  68.4935379   2.7578902  10.4157152
  69.0799866   2.0193696  10.2517347  69.0297318   3.3869278  10.8984518
   9.1257935  23.6755733  11.3515844   8.5290070  24.1971054  11.8883171
   9.9610491  23.7120800  11.8176823  68.9148178  64.4483948  27.3119335
  69.1106796  63.9871101  26.4964046  69.6379547  65.0666656  27.4170189
  51.2959366  46.7002678  86.2962494  50.3906670  46.8930206  86.5403214
  51.8078041  46.9346428  87.0703888  42.4804192  62.3475380  64.0946808
  43.2300453  62.4594765  64.6792831  42.5174904  61.4281120  63.8310318
  60.6267700  32.7253685  71.4020996  60.8717766  33.5965462  71.0902481
  61.4547195  32.2477875  71.4535828   5.1642489   0.9392014  23.8835621
   5.3993611   0.3965096  24.6361847   5.5147114   1.8048110  24.0936279
  75.0724792  43.6366158  52.2368851  74.3649063  43.0187492  52.4207687
  75.7694473  43.3905106  52.8450775  30.2655582  31.3145218  70.8379822
  29.6980095  30.6681194  71.2578430  30.5590935  30.8884048  70.0326920
   0.9483952  40.4975052  78.9205933   1.4805791  41.1034851  79.4361496
   0.9014105  39.7052116  79.4556580  74.1961441  12.8547134  70.3464355
  74.5620422  13.4999466  70.9514313  74.9591751  12.4762754  69.9096222
  44.4287529   7.9963861  16.7915573  45.1906700   8.5740681  16.8362408
  43.6947212   8.5464954  17.0650730   1.9395810  70.9954605  77.8407822
   2.7566581  70.9414673  78.3364716   2.0887685  71.6988678  77.2089691
  76.4166641  50.2512703  88.8711472  77.1289597  50.5197563  88.2908173
  76.5839844  50.7203484  89.6885834  26.8671303   0.6889920  46.8676224
  27.3902473   1.2201509  46.2672462  25.9753017   1.0217159  46.7667847
  62.7045326  13.2984324  63.8597183  62.0063858  13.1932898  63.2133636
  62.6300812  12.5262461  64.4204483  74.1954422  26.6061821  74.3794174
  74.6995163  27.4031372  74.2150803  74.6419144  26.1879196  75.1155930
  86.8030472  68.8179550  44.7726746  85.9692764  69.1504059  44.4402199
  86.9355469  67.9932175  44.3052597  39.6827316   0.8709753  59.5447845
  39.9398537   1.5561091  60.1618042  40.4066391   0.8272989  58.9200592
  58.3760986   4.5310140  69.8182678  58.7862663   5.3561659  70.0773392
  58.4937057   3.9570539  70.5752106  59.9571686  68.9734879  86.3907471
  59.1132965  69.3877869  86.2105331  60.6028709  69.5718384  86.0148697
  84.0263367  51.9725571  66.7020340  83.6605072  51.2891159  67.2635651
  84.4367371  52.5876999  67.3098221  70.2576981  57.2206688  11.1347475
  70.1606827  57.5104446  12.0418568  71.0764465  57.6207352  10.8417749
  69.7329483   8.0337381  74.1769943  69.6518173   8.1814327  75.1192398
  69.0653152   8.5984726  73.7876740  44.9620285  56.5362396  81.1830368
  44.3612366  57.2025185  81.5167313  45.5202255  57.0058746  80.5632858
   9.4015160  35.2625656   6.0738497   8.9665861  35.8410301   6.7003045
   9.8767471  34.6344719   6.6178031  12.1431026  54.0242577  75.4810791
  12.8823881  53.4320183  75.6187134  11.4131489  53.4477005  75.2552872
   0.6222621  22.3201046  66.6434784  -0.1077328  21.7783680  66.9432526
   0.5945871  22.2524700  65.6890717  22.7553368  58.3815041  61.0198631
  22.9091568  58.5858955  61.9422493  22.7767086  57.4253883  60.9796104
  86.1784897  35.5747910  69.9361038  86.7706757  35.3603325  70.6569061
  86.6377258  35.2750397  69.1515732   0.5521867  42.2377396  41.0745277
   0.1425506  41.4197693  40.7928238   0.7068501  42.1178741  42.0115128
  40.6110802  22.2913456  76.3923492  40.5828171  21.7537098  77.1837921
  39.6919518  22.4276218  76.1624298  32.0649376   3.8361850  59.5417633
  31.5225163   4.2307582  60.2246399  32.4174576   4.5814595  59.0554237
  31.6540585  12.8268938  88.4387283  32.3965149  13.3569918  88.1489258
  31.0070267  12.9182549  87.7392731  18.8141594  43.7793274  30.4264736
  18.9432278  42.9200287  30.0249977  17.8655586  43.9071350  30.4190025
  71.6414108  37.7802010  75.3912277  70.9706039  37.6908913  76.0681839
  71.1509933  37.8022270  74.5695038  45.8019753  68.4889145  82.2069244
  46.3879509  68.2281799  82.9174728  45.3840637  69.2900085  82.5228806
  14.9125414  18.7609138  23.1689873  15.7727194  18.3818779  22.9882736
  14.7497206  19.3481827  22.4308586   4.6295910  10.6086502  51.5662193
   4.9131536  10.1927757  50.7520523   3.6747735  10.5435133  51.5485306
  68.9474106  57.5698242  37.0270805  69.7188873  57.3331718  37.5419083
  68.9991150  58.5218239  36.9419022  73.1765366  36.0749397  41.7903328
  72.9793015  36.7669029  41.1590538  72.7601013  36.3652458  42.6018295
  61.5469208  49.2195778  75.9030380  60.8047523  49.5988083  75.4322891
  62.2937050  49.7621918  75.6498108  18.9684715  30.4357719   3.5911617
  19.6741695  31.0012703   3.9049046  18.1868420  30.9872932   3.6244650
  37.6243401  44.5974770  51.0295219  37.7009850  45.3331490  51.6370926
  38.1259499  44.8685646  50.2606659  86.1060791  25.0101070  76.5279160
  86.7057343  25.3160610  77.2083893  85.2582092  24.9451237  76.9673920
  59.2575531  58.7275085  61.5988541  59.1327171  58.5010948  60.6772346
  59.9010048  58.0938377  61.9161301  70.9025269  59.7408562  29.8598461
  70.0499649  59.9254303  30.2539310  70.7825699  58.9042931  29.4103985
  34.6224098  54.2414207  83.1296005  33.6795845  54.0844917  83.0777435
  34.6984253  55.1579552  83.3949585  19.5257320  44.7796097  12.5237446
  19.2228756  45.3997879  11.8605042  18.9708138  44.9523277  13.2843132
  71.2287445  11.5640965  28.1656914  70.8497543  11.4124708  27.2998886
  71.6517944  10.7353954  28.3904324  63.4571037  63.3695984  46.3945160
  63.4579163  63.8042145  45.5416756  63.2716675  64.0699692  47.0200768
  53.8720932  17.4708080  21.8842525  54.2647438  17.3998528  21.0141811
  54.0752144  16.6366138  22.3074455  32.3295288  42.8776398  78.9224777
  31.8780518  43.5843773  78.4610367  31.6375637  42.4276962  79.4072113
  33.9303780  35.6223564  85.3037033  34.4067230  35.7707024  84.4868011
  33.3002815  36.3415871  85.3475418  64.5991592  41.5913315  33.0750160
  63.8983231  41.7882309  32.4534912  65.1460800  40.9484787  32.6235161
   2.2224426   6.0673685  85.5000381   1.4222791   5.5774827  85.6897278
   2.1346924   6.8748155  86.0065536  83.4805527  26.3883858  29.1314278
  82.8013000  26.0367527  28.5559292  84.0304184  25.6336880  29.3419247
  50.7244530  15.9291086  69.0340729  50.1681633  16.5490208  68.5623932
  50.2073479  15.6774569  69.7992554  43.2148018  26.5241776  13.6019249
  43.3848915  26.7449512  14.5176544  44.0836868  26.3988781  13.2203856
  82.5947952  36.5816269   7.9385414  83.4618988  36.5327568   8.3409948
  82.0058060  36.7913322   8.6633520  50.9153366  31.0197105  11.0704298
  51.5804939  31.6943989  11.2067938  50.1409988  31.3514423  11.5249443
  53.9328995  28.6366920  66.8892365  53.2412415  29.2331810  66.6028137
  53.5055771  27.7817421  66.9410934  64.3207626  27.0130215  18.1710758
  64.5652390  26.9441166  19.0939579  63.3785896  27.1814137  18.1848183
   2.8363245  22.9670277   4.3634787   3.5578711  23.5951538   4.3309383
   2.0716562  23.4655056   4.0753193  69.1594162  59.1556244  59.6382523
  68.6636047  59.8611946  60.0536842  69.3435516  59.4792862  58.7564545
  83.6294098   1.1859014  30.5180988  83.6990662   0.5315647  31.2132416
  83.0525208   0.7844902  29.8682518  84.7288284  64.1844711  43.1076241
  85.4641724  64.3030472  42.5064201  84.0140381  63.8718338  42.5530357
  23.7151356  64.5139694  76.0436554  23.6413937  65.4499588  76.2300110
  22.8096256  64.2081909  75.9909058  86.0786057  51.2017593  30.4825459
  86.9824066  51.4852524  30.3446465  85.6719513  51.2693024  29.6186600
  76.9835052  29.1065636  83.3583221  76.3711395  28.3985672  83.5582657
  76.4770203  29.7171993  82.8227539  16.8065548  64.4310913  53.0069580
  16.8695011  63.6523705  53.5600052  17.4523773  64.2865601  52.3153992
  34.9944344  18.4240551  77.7963486  35.5893669  17.9858341  78.4048309
  35.5240936  18.5808086  77.0146027  58.3572693  68.3168182  45.1526909
  57.8518257  68.2273865  44.3447533  57.7000504  68.4773483  45.8298378
  65.8905869  36.7567291  38.1876030  65.9130325  37.5524139  37.6559868
  65.9914856  36.0441208  37.5565376  44.6123161  11.5079899  13.5486412
  44.8721046  11.0379639  12.7562914  43.6565132  11.4567165  13.5550194
  69.6084137  19.6236382  57.4942818  69.3557129  18.7326088  57.2525368
  70.0230484  19.5306416  58.3519859  18.7015209  65.7395554  58.2883148
  18.7681980  66.0255661  57.3772812  18.1317921  64.9710159  58.2569962
  22.1717014  42.5246811  61.7127533  22.4486561  43.2864380  61.2035789
  22.8912601  41.9002571  61.6202240  30.5021801  60.3861656  70.4410858
  29.6940651  60.8893890  70.5408249  31.1670723  60.9096413  70.8884354
  50.7852745   6.3465681   8.2174597  51.4254723   7.0566449   8.1709185
  49.9361763   6.7865539   8.1764698   4.4521770  20.5197220  20.7756729
   3.4982338  20.4431915  20.7565155   4.6157002  21.3807640  21.1605072
  21.6553345  30.3907795  11.0039272  21.7342110  30.4473019  10.0516586
  20.7131100  30.3357830  11.1633692  82.0406570  52.8126221  82.5723648
  82.8966675  53.1492844  82.3075409  81.9348297  53.1112404  83.4756165
  58.9739532  58.8361282  82.4198227  59.4971695  58.2661438  81.8562698
  58.4082451  58.2372131  82.9071732  11.9768009  36.3762512   6.6073346
  12.7015877  35.9060135   6.1952796  11.2051754  35.8438263   6.4140716
  52.5078392  17.6072216  13.2671070  52.6829796  18.1968632  12.5337038
  52.3591652  16.7544403  12.8585806  11.6397552  28.8748150   7.4029694
  11.0825081  28.1732903   7.0659695  12.1149302  29.1929226   6.6353440
   0.3100970  21.7816238  27.8409557  -0.4565605  22.1562576  27.4072304
   0.1905124  21.9960499  28.7661324  40.0928383  23.1904583   1.4446830
  40.8401451  22.8030262   1.9003825  40.1629295  24.1281261   1.6238415
  80.0077133  54.4811325  65.9526901  80.1304703  54.9577980  66.7736435
  80.8307037  54.0095253  65.8241959  30.1397648  23.6012897  16.8886471
  30.7994289  22.9319077  16.7069778  30.1256313  24.1438446  16.1001892
  30.3788967  45.0421677  16.4250221  30.5457859  45.0104675  17.3670292
  30.7664204  45.8699951  16.1408482  68.3681564  63.0640564  82.9369888
  69.0365753  63.1990967  82.2652588  67.7269058  63.7570457  82.7795029
  59.7252426  53.8106689  67.8604660  58.9693985  54.0007057  68.4161758
  59.3609161  53.7338676  66.9786453   6.7719984  22.5707092  70.0711136
   5.8166218  22.5359669  70.1188660   7.0170960  23.2670422  70.6804428
  50.7257004   3.7818131   5.5381103  51.1431427   4.1534538   4.7610264
  50.0822449   4.4394979   5.8020196  71.3960800  18.9771843  13.1368713
  70.6374283  18.6751118  13.6363115  71.1674194  19.8671703  12.8687849
  37.7746887  38.8198700  86.3859711  37.2634430  38.7737350  87.1938934
  37.3403053  39.4959641  85.8659363  15.3953800  63.0727158  84.8768616
  16.2166348  63.5639610  84.8556290  14.7555962  63.6908722  85.2301178
  62.3434868   6.7016664  70.2024612  61.7748375   7.4606533  70.0728149
  62.1632614   6.1362839  69.4514008  50.8451729  31.1275558  15.8401413
  50.3997383  31.6172752  16.5315113  50.6641350  30.2095909  16.0421257
   4.8585172  13.9902287  24.4829407   4.4408522  13.6166611  23.7069035
   4.1312480  14.3178082  25.0120945  86.0027618  15.3280973  81.4875183
  85.2234573  15.7413511  81.8591766  85.9154510  15.4579525  80.5431976
  45.1180153  64.2853317  38.6733284  44.4393158  64.8522415  38.3069878
  45.0640144  64.4270096  39.6184425  19.2723217  63.9938011  87.4535065
  18.6714363  64.0312653  88.1976624  19.1429901  63.1199036  87.0849838
  36.4312210  55.9789352  52.1562309  36.4738312  56.1090775  51.2088737
  35.5083046  56.1085701  52.3745308  46.3237953  55.9157410  31.1998234
  46.3028793  55.4521408  32.0370026  46.8892632  56.6715546  31.3586464
  70.3865814  55.3311615  35.8897324  70.1752243  54.4754257  36.2629204
  69.6609879  55.8950844  36.1575546  79.5302048  61.7796326  24.4186954
  78.7454834  62.1515923  24.8212891  80.0232010  61.4103355  25.1513653
  64.0526962   4.0634370  23.8221474  63.6728401   4.1328754  24.6980019
  64.1123734   4.9679055  23.5145664   4.9600215   5.6684923  22.7136879
   4.9226913   6.5475326  22.3366909   4.0758138   5.3205681  22.5981140
   7.7822399  51.5963554  19.0214100   8.6139584  51.1405182  19.1506023
   7.9363589  52.1671600  18.2686405  39.5465126  61.4452515   1.2223006
  39.4623070  60.6752968   1.7847137  39.2961998  61.1347771   0.3521392
  81.8139725  58.3641586  54.3587227  82.2283554  58.7146339  53.5702553
  81.2612991  57.6498909  54.0415344  59.2888680  45.5094032   4.8496556
  59.4923172  45.5218773   3.9144099  59.2912178  44.5810661   5.0829206
  11.5566807  54.3153419  28.4062767  11.9720621  54.4734497  27.5585213
  11.3524752  55.1890831  28.7396069  50.8701172  49.6669922  73.9623337
  51.6928215  49.4066887  73.5480499  50.3323097  48.8753510  73.9451218
  11.2836456  44.1865234  55.5569763  11.2081900  43.8899269  56.4639320
  12.1632090  43.9194336  55.2900276   6.0302691  14.4603605  52.8601418
   6.0820303  14.4649763  53.8159294   5.8176250  15.3641634  52.6274261
  67.1105347  18.9010525   5.3283811  67.0870132  19.1774864   6.2444935
  66.3118057  19.2659988   4.9474921  12.0081472  10.7323008  76.2251663
  11.6718254  10.4675512  75.3689957  11.2942858  11.2345753  76.6180496
  70.7897263  20.6513042  77.8535156  71.2924652  21.4013481  78.1711960
  71.0138016  19.9408627  78.4545898  61.6847687  56.8534775  53.3619003
  61.5939407  57.7003021  53.7987862  61.5675468  56.2097397  54.0605392
  50.9452820  53.6408615  24.0562935  51.8491478  53.7107658  24.3634968
  50.8435097  52.7190895  23.8192101  48.6719742  10.5668831  86.0257111
  48.3137398  10.9444923  86.8290253  49.5992050  10.8039474  86.0423737
  30.4085941  68.6243896  42.5443268  30.1247635  67.9554214  43.1673470
  29.8530998  69.3802567  42.7348900  66.4379044  70.0275269  76.8180466
  65.7445145  70.5155869  77.2621613  66.5779266  69.2565155  77.3677521
  18.4661026  61.0127602  32.1347961  18.9919167  60.2390404  31.9320545
  17.8029251  60.6974869  32.7488213  11.3633137  66.0062256  50.9608269
  11.7808466  66.6297836  51.5550232  10.5971498  66.4715195  50.6250763
  81.8442612  49.2155762  71.0820236  81.7078629  48.4198189  71.5962219
  81.0173416  49.6922150  71.1544342  53.8315582  71.1277466  61.2089310
  54.7605095  71.3556747  61.2453918  53.4677353  71.4743805  62.0236168
   6.8226275  52.3159714  24.0750141   7.6748762  52.0983429  24.4525623
   6.8402066  53.2679634  23.9768448  70.7959747  10.9704313  25.4957237
  70.9449615  10.0332747  25.6213036  70.4900742  11.0453081  24.5918140
  13.2051191  17.5514317  25.0713120  12.5644217  17.2736626  24.4166489
  13.8597975  18.0407944  24.5731621  25.3963070  28.4191914  15.4798880
  24.5520935  28.8245926  15.2819405  26.0304489  28.9271317  14.9738321
  49.4281235  46.8694954  69.7797089  49.4403496  47.7989998  69.5514450
  48.7361259  46.4976425  69.2328186  81.0241394  51.4135056  41.0626869
  81.2334213  51.2976227  40.1358604  80.0863724  51.6050453  41.0743484
  71.6236038  15.0244827  39.9859200  70.8728790  14.4343004  40.0517654
  72.1847229  14.6250315  39.3212280  26.5692043  67.9697342  30.0076618
  27.0153198  68.1501083  29.1802082  27.2270412  67.5254669  30.5425549
  41.3807411   0.4677157  73.3194733  41.5586891   1.2199222  72.7548904
  41.9410744   0.6038291  74.0834961   9.0955057  40.9508324   5.1574821
   8.5059586  40.6950684   4.4480810   9.5603256  40.1455154   5.3847165
  52.6803589  51.7378578  46.6927261  52.8513794  52.3680878  45.9928741
  53.2340584  52.0285568  47.4173965  64.1790390  46.0796356  54.8024521
  63.9255753  45.1945381  54.5405540  64.3788147  46.5250740  53.9791031
  25.5521297  64.2835922  59.4913750  25.5079403  65.1912384  59.1906090
  26.2953262  64.2670059  60.0943794  66.7676697  55.5525131  88.6754684
  67.5082932  55.4025650  89.2630310  66.9268494  56.4212112  88.3063354
  76.7445984  14.9912004  36.3775291  76.5075302  15.1322565  37.2941170
  77.6265411  14.6208105  36.4125137  52.3910522  22.3739586  12.5143280
  51.9830971  21.5869904  12.1531019  52.3339348  23.0186100  11.8090658
  79.0083313  28.3933678  33.0369225  79.7457123  28.4805355  32.4328499
  78.8074570  27.4574833  33.0361900  29.1532345  23.0681782  67.4361725
  29.6615925  22.8395309  66.6580200  29.8022652  23.3969097  68.0582047
  51.6220474  17.6466160   7.5994000  51.0669746  18.2585907   7.1160645
  52.5143738  17.9515343   7.4350357   7.7354870  49.4551697   6.1245627
   7.6652484  50.3630371   5.8294721   8.6743326  49.2694778   6.1067200
  64.3031693  47.4090958  36.4411392  64.5114288  46.7856064  35.7453461
  63.7365265  48.0562134  36.0211601  21.2418156  10.9574299  58.5643845
  20.7990704  10.2276850  58.9976044  21.0149975  11.7227898  59.0925980
  38.5681953  71.2996368  24.9642181  39.2697830  70.6529922  24.8876877
  38.3047409  71.4752502  24.0608978  31.1784611  38.2286720  20.8475952
  30.2460079  38.4445992  20.8358841  31.3166504  37.7203331  20.0483913
  27.0646667   8.1012115   5.5495028  27.5737247   8.4655209   4.8253689
  26.8177319   8.8620167   6.0752692  51.2697983  29.3334160  19.1409588
  50.9282608  30.1667881  19.4651108  51.0949364  28.7118168  19.8475475
  58.8017769  71.2511520  38.6814156  58.5218391  70.4239578  38.2894745
  59.6623840  71.0603104  39.0544624  62.1921005   5.3552580  50.7145500
  61.3100204   4.9970675  50.8138885  62.1609726   6.1977015  51.1679306
  14.6976805  55.8690033   1.8427197  15.3427191  56.1591873   1.1977780
  14.8963604  54.9427910   1.9801669  69.3967438  22.3122463  69.0868912
  68.6209793  22.8533249  68.9397278  70.0878372  22.9382133  69.3031769
  28.2026463  28.4807587  69.2144470  27.7268505  27.7832623  68.7635040
  28.4413757  29.0952702  68.5204620  77.8550720   5.5518017  38.7114487
  78.6865387   5.6177945  39.1810608  77.2062225   5.3860326  39.3953667
  48.3738136  25.9265556  20.3324223  47.8079948  25.1601543  20.4257450
  48.7985687  25.8086452  19.4827690  34.0493736   8.0591850  16.3072834
  33.3621864   8.3841047  15.7255363  34.3848534   7.2774410  15.8684654
  72.4401398  56.0250130  17.5257893  72.2416763  55.1169357  17.7543488
  73.0849228  56.3005600  18.1773720  69.1752396  48.9007034  50.8435631
  68.4100647  49.1714325  51.3509560  68.8831024  48.1248093  50.3651543
  24.6698132  61.1782951  63.3639908  24.4317665  60.3640633  63.8073769
  25.2713261  60.9065170  62.6707726  61.1216507  18.6426773  73.6331940
  61.8311539  18.0138836  73.7653275  60.7543602  18.7764492  74.5069427
  17.7089672   2.8907194  19.4859524  17.3563957   2.3393705  20.1844788
  18.4399586   2.3864779  19.1287060   5.0658922  66.8386307  21.5189228
   5.5415835  66.1128616  21.9229145   5.5420599  67.6211777  21.7966118
  72.3418350  14.5188599  59.0750046  72.6032715  13.6007338  59.0048141
  72.1492996  14.7825308  58.1752014  84.8547668   9.1613750  81.5520248
  85.2514954   9.8316402  82.1084213  85.5922623   8.7745247  81.0801392
  33.4853973  57.2266960   3.2697489  33.5239868  57.2838974   2.3150394
  33.4683647  56.2873383   3.4529147  60.4105682  63.8407593  42.8209724
  59.5441284  63.4500961  42.7074280  60.2369843  64.7713013  42.9630547
  64.7454834  50.5202065  39.5960541  65.0116806  49.8228569  38.9968224
  65.4366760  50.5441742  40.2578011  12.2612209  50.3902130  37.0419502
  13.0104208  50.0589981  37.5371552  11.5386181  50.3864365  37.6696930
  24.0694180  67.2697754  54.0666161  24.9209938  67.3139420  54.5014763
  23.4369488  67.2179337  54.7832260  62.2017593   9.5695734  75.9827881
  62.6051712   8.7300720  75.7620468  62.8486519  10.2232933  75.7174377
  13.7005796  39.8647995  48.7150078  14.3955364  39.2104797  48.6433449
  13.9542933  40.4024925  49.4651718  41.8483620  31.2378693  79.3840103
  41.5054779  30.9854507  78.5267181  41.5569687  32.1419983  79.5017700
  82.5009689  19.5960979  26.6453400  81.7192764  19.5157032  27.1919041
  82.7086258  18.6970787  26.3906364  15.1498709  46.5958138  74.4259491
  14.9043941  47.3307953  74.9878922  14.6481981  46.7309837  73.6220322
   6.8198752   4.6428800  45.4555016   7.3657126   3.8570175  45.4287834
   7.4316602   5.3529315  45.6498642  22.1574116  33.4255829  51.5642128
  22.6796932  33.0042572  52.2468109  21.6079121  34.0519066  52.0353775
  40.5835419  11.1567659  67.5649567  40.0267982  11.7925301  67.1154327
  41.4435997  11.5753078  67.6017151   2.1297617  69.1812744  12.0000496
   2.3230898  69.8424377  11.3354321   2.5450068  69.5132446  12.7960386
  38.2361679  50.4656906   5.1559844  38.5295105  49.8174782   5.7963004
  39.0444069  50.8075218   4.7737150  70.8307571  57.9956093  65.8602448
  71.1439209  57.2098579  65.4121933  70.3498001  57.6634521  66.6182632
   3.5737302   5.9117599  52.8389778   4.0810852   5.1413198  52.5835495
   2.6869309   5.7281251  52.5289841   2.7597847  39.8482475  46.7259789
   2.5906370  39.6522675  47.6475067   2.3887887  39.1046410  46.2509575
  40.6535416  53.8221588  60.0182266  40.5795898  54.4000092  59.2587166
  41.0528755  53.0234451  59.6735191  25.2967510  13.0118265   8.8167124
  25.6181602  13.6537466   8.1835728  25.8984566  13.0841780   9.5576220
  17.5116997  55.8802910  45.9482498  17.7145863  54.9998817  45.6320992
  17.5241432  56.4259338  45.1618958  76.6859131   9.2484846  39.1137619
  76.4000931  10.0290222  39.5884209  76.2219162   8.5267878  39.5381317
  21.8345184  58.0875359  24.7487106  22.7209568  58.2429161  24.4226494
  21.2633839  58.3788261  24.0379448  19.8091431  27.0896282  56.1265297
  20.7556629  27.0251102  56.2536812  19.4349937  26.7787800  56.9509201
  19.0316334  67.2474976  19.1604767  19.3309498  67.9081726  19.7850971
  19.7137280  67.2260437  18.4892712  71.2728119  45.4753113  42.9855232
  70.4546890  45.3673477  42.5004959  71.9487152  45.5163002  42.3089905
  26.9585419  64.1303940   1.1650161  26.9510975  63.2004395   0.9383819
  26.0418892  64.3408890   1.3429812  65.8448334  66.7297363   9.5761747
  65.1072922  66.4799805  10.1328583  65.9594498  65.9872284   8.9830694
  33.2574844   2.6796927  78.0405273  32.5717506   3.1045933  77.5253067
  32.9653282   1.7721771  78.1259232  39.4413109  33.8136101   0.3399266
  38.8188171  33.0927238   0.4350905  40.1221809  33.4675293  -0.2370290
  75.7638245  61.2287140  79.7372894  74.9184875  61.0211334  80.1354828
  75.6358414  61.0627327  78.8033218  75.6643600  29.9517155   1.4293641
  75.8687515  30.1635284   0.5185449  74.7157822  30.0624161   1.4939529
  34.1151695  57.1266174  36.1991081  34.7504883  57.0105896  35.4926109
  34.3982277  56.5147781  36.8786354  47.8184128  28.5451527  42.8125763
  47.7277451  28.3613319  43.7475739  47.7269936  29.4956036  42.7453690
  35.6547470   5.7018828  65.7742691  34.6977119   5.7168398  65.7647324
  35.9101181   6.6097512  65.6105881  82.8722000  10.7197943  28.5578632
  82.3533707  11.3778019  28.0951729  82.4193497  10.6014318  29.3928185
  52.7830353   1.4684384   8.6326857  52.3214989   0.9513928   7.9724751
  52.2721558   2.2746003   8.7057362  71.5157700  32.2242165  25.1174831
  70.6316452  31.8907776  25.2703800  72.0383377  31.4430180  24.9361343
  57.1488190  13.5021944  44.9667091  57.5897675  13.8605480  44.1963959
  56.5336227  14.1864357  45.2304840  14.9543247  39.6104507  14.1258926
  15.4105816  38.9410629  13.6160107  15.3616829  39.5714760  14.9912081
  71.0791321  27.5443535  49.8249779  71.6243973  27.6901970  49.0518951
  70.8795013  26.6084328  49.8041649   7.6369352  43.7982826  70.1928787
   6.7794266  44.1403389  69.9400787   7.5698061  43.6577530  71.1373215
  24.5409222  12.9230680  84.3365784  25.1289444  13.5089235  83.8598862
  23.6877766  13.0504456  83.9216690  83.7049561  68.6943054  31.1259155
  84.1873703  69.4567032  31.4456940  84.3081436  68.2669830  30.5178089
  10.5731688  12.1013975  20.1730175  10.5605984  11.6858120  21.0352020
  11.5017080  12.1563091  19.9471169   8.5590878  36.5920753   8.3774881
   8.7263498  37.4344559   7.9548225   8.3426037  36.8169250   9.2823687
  14.9069567  18.5062885   3.9985273  14.3543577  18.0578251   4.6386409
  14.7366381  18.0506668   3.1741292  55.9198914  29.4591923  40.4277763
  55.8875237  28.5286312  40.6496773  55.4072609  29.5313988  39.6226501
  59.1685410  59.5080261  66.4589615  58.9069786  59.5407982  65.5387726
  59.0595131  60.4063148  66.7710876  25.0001907  47.4645462  77.5175476
  25.5052166  46.6598091  77.6340637  25.5899525  48.0509377  77.0436707
  56.1112823  27.0737610  60.4949913  56.3463593  26.1679420  60.6961403
  56.8563194  27.4095268  59.9965782   2.9971955   0.0343150  44.6887703
   3.5681412   0.7238252  45.0276337   3.1573362  -0.7136145  45.2642593
   0.6900282  26.1759415  72.8763885   0.8482447  26.5918331  72.0289078
   0.4308563  25.2804852  72.6590958  57.6890602  13.8968639  16.1805668
  58.2273407  13.4201918  15.5486898  57.5779190  13.2862873  16.9093170
  11.8297825  42.8887863  25.0071945  11.4048986  43.5923843  24.5166302
  11.2097178  42.6744728  25.7042027  70.2514954   6.4827843  51.2950058
  69.2982788   6.3956151  51.2967949  70.5234528   6.1565099  52.1528053
  70.4374847  64.1021271  44.5151978  69.7794495  64.1542816  43.8220177
  70.0868759  63.4579620  45.1303062  19.8845406  42.8668289   6.9289432
  20.2670097  43.7441635   6.9136853  20.5955029  42.2906914   6.6481791
  40.3587036  53.2635117  44.4720421  39.4306717  53.1468010  44.6754227
  40.6319847  54.0023613  45.0157776   1.9429618  45.5784836  38.1603508
   2.2843003  44.6982651  38.3182640   1.2232850  45.4490433  37.5426598
  16.7746601   7.0799756  77.6607666  16.8956738   6.3470435  78.2644196
  16.8796062   6.6939044  76.7911835   6.1512690   5.6777873  56.0889130
   5.9917550   5.7091098  55.1456184   7.0756636   5.4421992  56.1678162
  76.5124359  43.9202461  57.9420891  76.7394791  44.8158913  57.6920853
  76.4044952  43.9569206  58.8924789  59.1594582  53.3920479   9.6788979
  60.0185623  53.8037872   9.5859327  58.6592140  53.7092438   8.9269838
  54.3824615  14.4874315  45.3336906  54.0976562  14.9485264  44.5446968
  54.0549278  15.0235910  46.0558319  65.2588654  46.8780594  73.0320129
  65.2890244  47.8218765  72.8753891  65.1309586  46.7960625  73.9770737
  65.5770569  22.4369602  80.5412216  65.4987717  23.3080349  80.9302292
  65.9743805  21.9024448  81.2287216  20.6126003  31.2437763  68.6310654
  19.8344402  30.8774891  69.0512238  20.8109684  32.0306244  69.1387634
  76.9358368   5.8976998  53.1064034  77.3354340   6.2029963  53.9208679
  76.2965393   6.5747600  52.8847809  22.0582314  66.5329742  33.7153397
  22.7385502  67.1704941  33.4986305  22.3825169  66.0947495  34.5021248
   5.2666144  54.9922714  88.0842285   5.3711219  54.2167053  88.6354141
   4.4265532  54.8620110  87.6442719  15.1872807  55.9966125  49.3621216
  15.6493101  55.2050552  49.0860786  14.2603865  55.7815132  49.2580490
  59.5787849  64.7227631  51.6220818  60.2862206  64.6613846  52.2639542
  59.4591293  63.8254738  51.3109779  52.1737099  15.0210218  51.0348396
  53.0452881  15.3858700  50.8816338  51.8366203  15.5124540  51.7839050
  71.1834183  59.6597710   5.5908356  70.3586273  59.2780495   5.2904401
  71.8259811  59.3875847   4.9356503  39.9164581  53.0968666  74.9513321
  39.2922249  52.4372711  75.2538223  40.1785126  52.7972336  74.0808334
  86.4676361  18.1505203  76.9482727  86.1484146  17.9168072  77.8198853
  87.1861801  17.5396633  76.7846069  78.5510635  17.5834007  74.9008713
  79.3817902  17.4951839  75.3681412  78.6320953  18.4081669  74.4218826
  39.7414932  62.7976265  53.8792343  40.6403503  62.4851456  53.9824104
  39.7988472  63.4731789  53.2035332  51.5432434  44.7219238   0.2526029
  51.9524956  45.5313568  -0.0532705  52.1425323  44.3879166   0.9200823
   5.9547820  42.6163940  44.9744453   5.8866291  41.9432373  44.2973557
   5.2212148  42.4390259  45.5632172   1.3059937   3.3668153  20.5262241
   2.1521478   2.9529731  20.6964874   1.0944545   3.1180842  19.6264362
  10.5590487  40.6308784  32.1978226  10.8700743  39.7624283  32.4533386
  11.0141830  40.8161850  31.3763943  67.4220123  70.9949341  71.8647995
  68.2774582  71.4194336  71.9300079  66.9786224  71.2228546  72.6819153
   3.7518690  12.1646099  82.6415329   4.6609035  11.9148617  82.8074036
   3.8123674  13.0190592  82.2143478  53.0496292  50.1237297  56.4973259
  52.8408737  49.1895790  56.5010757  53.9614258  50.1665497  56.7854614
  49.7795639  41.3526192  87.4262390  50.0180855  42.2066498  87.0657272
  50.1110344  40.7218132  86.7871475  69.2910309  69.5225754  14.9170599
  68.5459976  69.8590317  14.4191027  68.9674606  68.7147446  15.3157377
  85.0596924  39.4014320   3.1580133  85.1421432  38.4788132   3.3992789
  84.4351120  39.4044304   2.4326739  13.5057096  12.0892191   5.6045032
  14.3788338  12.3561087   5.3170047  13.3487949  11.2589960   5.1546817
  30.1786900  51.2406578  75.7123642  29.4061317  50.9043312  75.2581940
  30.0623550  50.9626846  76.6208954  51.1162224  14.6940069  19.9412823
  50.4538879  14.2931499  20.5041847  51.6836700  13.9672842  19.6841602
  58.0107155  52.4154396  77.1361313  57.4278221  51.7520866  76.7667770
  58.1048164  52.1664238  78.0555725  37.0543365  41.0415268  10.1433306
  36.3447990  40.6884003   9.6065903  36.6218185  41.3489227  10.9399910
  61.1643791  16.3884430   5.5051446  60.2944870  16.3097572   5.8967204
  61.6412582  15.6226797   5.8251810  78.9525604  43.3223228  68.6747665
  78.0167999  43.5230522  68.6577759  78.9943695  42.3688736  68.6011353
  62.1691513  61.4603806  31.1135540  62.7140617  61.6658669  31.8732128
  62.4641647  62.0683937  30.4356785   6.9559922  61.9033966  78.3337936
   6.6017594  62.2475510  79.1537399   7.4428039  62.6363220  77.9568787
  10.3053083  53.0378876   5.9798937  10.9845142  52.5054626   5.5658455
  10.2688122  52.7202873   6.8821301  49.2565689  19.5120831  56.1257095
  48.7626686  19.0820446  56.8238220  49.5983963  20.3093948  56.5302887
  72.2611313  49.4344902  40.3471756  71.5340195  48.8200417  40.4471321
  72.1626358  50.0432587  41.0792465  72.4985809  10.0937338  67.1474228
  72.3216476  10.2273684  68.0785904  71.6491699  10.2133503  66.7226562
  17.4137650  39.4531975  63.1597748  16.6113567  39.1380386  63.5757675
  17.2197838  40.3596725  62.9212379  23.5181999  61.8917198  27.4874649
  23.3115005  60.9572449  27.5036278  24.3173180  61.9693146  28.0086384
  -0.1710099  33.5591888  78.9722519   0.7253147  33.8398018  79.1568832
  -0.5040531  33.2513580  79.8151932  61.8469238  41.1308975  37.8222427
  61.9069939  40.1953239  37.6290359  61.3344460  41.4923782  37.0991058
  71.0389175  57.8750420  61.6039200  70.3514175  58.0126190  60.9522667
  70.6065598  57.3956604  62.3106651   7.6756673  39.3336258   8.2162294
   8.4064350  39.9270439   8.3896179   6.9348383  39.7241287   8.6798134
  73.5113831  11.3968067  53.8739090  73.2855225  11.3445015  54.8026085
  72.6921234  11.6375389  53.4413567  22.5627117  42.7504959  76.2793503
  22.8777447  43.5547829  75.8669052  22.5451508  42.9520950  77.2149200
  67.4413071  63.0081062  24.0762596  67.4515152  62.9451408  23.1211872
  68.3398285  62.8085442  24.3390617  58.0139809  54.5466270  18.0628300
  58.3806839  55.4194298  18.2041645  58.0706520  54.4133606  17.1166496
  60.6119614  54.5451164  54.3686371  60.2168427  54.1432762  55.1423569
  60.2452049  54.0569229  53.6314888  12.8818703  19.9414215  69.1306610
  12.9331465  19.8251286  70.0793839  13.7936440  19.9379520  68.8393021
  42.9621315   6.1434736  84.9454193  43.0114784   5.2369108  84.6421967
  42.9087563   6.6619806  84.1425858  48.1395264  25.2740421  17.4155521
  47.8983498  25.5536880  16.5324535  47.3971329  24.7469864  17.7110100
  54.9018555  58.1327667  75.1319351  54.9205208  58.2414474  76.0827637
  54.3152847  58.8234024  74.8233948  65.4970474  43.0080910  35.1561508
  65.8855515  42.4126358  35.7970352  65.2611618  42.4453964  34.4186134
  25.7415733  57.1872253  60.2100945  25.7638569  56.3822441  60.7275314
  25.6233940  56.8890419  59.3082352  41.6105881  31.7639828  71.1001282
  42.3993416  31.2220116  71.1193771  41.7023621  32.3473053  71.8534851
  25.4701557  47.4349632  16.0686226  25.0627785  46.7967110  15.4830389
  26.0759335  46.9192085  16.6008472   8.7169447  34.9075813  67.8076248
   8.5980501  35.2633400  68.6882629   8.1013451  35.4004402  67.2650757
  59.4414673  10.1548338  55.8194809  58.6986465  10.7564859  55.7698898
  60.0862274  10.6141777  56.3575516  82.0060349   8.9983978  37.0516548
  82.4589157   9.1307354  36.2188225  81.8985062   9.8800392  37.4085579
   0.5655378  66.9223862  26.3910713   0.3733198  66.1401596  26.9081841
   1.0226052  66.5918961  25.6177025   5.6074152  58.4516449  62.7217636
   5.2422490  59.1442909  63.2723351   4.9361372  58.2945862  62.0577240
   7.0199456  60.7113342  41.7570801   6.3182707  61.2322884  42.1475754
   6.5744910  59.9501762  41.3849983   0.2174864   2.8886614  76.7266541
  -0.5986486   2.3922544  76.7877731   0.6096296   2.8128862  77.5965424
  28.9487915  66.0488510  58.2253265  29.0231915  65.0978394  58.1460495
  29.0940857  66.3753128  57.3373260  16.6286011  66.8607101  74.8003082
  17.4827442  66.6725388  75.1892319  16.3703136  66.0399399  74.3809662
  27.4924812   2.8071330  53.4575310  28.1969700   2.4368649  52.9257126
  27.3453884   3.6776552  53.0876808  32.9300117  70.8617020  22.4270420
  33.3200226  71.1154785  23.2635345  32.8775482  71.6779327  21.9298000
  79.3334808   1.0085007  13.6243019  78.6366425   1.3539655  14.1822462
  78.9972382   0.1677201  13.3140421  58.3959122   2.1406381  27.9608002
  58.0741959   2.9322107  27.5293560  59.1350594   1.8579192  27.4223156
   2.2808948  57.4658012  69.4722366   2.0451274  57.4081573  70.3981476
   2.5554221  56.5788879  69.2393112   3.9656994  60.8180962  23.3959332
   4.7225599  61.1270142  22.8979759   4.0460796  59.8643188  23.3868103
  42.8922157  69.6848984  79.2708054  41.9376717  69.6980896  79.3408661
  43.1113968  68.7598724  79.1589050  52.1479073  49.2206688  85.7440186
  53.0759430  49.3898544  85.9063568  52.0886726  48.2687950  85.6624222
  40.4723396  67.5158157  36.7530785  39.5900726  67.4436188  37.1172638
  40.8243179  66.6269226  36.8000450  42.9991722  44.1626472  68.7563095
  42.0751305  44.0180130  68.9599228  43.1684265  43.6012878  67.9996948
  31.3496056  22.3400803   3.5437026  30.6065083  22.7165279   3.0721879
  30.9514866  21.7833481   4.2128677  37.1986885  53.8499413  82.2401352
  37.5286827  54.7277145  82.0481644  36.2973518  53.9909744  82.5298538
  80.6228714  55.0725021   5.1492233  79.9608307  54.8609123   5.8073816
  80.1314163  55.1501350   4.3314962  37.9574699  28.0385513  76.0584259
  38.7958565  28.4923172  76.1446609  37.3136520  28.6573353  76.4031448
  69.2937164  47.7634010  89.1443253  69.3429718  47.4225273  88.2512360
  68.7890854  48.5728264  89.0642548  60.6582489  32.5603561  67.4487305
  59.8209496  32.4888191  66.9904175  61.1169014  33.2707405  67.0001526
  54.7104378  69.3712921  87.5138092  55.4788208  68.9475708  87.8962708
  54.0331345  69.2902374  88.1853180  77.7847977  62.9935532   1.0132775
  76.9216232  62.7209473   1.3244854  77.6442947  63.2339401   0.0974692
  54.6896019   5.9503708  63.9564133  54.5490150   5.0140748  63.8156395
  54.6691589   6.3303556  63.0781059  74.1860504  12.2504215  30.7733479
  74.9632187  11.7435980  31.0086708  74.4099579  12.6575489  29.9364834
  55.0597725  54.9121857  67.3967896  55.7221489  55.3355293  66.8506470
  54.5643959  55.6372261  67.7777786  75.3920593  69.7422104  58.5027504
  75.0936432  70.6468430  58.4088745  74.6587448  69.2141266  58.1871452
  69.9043884  13.5809574   7.5822296  70.1056747  12.7728367   8.0540972
  70.4670639  14.2411270   7.9869661  66.1575241  26.7334957  61.3266983
  66.0602722  25.7913589  61.1883087  66.2581024  26.8273144  62.2739639
   0.5548536  38.7136688  20.7448349  -0.3211696  38.6747932  20.3610344
   0.5326683  39.4822311  21.3149662  72.0623016  60.8010559  88.8037186
  72.5907516  60.2405510  88.2355652  71.2637863  60.9656105  88.3021851
   9.1826086  27.9525108  77.1551666   9.5880537  27.4158154  77.8361969
   9.8943729  28.5029068  76.8285294  28.2159691  64.9513016  70.3739624
  28.0996952  64.2661591  71.0322113  28.7044792  64.5259323  69.6692276
   0.5939516  36.3837013   1.4628446   1.2082959  35.8315582   1.9465319
   0.2971620  35.8336220   0.7378899  53.7673683  13.1526651  78.7867813
  52.8705826  13.0066223  78.4856567  53.9936066  12.3532104  79.2620926
  14.5551157  60.0178833  66.9624176  14.5981512  59.2702866  66.3662033
  15.4152546  60.0395546  67.3818512  82.2537155  48.9183846  27.5436363
  82.6331482  49.4754333  28.2233143  81.3580856  48.7557182  27.8396320
   9.0129986  66.4098740  58.5241165   8.2201052  66.8235474  58.8653336
   9.5927391  67.1415176  58.3123817  11.9165802  47.7438812  40.7679443
  12.4012985  47.9385300  41.5700645  12.4359102  47.0680580  40.3322945
  83.2306137   6.6722026  28.9460316  82.6088486   6.8714633  29.6459866
  83.9852295   6.2931719  29.3967171  55.7730942  63.3573532  56.7879715
  55.5743523  64.0017853  56.1086769  56.3742561  63.8103104  57.3792992
  58.6913185  23.4372063  82.0132904  58.8878708  23.2023621  81.1064072
  59.5100594  23.8021317  82.3490372  38.0102806  47.8080330  13.8936119
  37.6637764  47.6642303  13.0129938  37.4148369  48.4479294  14.2837505
  85.1895142  38.6184158  66.0431900  84.4669876  39.2456360  66.0153198
  84.9634247  37.9631157  65.3831177  60.8367233  32.1921120  58.8349724
  59.9975624  32.1796303  59.2952805  61.3106232  32.9288406  59.2208252
  64.2531891  69.0541992  18.2968712  65.1654663  69.3258896  18.1960659
  63.7451172  69.7880783  17.9511719  62.4008141  68.5399475  15.2226620
  61.4895515  68.8078308  15.1040430  62.3775597  67.5841904  15.1756058
  80.9519730  21.7537518  31.0197353  81.5308838  22.0620136  30.3225460
  80.1788864  22.3143902  30.9545269  66.9366760  33.0212593  50.5331955
  66.2372208  32.7256050  51.1159286  66.8646698  33.9757347  50.5375977
  12.2989798  18.1785202  13.1637592  11.7150078  18.0907345  13.9170866
  11.7880039  17.8481827  12.4248314  65.5398102  59.7557297  61.5491180
  66.4073792  60.1310158  61.3983841  64.9443665  60.3260651  61.0629120
  76.4594345  49.9371109  52.5961494  75.6763763  50.0041466  53.1425476
  76.8626022  49.1087570  52.8559799  54.5244865  70.2941132  56.8044624
  53.9699287  69.7005386  57.3107910  55.4144440  69.9732590  56.9502716
  33.6994019   2.6930454  28.3079414  34.4596405   2.1569505  28.5334911
  33.4974174   3.1723371  29.1115036   3.7238531  36.6524773  38.0069542
   3.9466743  37.1255455  38.8086929   4.2686510  37.0562096  37.3313637
  85.9754715   1.9060062  50.4653587  86.3539276   2.7574501  50.2461777
  85.9373245   1.8999062  51.4217796  83.4406281   2.4491260  71.6967621
  83.1933365   2.4147677  72.6208267  82.6231384   2.2925763  71.2240753
  28.9969082  26.1491890  88.8860931  28.5921860  25.4044075  88.4414291
  29.9111156  26.1291485  88.6031570  50.5698700  38.8061180  12.1899147
  49.7646904  38.7035179  12.6972494  51.2057228  38.2448616  12.6336660
  78.8021851  68.5574493  87.9872665  78.0199203  68.0813751  88.2659378
  78.6537704  68.7397385  87.0593796  78.0420380  67.7735748  65.9490967
  78.2709656  68.0809402  65.0719604  78.7175598  68.1445694  66.5167770
  24.8252487  59.0542526  48.3546219  25.3486252  58.5084038  47.7678032
  23.9183636  58.8405724  48.1352272  39.4447594  39.9331055  10.4865360
  38.5768623  40.3183670  10.3658791  39.9622040  40.6300468  10.8899689
  48.6165657  39.5355759  38.9126511  48.3921127  38.6902428  39.3015747
  49.4029007  39.3601913  38.3957825  48.7701454   4.2110934  80.8038635
  47.9538536   4.5464530  80.4331512  48.4994888   3.4744055  81.3518295
   9.6962452  57.3085899  73.5404816  10.2924566  57.9567642  73.9154968
   9.1828985  56.9960442  74.2854767  10.2247734  63.1715889  36.1575317
   9.8212242  63.3071213  37.0148582   9.4870415  63.1341896  35.5487747
  39.9247322   9.9872093  16.8595581  40.1396332  10.0712223  15.9305859
  40.7704697  10.0296125  17.3058300  82.5919876  34.7270546  57.7604561
  82.0902710  34.9384880  58.5477333  83.3392944  34.2221184  58.0810966
   4.1744337  23.6975060  33.3906174   4.0151691  23.9694347  32.4867821
   4.3535380  22.7591438  33.3303947  34.6940575  56.2229156   6.1928039
  34.0697975  55.8941765   5.5459199  35.4626808  55.6616440   6.0907049
  17.5151730  50.3854141  31.9257145  17.8338108  50.9725990  32.6112175
  16.5634804  50.4855118  31.9478989  14.9800816  36.6349945  29.7307510
  15.8127813  36.6000595  29.2599831  14.3198662  36.7236137  29.0433693
  48.5545197  31.4071827   0.2695236  48.4292107  32.3421669   0.4317958
  49.3153381  31.1717873   0.8005351  50.9221878  17.1448765  76.3594818
  50.8106079  17.1060982  77.3093643  51.5494385  17.8544884  76.2207794
  84.3355637  36.1593018  56.3231544  83.6343918  35.7703323  56.8459320
  84.9624405  36.4860573  56.9685173  69.2778015  47.1425591  37.1114159
  69.8194580  46.3821259  37.3225670  69.8541870  47.7135696  36.6035156
  32.1267090  53.1272850  54.5561752  31.7601871  54.0062180  54.6529808
  32.3045387  53.0437851  53.6193504  83.7854538   6.7299457  71.7172318
  83.2225494   6.0707884  72.1232910  84.1559601   6.2900157  70.9521103
  46.4458160  21.1763020  77.2045746  47.2017212  20.6115665  77.0436020
  45.6948700  20.5831203  77.1834869  52.4062881  11.7117720  63.7024727
  52.2235832  11.6412468  64.6394272  52.1127090  12.5918245  63.4667778
  48.0043221  53.5169754  24.4753590  47.6563492  54.0366249  23.7507133
  48.9446068  53.4659462  24.3036194  59.1125755  44.8820992  21.3186550
  59.1954880  44.1912346  20.6613388  58.3567314  44.6221581  21.8453064
  46.3826256  56.3169479  68.8742294  47.2035904  55.9773827  68.5179367
  46.0158501  56.8474770  68.1669464  44.8218002  34.1543694  34.4357414
  44.2353058  34.2368698  35.1877022  44.9636040  33.2121048  34.3448372
   2.8574612  15.7513809  47.8438683   3.7685030  16.0409336  47.8927917
   2.5343919  15.8243618  48.7419395   7.8929095  15.3839302  65.1001129
   8.2376280  14.7607880  64.4605103   7.1620412  15.8085623  64.6509476
  59.0900993  28.1737709  67.1329498  59.5438156  28.4972324  66.3546524
  58.8470154  28.9645290  67.6144485  15.2086315  15.8450136  26.6520290
  15.7612324  15.6616726  25.8922596  14.5281210  16.4293442  26.3178215
  14.2592640   5.9362807  75.9233780  15.1738653   6.0489383  76.1823044
  13.8908443   6.8191671  75.9551697  83.8295975  26.7303276  50.0925903
  83.2829437  25.9772835  49.8682556  84.6436996  26.5876331  49.6097755
  38.1365814  48.7390480  85.2036591  37.5722008  49.0162086  85.9253922
  37.5502396  48.6825981  84.4491730  30.3812675  69.7720413  65.5385895
  31.0371189  70.4495087  65.3738708  29.5829201  70.1073074  65.1305771
  69.4594727  41.0781822  51.5860596  70.1044922  41.1320457  50.8808746
  69.1369476  41.9740067  51.6845856  59.7081451   1.3470774  74.1434555
  59.6232452   1.8604679  73.3400574  59.9401855   0.4684361  73.8428268
  63.4407082  28.4824829   1.2111316  63.6904182  29.4057770   1.1736526
  62.8270607  28.4298859   1.9438696   0.6748260  38.6607018  61.2183571
   1.4933343  38.7271118  60.7265587   0.5684716  39.5212822  61.6237259
  68.9189606  45.2122383  29.7671337  69.1475677  45.7985764  29.0458984
  68.5875854  44.4231453  29.3384666  81.5991211  24.4896889   9.5683107
  81.3072052  24.6658916   8.6739016  82.4434509  24.9353771   9.6368685
   4.8378019  61.3906212  11.0332880   5.2118120  60.5119400  11.0986404
   4.7503366  61.6818123  11.9409161  57.6295776  12.2550945  73.9280548
  57.0267792  12.4963999  73.2247543  58.3509598  12.8793831  73.8499374
  62.9985161  39.4471512  17.7512436  63.7130852  39.2960854  18.3699551
  63.2854271  39.0188026  16.9447517   0.6081040   3.3759682  15.2748823
   1.5016193   3.6454248  15.4876156   0.5950628   3.3228505  14.3192463
   0.9744730   9.8758278  18.7762947   0.2082585  10.0441523  18.2278290
   0.8800780  10.4809856  19.5118923  44.9762497  63.0813675  45.0436401
  45.5565529  63.7457924  45.4151535  44.3306046  63.5801315  44.5430298
  19.6663628  31.8117714  16.6862431  19.8943977  31.7402496  15.7593584
  20.0981560  32.6147308  16.9778614  14.2142181   1.1844463  68.4792404
  14.9855881   0.6179743  68.4610825  13.5425873   0.6896408  68.0098648
  34.9877396  57.6212540  62.1811562  34.5060883  57.0605049  61.5730400
  35.8146362  57.8038025  61.7348938  82.9918594   6.0386453  31.6838112
  82.0449066   6.1356888  31.5833797  83.1852570   6.4400806  32.5309715
  16.6782856  38.1222687  19.9103851  16.3732929  37.3549576  20.3945789
  15.9437504  38.3545265  19.3422794  31.1988029  37.2495804  11.5021944
  31.9650955  36.7652969  11.8095951  31.1482849  38.0103683  12.0808821
  38.0237617  48.1903572  18.9598370  38.0084610  47.3675919  18.4709034
  37.1412468  48.5464935  18.8570576  71.8402405  48.9558830  88.9269867
  70.9561234  48.8269196  89.2704163  71.8778381  48.4010849  88.1478729
  56.8738785  57.9206848  80.1051025  57.3967361  58.1703262  79.3431778
  56.2607498  58.6462250  80.2229614  85.8895950   2.6664178  33.6789513
  85.6745224   3.1946087  34.4477119  86.0295563   3.3058529  32.9805489
  11.1294079  35.6511078  14.4120798  10.8404474  34.7419167  14.3339586
  10.3207016  36.1625252  14.3860617   2.5002599  52.8055077  73.7272949
   2.9220166  52.4900398  74.5265656   2.1577253  53.6680489  73.9616470
  51.1762772  63.7733307  57.2199745  50.6750374  63.0175362  57.5261841
  51.4386139  64.2271729  58.0208702  79.5808716  69.0892105  10.4658184
  80.4805756  69.1802139  10.1520081  79.5228577  68.1825256  10.7671309
  62.2653542  36.2446861  42.8526192  62.2739639  35.3198204  43.0991669
  62.9463387  36.6433449  43.3944359  77.3469696  44.8177109  61.0038757
  76.6977234  45.4509354  61.3100357  78.1517639  45.3270340  60.9082870
  79.0359802  63.8406982  81.3920975  78.5972519  63.0571022  81.0608521
  79.3927383  64.2636948  80.6110535  79.5670776   3.6845455  54.6141319
  79.7065659   2.7848260  54.3186989  80.0743027   3.7523735  55.4230537
  26.6205254  68.3397064   3.5617840  27.5018158  68.5017242   3.2251720
  26.6108341  67.4049454   3.7675774  53.0181885  29.7259445  25.1663475
  52.8567085  29.1291466  25.8970928  52.1451302  29.9754333  24.8634377
  64.4675293  50.0856819  76.4270706  64.7160034  50.9767723  76.1812057
  63.9626503  50.1916542  77.2333603  36.3990517  62.8018951  73.8400345
  36.5940247  63.1535645  72.9713898  36.2699966  63.5758209  74.3883133
  21.2485561  33.9442825  17.9402637  21.5223923  34.7976799  17.6041660
  20.6802826  34.1502876  18.6824627  20.8300304  58.9996185  28.9824982
  21.6223640  59.2257652  28.4953671  21.1399002  58.8058243  29.8671761
  81.8750458  68.4787750   2.0832438  81.8282700  68.1348953   1.1911707
  81.8602219  67.7009125   2.6408668  63.9261055  56.5514030  85.6915436
  63.6558533  56.5645561  86.6097031  64.8806458  56.6159515  85.7218781
  84.2347183  37.3758392  71.1407928  84.0389786  37.3659859  70.2038727
  85.0382767  37.8910370  71.2121964   6.8751402  11.1409864  57.5740738
   6.3502460  11.0718861  58.3715363   7.1991944  10.2530794  57.4229431
  38.5227127  37.0998535  50.1039276  38.7636108  38.0041618  50.3049850
  39.1453552  36.8306122  49.4286079  38.1231194  60.7915115  54.8376656
  37.2613525  61.1171150  55.0976067  38.6942940  61.5578842  54.8893127
  32.7126198   2.0240076  56.1836853  32.7821770   2.9699886  56.3121872
  33.5906944   1.6917433  56.3702812   6.7978697  21.6742516  19.4423656
   6.1018705  21.0221272  19.5233078   6.4204679  22.4740582  19.8085728
  66.0985336  34.4400864  71.2789764  65.1835632  34.4301491  71.5599899
  66.1639633  35.2018967  70.7031403  73.4212265  44.4465332  20.2012615
  73.8455811  43.6824951  19.8108730  73.8278580  44.5318336  21.0635872
  76.5106506  68.1149063  14.3871336  75.8662567  67.9251251  15.0690174
  77.3477554  67.8498230  14.7682209  65.4812164   8.7758007  87.8638992
  66.4367065   8.7266159  87.8347244  65.2832565   9.0624914  88.7554398
  32.0655403   3.5464256  88.9180984  31.2686749   4.0630269  88.7982407
  32.7723770   4.1279764  88.6380768  12.6147614   5.2152977  54.5867996
  13.2249050   4.7624846  54.0046349  11.8073053   5.2878704  54.0778999
   3.8619411  57.4222069  49.6797829   4.7543616  57.6978607  49.4704247
   3.8585331  57.3247566  50.6320038  80.5889816  16.6049271  54.4052734
  80.0497665  17.3204880  54.7420998  80.6500931  15.9874907  55.1341553
  83.3939819  31.4190865  76.1369934  83.2089005  31.2105389  75.2213058
  83.0274506  32.2944374  76.2620926  48.6881447  33.3803291  68.3261719
  49.6168785  33.3245354  68.1012802  48.5254097  32.6064835  68.8655396
  65.0033112  70.7052765  55.4517593  65.2477798  71.5293579  55.0306320
  65.6761169  70.0845337  55.1720314  57.7638206  58.6122360  38.8790283
  56.8802948  58.6050148  38.5108414  58.2059021  59.3307533  38.4267769
  75.4121170  68.7005768  35.4938774  75.9877701  69.2370834  34.9488907
  75.8582840  67.8558731  35.5542603  69.9636459   5.1622453  65.2097321
  70.7817993   5.2721958  65.6942596  69.4075928   5.8800950  65.5126038
  42.5595627   3.1377270  72.3059006  41.6306152   3.3398771  72.1944351
  42.8376579   3.6860714  73.0395279  66.8604736  33.0618172  18.6345787
  66.4925690  32.7098198  17.8240395  67.2945633  33.8723412  18.3684063
  44.9861679   2.1222196  79.8721848  44.6694832   2.8602817  79.3514099
  44.5411682   1.3597032  79.5023575  70.4585953   6.1722827  29.7699966
  70.5936356   5.3444200  29.3088703  69.9931717   6.7236419  29.1410141
  74.3975220   6.8056493  84.7431717  73.5366745   6.9086695  84.3375168
  74.5840683   7.6612210  85.1297302  59.5574417  48.9903145  64.4839096
  58.9942398  48.6298065  63.7990189  59.1336403  48.7328758  65.3026581
  53.3215446  57.8751335  18.4779911  52.6455956  57.4998970  17.9136162
  53.6786957  57.1258202  18.9546528  64.3710632  21.7563038  17.7503014
  64.6601105  22.2595043  18.5115318  65.1795502  21.5366440  17.2873440
  65.0522003   8.2809038   5.0853133  65.0192566   8.6994801   4.2251158
  64.6907730   8.9346714   5.6838026  66.5408325  44.3078537  19.7749863
  66.9297791  45.0528908  20.2331047  65.7276688  44.1332932  20.2488174
   1.4495330  28.6923885  22.1876602   2.1471770  28.4461250  22.7950134
   0.7546803  28.0542755  22.3496017  18.1791534  70.2841644  18.0533123
  17.2852497  70.4371185  18.3595333  18.5847721  71.1511688  18.0556259
   2.3635762  36.8711853  83.1816330   1.8058331  36.2863693  83.6946106
   2.4641767  37.6488190  83.7306290   6.2878499  54.4931908  60.7190704
   6.3055978  53.5840950  60.4199677   5.3719163  54.6525383  60.9468994
  42.1676788  60.2018471  15.9941626  42.2762985  60.2647285  16.9430981
  43.0597420  60.1259880  15.6554842  74.4094009  17.0873241  62.4383583
  74.1456757  17.8007317  61.8572159  75.1526718  17.4395657  62.9279633
   6.2526355  34.8888893  38.6948166   5.3656268  35.1923409  38.5015144
   6.1780515  34.4576492  39.5461082  34.5976639  69.2450027  73.2709503
  35.3973618  69.1339417  73.7851257  34.0490570  68.5003662  73.5174789
  70.5263901  10.3964024  39.4668045  70.5989532   9.4844522  39.7484322
  69.5852585  10.5441427  39.3736382  21.7799892  53.4949913  22.3791275
  21.5496845  54.2319832  22.9448433  22.6682034  53.2572517  22.6451836
  22.1949120   4.9091511  82.0714951  22.7946930   5.3656631  81.4815063
  21.8732262   5.5913253  82.6608963  78.9692383  62.2137337  37.4210396
  78.2962036  62.2550316  38.1004143  79.1996765  63.1280594  37.2562904
  12.4911985  27.9154797  77.0896454  12.1413708  28.8058147  77.0556641
  13.3577318  27.9831505  76.6886826   4.1279674  14.1242704   5.8680000
   3.1728795  14.0637684   5.8874569   4.4253364  13.2145519   5.8532801
  70.7947998  16.1813107  26.7990799  71.3929062  16.9250431  26.7258797
  71.3451996  15.4605656  27.1053696  19.3028316  52.5391235  10.9697533
  18.9948444  51.9211578  11.6326990  20.1742516  52.2217026  10.7328892
  55.8909531  55.4431610  74.3450623  55.7489853  54.9922714  75.1773987
  55.3625221  56.2386017  74.4103928  61.4501686  27.8745766  55.9070435
  60.7138252  28.0754452  56.4846916  62.2263832  28.0382843  56.4426956
  17.0213623  38.2465668  23.4757290  17.5023041  38.3717461  24.2938118
  17.6021385  37.7101212  22.9361401  46.5341682  63.0108528  49.4601898
  45.5932503  62.9857903  49.2861900  46.5995216  63.1816177  50.3997650
  28.7047272  66.1865692  34.4103775  28.2950706  65.5271530  34.9703598
  29.2245998  66.7210236  35.0106430  56.7049446  33.5649109  15.2423611
  56.1070404  33.5044632  15.9874029  57.5312576  33.2087784  15.5688782
   3.9999824   3.0565083  81.4501572   4.1617169   3.3384824  82.3504715
   3.4587414   3.7512469  81.0751572  47.5239601  51.5472565  40.1350327
  48.0610466  51.0695496  39.5029221  47.2751389  52.3511086  39.6788063
   6.1486611  32.2765465  37.8315277   6.3729835  33.1753464  38.0724945
   6.3411536  31.7630901  38.6160927  81.6172409  53.2004356  27.7937717
  81.9570465  53.8984184  27.2337837  81.0004883  52.7253990  27.2368259
   4.4422832  23.2106934   9.7193089   5.0799580  23.9102249   9.8616343
   3.7099514  23.6404324   9.2774429  10.1757994   8.4458561  74.1664963
   9.2321224   8.2957439  74.2228165  10.3029232   8.8523064  73.3092499
  49.8908691   8.0416155  65.3172684  49.1386719   8.5446959  65.6292648
  50.2031364   8.5265512  64.5533600  64.7498016  48.2184525  79.5075073
  64.8849106  47.4414635  78.9650497  63.8177376  48.4158745  79.4152069
  86.8495331  26.2803249  40.0345726  86.5933151  26.1342449  39.1239433
  86.0432587  26.5595150  40.4683990  81.6933365   2.6772199  37.1527176
  81.5188599   3.1540680  37.9641380  82.1029892   3.3239925  36.5781708
  17.1810474   0.9948840   1.3405775  17.0930862   0.7274945   0.4257018
  17.8532963   1.6761632   1.3274195  21.7385616  23.5482826  66.2457504
  22.6457710  23.6562290  65.9601746  21.2491302  24.1959076  65.7385330
   8.4964104  51.7234344  80.7600632   9.0842819  52.0275497  80.0685730
   8.8373585  50.8626022  81.0028687  40.2021141   4.6389799   5.3790255
  39.7839775   4.0545726   4.7466798  39.4821777   4.9567881   5.9239254
  22.5161285  36.1608009  33.7337341  21.8027458  36.7481728  33.9833527
  22.1624794  35.2821579  33.8721123  23.4865627  11.3337536  14.6707439
  23.2106171  11.1606789  13.7706709  23.0485516  10.6590071  15.1894884
  83.1520920  62.4262657  18.6422462  82.6650314  63.0180054  19.2157001
  83.0193405  62.7813377  17.7633095  43.0321884  67.8445511   3.7258737
  42.3084755  67.3966064   3.2879121  42.6118927  68.5377045   4.2349124
  84.7225342  29.0924816  83.6339645  85.4017868  28.4452095  83.8234100
  83.9681168  28.5734215  83.3552856  36.8673744  44.6193161   5.0857601
  37.0704613  44.5371056   6.0175481  35.9297523  44.4356155   5.0278692
   5.2060041   6.2996392  36.5645752   5.9991031   5.9129148  36.1935349
   5.2069974   6.0170598  37.4791107  32.3874435  50.4870415  25.4827328
  32.1944885  49.5622139  25.3287983  31.8719845  50.7136383  26.2568054
  16.7217464  60.5481949  28.0010262  17.3804531  59.8540802  28.0243282
  17.2254620  61.3522644  27.8746586  71.8855362  29.7997036  44.0565529
  71.4130249  30.0034790  44.8636742  72.1633759  30.6516495  43.7200699
  45.3446465  48.6740952  88.2470398  44.9637604  47.9431496  87.7603455
  45.0358276  48.5509911  89.1446533  85.2777786   0.9668502  17.2570839
  84.5867233   0.6865844  17.8571911  85.2148590   0.3602589  16.5193024
  36.4039192  19.1677246   2.2875273  36.5039291  19.6850872   1.4884244
  36.1576614  19.8060970   2.9569070  39.1868515  46.4050598  65.6157608
  39.5566673  46.0397263  64.8120193  38.9141693  45.6405144  66.1230545
  82.7577057  70.3268433  87.8795700  83.5643768  70.7608566  88.1573410
  82.7125702  70.4859009  86.9367599  20.3632336  51.4215393  -0.3149641
  20.5510864  50.7330246   0.3229174  20.8376980  52.1861954   0.0112503
  12.6963673  22.6860142  64.4195328  11.8395367  22.9102268  64.7825775
  13.1428976  22.2225914  65.1281128   2.4879456  14.5541811  80.1572113
   3.3524892  14.5074959  80.5653992   2.3639681  15.4835348  79.9644394
  61.8820877  57.7077980  25.4426880  61.8169708  57.0445213  26.1297493
  62.5405960  58.3230171  25.7653389  29.5288963  63.2953644  58.0897484
  28.9741802  62.6795006  57.6109619  29.4701576  63.0113602  59.0019531
  85.8558044  24.0581303  32.1542473  86.3292694  23.8318539  32.9547882
  85.1757584  24.6671085  32.4421921  58.2699013  61.2806435  17.2218857
  57.4219322  61.0655479  17.6103706  58.1670837  62.1776276  16.9039555
   9.2715111  70.7621536  29.4377003   9.8529396  70.9541550  28.7019634
   8.4352827  71.1576614  29.1916771  32.5105133  59.0266457  48.4554558
  32.7573471  59.1814651  49.3672333  31.5538082  58.9984550  48.4677963
  37.5330696  56.8099785  81.2327118  37.6074905  57.6958885  81.5874786
  37.3076668  56.9390602  80.3114243  15.9107027   8.6197186   4.0175452
  15.7285633   9.4497633   4.4580936  15.1772499   8.0542164   4.2593822
  76.7840195  26.4397068  72.0380707  76.9508438  27.2972908  71.6469803
  75.9912491  26.5645027  72.5597687  31.2385635   1.2157896  64.0457764
  30.9476585   1.1409167  63.1369286  30.4531269   1.4738777  64.5281754
  77.3641052  13.2432070  60.2457886  76.9531326  12.4119740  60.4832420
  76.8007736  13.9098234  60.6388626  37.4712029  66.0140839  13.2176685
  37.3929710  66.9297409  12.9499311  38.4143448  65.8541718  13.2514887
  63.8798523  49.7187004  63.1742935  64.1022034  48.8281326  63.4457359
  64.3922501  49.8615112  62.3785019   7.4020634  59.7479248  12.4643469
   7.3454175  60.6704521  12.7132769   8.3082371  59.5041161  12.6531229
  60.6860085  24.9068336  71.6914597  60.3629913  24.3101330  72.3666153
  61.4341583  25.3449917  72.0970688  73.6775665  27.8218021  56.0543098
  74.5626831  27.5447655  56.2910538  73.7918243  28.3259392  55.2486916
  77.6103592  37.2244759   4.3464975  77.1451645  36.6908302   3.7022524
  77.2270279  36.9736061   5.1869478   2.6310375  19.9169636  76.0555115
   2.0202651  20.0156956  75.3251419   3.3120420  20.5684223  75.8879852
  12.7068176  62.9415550  38.2683792  12.0146656  62.2803955  38.2632980
  12.5232954  63.4744911  39.0420265  36.6506348  39.5657158  59.5967598
  35.7649994  39.7374268  59.9167519  36.6243629  38.6577759  59.2947960
   7.8303046  14.9888783  23.8311424   6.9119091  14.8076811  24.0310135
   8.2805376  14.8985510  24.6710014  83.5719223  59.2364235  68.6155853
  84.5111389  59.0578995  68.6629333  83.1954651  58.4404716  68.2401276
   5.1144524  38.0354843  46.2003860   4.3839736  38.6359940  46.3487663
   4.8518367  37.5232201  45.4356270  79.8078308  68.3340073  68.1657333
  80.4976425  67.6832428  68.2957230  79.7601471  68.8022461  68.9992294
  27.4540329  66.3278198  22.1390419  27.3084488  65.3852615  22.2203789
  28.3835487  66.4090500  21.9254246  24.4005184  21.2973156  43.1806068
  24.8458748  21.2509594  42.3345909  24.6089897  20.4660187  43.6068878
  86.6120071  65.4121170  85.7641983  85.7899704  65.8447189  85.9951630
  86.3675156  64.4994812  85.6107712   1.2367152  25.7650490  78.7391357
   0.9221609  25.1085377  79.3606491   1.2032610  26.5895386  79.2242432
  77.7276154  21.1851997  54.9480438  77.4092712  21.8792992  54.3708801
  78.6788330  21.2919979  54.9490471  13.9256134  64.8279037  10.8973827
  13.6480732  64.1437607  10.2881603  14.8678741  64.9111557  10.7509460
  62.0769501  26.8430939  78.6770020  61.3403778  26.2955475  78.4051819
  62.8471985  26.4058380  78.3140182  44.4258881  38.3606949  70.1335373
  43.8176804  38.1923904  70.8532486  44.1377754  39.1966896  69.7670135
  72.4235153  43.5067558  11.0627441  72.1486740  44.4034538  11.2541323
  72.3841400  43.0586777  11.9076738  34.8401718  40.7224274  80.7962189
  35.1153526  41.1423721  81.6111832  35.3067093  41.2008209  80.1108627
  37.0253334  68.4454193  11.7262707  36.6056137  68.6672440  10.8950911
  37.9632492  68.4993439  11.5428677  75.6195831  25.1858521  76.3932648
  76.1549530  25.5716534  77.0866394  75.6975327  24.2413845  76.5279465
  70.3526382  15.4517908  46.8956528  70.6353989  16.2624683  47.3188362
  71.1055832  15.1804476  46.3706017   9.1704893  30.4412842  85.0832291
   9.6520119  29.6353683  85.2699661   8.5884333  30.5521717  85.8349915
  17.9255676   3.5190201  53.1995087  18.3294220   2.7241030  53.5477066
  18.5222855   3.8082154  52.5092010  62.8410492  58.8641396  10.1254730
  62.2570305  58.3752518  10.7052507  63.6473961  58.3486633  10.1076260
   3.4063659  32.0767517  81.0690079   3.0805540  31.2123260  80.8183060
   4.2746382  32.1305084  80.6697006  54.7919159  15.2556734  84.4209900
  55.6248627  15.2848358  84.8917160  54.1656914  14.9207706  85.0627975
  43.1250458  36.8291512  83.0086365  42.4971428  37.0275612  83.7033310
  43.0232430  37.5455322  82.3819962  40.9837494  54.9492302  29.9938545
  40.0681572  55.2155190  30.0775661  40.9998474  54.3871422  29.2192402
  69.7747726  29.8485889  55.6708527  69.3965454  29.4994965  54.8638191
  69.0670853  29.7885456  56.3125725  64.8306732  38.5560646  42.7374115
  64.7373123  38.0839958  43.5648575  64.7998657  37.8732414  42.0673065
  63.0896835  17.6635036   0.1638904  63.7686005  17.8538532   0.8112459
  62.9327698  18.5011292  -0.2719944  46.0811195  52.8430214  88.3891220
  45.2127953  52.8814659  88.7900772  46.1025543  51.9953499  87.9450302
  78.8061295   0.8642754  85.3317261  78.4391937   1.6180470  85.7936935
  79.2674713   1.2432498  84.5835419  85.3474960  70.7680206  80.9886017
  85.3481750  69.8607559  80.6834869  86.2272034  70.9028778  81.3409653
  54.4490509  58.6100006  15.5853262  53.5704918  58.3487511  15.3094397
  54.3088341  59.3858032  16.1281929  14.1607466  11.9499626  84.5014801
  14.0025301  11.3535242  83.7697296  13.9033403  11.4512787  85.2769089
  28.0187645  59.2355270  52.6915627  27.1124458  59.1499252  52.9873505
  28.3219643  60.0548935  53.0826302   9.1818409  28.7883492  56.4607010
   8.5924740  29.5355549  56.5634804  10.0438690  29.1284924  56.7003670
  37.5837517  65.1345444  15.8201599  37.2238731  65.2935486  14.9475574
  38.4906006  65.4356613  15.7637634   7.8050795  22.2019730  86.5321808
   7.1189451  22.7042274  86.9717178   8.0188122  22.7178555  85.7547379
  17.4246349  51.8656654  43.5502739  17.6890030  51.5903130  42.6724777
  18.2155914  51.7677078  44.0803909  63.0028801  51.3725510  51.8776932
  62.2674904  51.4591217  51.2711143  62.7941780  51.9719467  52.5942154
  54.5199776   0.6082602  39.2125053  55.3533020   0.7616090  39.6578026
  54.3494682  -0.3252052  39.3382072  43.6624565  44.8459282  44.3601990
  43.8387070  44.4859924  45.2294617  42.9117393  44.3450012  44.0412521
  18.0998631  62.1284409  53.7540398  18.6397495  61.5945473  53.1711884
  17.3432713  61.5765572  53.9520912  41.3931503  16.4913960  64.4192505
  41.2152939  17.1160011  65.1224289  40.7144547  15.8232450  64.5150375
  61.8365440  48.7776337  43.9250717  62.0818062  48.1521263  44.6068497
  61.8409271  48.2648849  43.1167984  30.5505505  55.6115036  13.7158327
  31.5060120  55.6113129  13.7734928  30.2691097  56.2128067  14.4053679
   6.9421349  56.7260971  38.8259964   7.0507145  56.9479370  39.7507820
   6.4050102  55.9338226  38.8312035   1.3225166  17.0221195  70.3904114
   0.6975173  17.5461674  69.8894348   0.9211547  16.1546249  70.4413223
  15.6441479  37.8708000  56.7776031  16.2594910  37.8320236  56.0454292
  15.3010845  38.7641258  56.7550964  54.4004402  16.8247528  26.4385147
  54.1561508  17.6141720  25.9554272  55.2957687  16.9916534  26.7330647
  23.8502159  28.9093819   9.6299143  24.6144066  28.6067295   9.1393566
  23.1378479  28.9044285   8.9905882   7.9027467  19.3202305  61.3874931
   7.1692696  18.8792934  60.9587517   7.9789863  20.1577854  60.9304123
  17.7114754  31.5012646  69.5889053  16.8190441  31.1574898  69.5486832
  17.6036549  32.4518280  69.5566940  32.7613869  69.0622330  30.7381706
  33.2749214  69.0036774  31.5438309  31.8679199  68.8493118  31.0076370
  30.1964207  65.7414551  14.2319050  30.8715611  65.1548080  13.8909245
  30.5574074  66.6193619  14.1086082   9.1192036  20.0153351  87.7148361
   8.7232466  20.7055302  87.1827850   9.8911190  20.4261570  88.1042023
  40.5635910  42.0799637  78.8686981  40.0036278  42.4731750  78.1993256
  40.7670746  41.2084961  78.5290451  78.5948868   0.0452184  33.8213120
  79.4247437  -0.0148950  33.3480721  78.6460648   0.8784443  34.2896576
   6.1311436  66.6548691  14.5941610   5.3163261  66.1902390  14.7850075
   6.1287632  66.7617569  13.6429510  61.5476761  45.6128159  77.3955841
  60.6094170  45.6504440  77.5812759  61.6204185  45.0182304  76.6489868
  61.6481857  33.7881622  20.5964260  62.5066032  33.3828506  20.4736538
  61.4318008  34.1551590  19.7392654  16.4008331  35.7475395  21.2428493
  16.3583965  35.0560799  20.5823078  17.2397575  35.6079826  21.6821213
  11.3919153  55.5342407  14.3587770  10.7170219  55.8817253  13.7756777
  11.1517696  55.8622398  15.2253675   6.1288190  17.7455139   2.2274361
   5.3805485  17.3632584   1.7689565   6.4421082  18.4346409   1.6416153
  16.4435482  16.6718845  80.9116440  17.3335953  17.0238705  80.9240189
  16.5104160  15.8352871  81.3719330   3.7947254  51.6805038  11.6500549
   3.1911526  51.2707901  11.0303259   3.2310693  52.1905746  12.2317371
  37.2236061  57.6145744  36.1161461  36.6123314  57.5231323  35.3852463
  38.0833282  57.4417648  35.7324219  72.3747864   1.4010382  80.8532715
  72.2122345   0.6321994  80.3067398  73.0341187   1.9015096  80.3726044
   0.5895042  64.8287048   7.2715836   1.2073894  65.3216324   6.7317033
   0.5737399  65.2973328   8.1060696  20.6329002  46.7382011  18.3820877
  21.5890312  46.7064171  18.3499603  20.4352837  47.5685043  18.8154240
  27.8686981  17.6501789  68.0344696  26.9205456  17.5764160  67.9258575
  28.1311016  18.3180847  67.4010086  60.6148415  53.2835274  57.3467865
  61.0267982  52.6757545  57.9609032  60.2418251  52.7216034  56.6675720
  68.3498688   5.1220989  36.2035103  67.5768280   5.6254015  35.9479218
  68.1505356   4.8083630  37.0855904  66.0590363  48.1838913  38.3366737
  65.3017654  47.8239288  37.8749352  66.8075943  47.9499969  37.7878647
   8.4945173  13.4424524  63.3616943   9.2675772  12.8985090  63.5124779
   8.4497967  13.5366096  62.4101868  40.2978592  55.8966713  58.1086693
  40.1863594  56.8154297  57.8643799  39.5553093  55.4491539  57.7029877
  20.4107838  69.5305862   0.9787705  20.3649254  69.7474136   0.0475817
  20.9756126  68.7587662   1.0174340  13.9195290  42.2743683  87.7799911
  14.6587801  41.8365746  88.2019806  13.9831839  42.0185547  86.8598022
   4.4670916  58.3546562  22.7426586   5.1787891  57.8418274  22.3596115
   3.7154150  58.1819878  22.1757355  32.9311104  47.1735344  54.6869469
  32.6193008  47.2352524  55.5898285  32.6676979  46.2985611  54.4018669
  14.8150167  67.4806747  45.6424332  14.7140493  66.5616150  45.8901672
  15.6713724  67.7297516  45.9900665  60.4890823  18.8939514  70.3782654
  60.8080406  18.9672127  71.2777786  60.3330231  19.7979755  70.1051025
   2.9642615  37.3230362  75.1244431   3.0257802  36.4138680  74.8314209
   2.4260633  37.7529869  74.4598236  15.8234005   8.5925331  55.0762901
  16.4101925   9.2970123  54.8013039  14.9847488   9.0266600  55.2325859
  81.7485580   7.4478993  18.7135544  82.4675598   7.1608272  19.2764530
  81.0962143   7.8000274  19.3191032  19.4541149  40.6783829  26.9421597
  19.6624165  40.9273682  27.8426304  19.6735229  39.7479095  26.8940868
  29.6970730  33.8855286  72.0001068  29.8632030  33.0588303  71.5471039
  28.7428341  33.9488258  72.0407333  77.4639282  13.3233757  39.6047897
  77.7765579  13.7089920  38.7863770  78.1258011  12.6694679  39.8296432
  82.9991379   4.6999898  76.0655594  83.6045761   5.3388767  75.6893845
  83.5556107   3.9642684  76.3210754  69.5311356  13.1782770  21.0677776
  70.4132156  13.5499668  21.0647259  69.0267258  13.7631531  21.6332207
  22.7155151  64.6127472  47.4025192  23.0108032  65.4743195  47.6970100
  21.8111992  64.7525864  47.1216507  10.3389053  64.0469742  40.5986977
  10.8545237  64.6006088  40.0123062   9.6335697  64.6160507  40.9067421
  16.2907524  34.1935463  13.0934086  16.1094723  33.2542725  13.0598259
  16.5705662  34.4153786  12.2053061  56.4172630  61.5596581  66.2266006
  56.8204193  61.3327446  65.3886261  55.5565643  61.1417084  66.1992798
  46.3586807  23.6146355  59.1320534  46.1621323  22.6945934  59.3084717
  45.7001152  24.0998287  59.6291542  66.6047287  16.9554005  56.4549217
  66.5900192  16.2429543  57.0940132  65.8555450  17.5030708  56.6894798
  17.0418396  34.2289429  72.6142578  17.1210861  35.1779060  72.7113495
  16.4616718  33.9628220  73.3275681  40.0656242  15.2946358  70.4566422
  39.4713249  14.5990696  70.7381210  40.1883392  15.1403389  69.5199661
  15.6099501  10.8929882  18.6314640  14.9909945  10.9377375  19.3602448
  15.5256596  11.7398281  18.1932964  18.1322708  66.3330460  28.9005527
  18.6939774  65.9374466  28.2340565  17.3020496  65.8628387  28.8239326
  36.8619003  53.0212288  21.5853214  37.7770653  53.3016167  21.5761642
  36.6456757  52.9396515  22.5142040  22.5809193  65.2563248  70.0202103
  22.4035664  64.5477524  69.4015732  23.4798603  65.1015549  70.3103561
  71.5230560  46.5363579  14.5081768  70.8349152  47.1371574  14.7940588
  71.6140747  46.7052383  13.5704002  73.3947220  63.8592148  22.5812893
  73.4503784  63.1132126  23.1784630  73.7131958  63.5205078  21.7445793
  68.8092270  62.3344612  56.2697296  69.3659058  61.5858383  56.4839897
  69.1158905  63.0338936  56.8467751  12.2166748  27.0021935  53.3839951
  11.3648930  27.3675861  53.6231346  12.8065729  27.7559605  53.3747253
  41.3220482  60.7440186  73.4750214  42.1696129  61.0635986  73.7844315
  40.7284279  60.8873672  74.2121124   2.3572431  54.5129547  32.5218468
   2.2463648  53.5718765  32.6571693   3.2234356  54.5972023  32.1232948
  48.0402031  24.4814816   4.3353162  48.9571991  24.6799755   4.1457095
  47.5831223  24.6512737   3.5116177  33.3610573  54.9380341  49.6327629
  33.8295021  54.8894730  48.7994347  33.6133156  55.7850914  50.0003166
  57.9066277  58.5394058  42.0319481  58.7957153  58.8201637  41.8153076
  57.3909645  58.7565117  41.2552948  45.9458618  54.9378052  17.0899830
  45.4882164  54.2158775  17.5208111  45.4568863  55.7192383  17.3478508
  42.8772011  59.8149261  25.3071098  41.9269829  59.7489090  25.4017754
  43.1472321  60.4072495  26.0088692  57.4872971   4.8949533   3.9008303
  56.7167892   5.1180949   4.4230952  57.1326828   4.4668226   3.1216099
   6.1488595  42.3516045  16.9417553   6.1876359  42.9828491  17.6602669
   5.2651119  41.9871368  16.9905758  50.2564659  48.4353371   9.4623680
  49.6033554  47.8419876   9.8333368  50.0685844  49.2819061   9.8676453
  28.4079399  42.1344528  79.2411041  28.5394707  42.7776222  79.9377136
  28.6206608  41.2943230  79.6475067  42.0766830  67.2231750  14.8051834
  42.6292038  67.9689255  14.5710630  42.6716766  66.4733810  14.8002825
  78.3109207  49.0524139  76.5950394  77.6583862  48.8470726  75.9255142
  78.0173721  49.8833313  76.9687195  54.4414825  34.9472198  52.7191582
  55.3495827  34.9913368  53.0185471  53.9500542  35.4481392  53.3701668
  74.5362778  55.3172150  13.0018024  74.7420425  54.4169807  13.2537451
  73.5965042  55.3062859  12.8202963  27.2126083  38.8157005   2.5976834
  26.4388695  38.2835045   2.4124050  26.8901463  39.7169380   2.5929761
  69.4911499  49.6588249  74.9806824  68.5755234  49.6708565  75.2594681
  69.5041046  50.1806831  74.1783600  18.1167374  41.7217293  68.1024551
  18.8027782  41.7907677  67.4385147  17.6725655  40.8975906  67.9031067
  66.2445450  25.2436085   7.3924117  66.0693512  24.7227383   8.1761417
  65.3772888  25.4694633   7.0561252  78.0422821  31.8587780  15.1521568
  78.3834839  31.3269196  15.8711424  77.2183533  31.4353828  14.9110909
   7.4491639  34.1288719  84.0260620   7.5816011  35.0554161  84.2265778
   7.0421753  33.7690506  84.8141708  72.2863388  53.6847305  39.8905182
  72.7287827  53.5810242  40.7329712  72.7401047  53.0781212  39.3054085
  36.8911438  65.4929733  51.8510208  36.6718292  65.2731705  50.9455795
  37.8025208  65.2177048  51.9502907   3.5695632  63.4073753  13.0941877
   3.4617569  63.4449463  12.1438198   3.9410403  62.5407333  13.2590199
  10.7935295  34.9145813  35.9107628  11.3638630  35.2663078  36.5943146
   9.9311857  35.2811546  36.1062584  58.5278740  46.4923592  11.3597860
  59.3696861  46.3676949  11.7980118  58.0398941  45.6901741  11.5458126
  52.8863487  61.3159599  49.2092323  53.1845093  61.8791466  48.4949837
  52.7793007  61.9088631  49.9530334  78.5807953  61.4853363  86.2120819
  78.2354202  60.6527901  85.8898773  77.8116455  62.0498123  86.2895355
  23.2359390  69.6977005  81.8590088  22.3823280  69.8882446  82.2479477
  23.7291908  69.2723923  82.5604706  66.2527008  45.8399696   6.8834019
  66.4650650  45.5549431   7.7721605  66.1778412  45.0275574   6.3827901
  76.4463196  17.2285557  50.1518288  77.0791855  17.3346119  50.8620911
  76.5744781  17.9998779  49.5996819  16.2139435  69.9252777  37.2374916
  16.3617210  70.4850388  37.9997635  16.6114883  70.4025345  36.5091934
  34.1079865  17.9605427  18.0741463  34.9115562  17.5387287  18.3784218
  33.5378189  17.2347851  17.8203411  21.7540398  21.4116268  68.3331680
  21.1733303  22.1659374  68.4332733  22.5783424  21.7838707  68.0198135
  49.3883476  53.6943512  18.4101658  49.0863609  52.7875443  18.4625111
  49.2330360  53.9463501  17.4998875  76.4635849   8.8227129   8.0159903
  75.5998688   9.1383162   7.7502475  76.2840500   8.1923046   8.7135458
  23.2963448  53.5043449  37.2835197  23.9277992  52.8053551  37.1134872
  23.8189316  54.2131920  37.6585846   3.1852264   1.9124156  38.3581200
   4.0968995   1.7283412  38.1318436   2.7428100   2.0040452  37.5142555
  25.1649227  55.0375481  49.0784111  26.0344715  55.3305244  49.3509560
  25.3320141  54.2771988  48.5214767  26.2650394  20.3391972  67.0760651
  27.0138855  20.1105576  66.5254364  26.6283245  20.4049244  67.9592056
  61.8147049  20.7900906  29.4709911  61.9052353  21.3404007  28.6930485
  62.6459618  20.8919983  29.9345188  31.0580788  67.0770645  40.4522247
  30.1256142  66.9411850  40.2840576  31.0833359  67.7539520  41.1285477
  41.4879608  62.4742775  20.8706226  42.2838135  61.9963722  21.1039829
  41.0445137  61.9073868  20.2395725  11.1741238  26.3287525  17.3839035
  10.2236395  26.4158726  17.4561672  11.3380489  25.3924122  17.4962769
  54.3043709  38.0550995   4.5198050  55.0909119  37.5116043   4.4729009
  54.0683174  38.0552559   5.4474430  38.6353455   0.3932399  86.3440552
  38.4859924  -0.1755758  85.5888214  37.9422340   0.1588589  86.9612122
  73.4355621  69.5641479  74.0595856  72.9722214  70.2862854  73.6352463
  74.2818604  69.9358368  74.3083115  59.6995468  33.7017899   3.0162318
  59.7679634  33.9503860   3.9380510  59.2877960  32.8378029   3.0310872
  20.3366528  32.0651245  14.0046425  20.1630611  32.8297310  13.4555798
  19.9987946  31.3257084  13.4993210   3.8787236  50.8073540  55.3319778
   3.4359174  51.6236916  55.1001434   4.5532799  50.7018890  54.6610947
  59.2747231  55.2781601  58.9559517  59.9281769  54.8387909  58.4117203
  58.7639771  54.5652390  59.3395081  26.1925907  68.2527390  88.8428116
  26.8234100  67.5343857  88.8904877  26.6418533  68.9331207  88.3413391
   1.5795140  69.4848938  69.2919693   0.7052280  69.3864670  69.6690216
   1.4210663  69.7415009  68.3835220   9.9174261  44.4933205  23.7590542
   9.0711079  44.3495445  24.1824970   9.7133160  44.5382652  22.8249493
  86.5206375  41.0066872  14.3843346  85.7899017  40.7397804  13.8266420
  86.1778641  41.7416687  14.8927994  57.3440437  12.5640173  68.3917923
  57.8033676  13.3482103  68.6922836  56.4224510  12.7381973  68.5830002
  58.6625175  15.8808613  59.7160225  58.9842186  16.7797966  59.7842331
  58.8141708  15.6409206  58.8018761  78.1696548  18.9213524  83.5997162
  78.1427460  18.1096230  83.0931625  77.6835480  19.5516682  83.0680847
   2.3980491  55.4206390  84.4924545   1.4579482  55.2682304  84.3964767
   2.6705902  55.7764359  83.6466675  34.4977722  70.0425873  38.9137650
  34.6126022  70.8910828  39.3416672  34.6546555  69.4015198  39.6070633
  76.0789185  46.6231003  75.8246231  75.2528229  46.1825485  75.6253586
  75.9255829  47.5379105  75.5883255  21.1566620  38.8331833  28.0651340
  20.4839649  38.4170265  27.5261326  20.7785015  38.8568687  28.9441471
  57.7963142  42.4381180  60.2444153  57.0513306  42.0404816  60.6950951
  58.5410652  42.2754860  60.8233185  61.2944565  17.2371063  31.0323029
  61.9382019  16.5315475  31.0956020  61.7523499  18.0095615  31.3637753
  28.4179287  42.6420441  68.6337662  28.9516792  42.0911331  69.2063446
  28.2516098  42.0974121  67.8643875   3.0264132  58.2082176  13.6320810
   2.1996319  58.1388817  14.1094246   2.8494539  58.8425560  12.9374352
  84.6267395  40.7875938  18.7824364  85.3055725  40.3197098  18.2961273
  84.4005966  41.5307732  18.2231712  60.4513474   6.1995072  26.0166626
  61.3899307   6.3165460  26.1636219  60.3981361   5.5669188  25.3002586
  21.2186794  44.2620544  83.6785126  21.3045425  44.5554085  84.5856018
  20.3070602  44.4465790  83.4523849  82.5237808  62.6921730  63.1242104
  82.2183914  62.0476990  62.4857597  81.9535065  63.4494362  62.9916763
  16.4661255  41.6081924   0.3785913  16.5021572  42.0605621   1.2213812
  17.3567276  41.2851219   0.2418983  18.9670124   3.3119099   0.8280653
  18.6861382   3.2428138  -0.0843864  19.0849609   4.2508602   0.9719127
  60.7595367  24.4473495  47.7683601  59.8523521  24.7517929  47.7446289
  60.7831383  23.8210297  48.4918213   8.4585304   3.8630910  69.2241592
   8.6396456   4.3987398  68.4518204   9.3186693   3.5535531  69.5080261
  72.9260712  67.3418121  33.9976501  73.8651733  67.5011902  33.9031792
  72.5260773  68.2067413  33.9074554  60.3342438  18.5835590  28.6617470
  60.8307381  19.3902817  28.7993145  60.5585518  18.0333481  29.4122047
  60.4629593  61.3031273   7.3244896  60.0275459  60.6433754   6.7846971
  60.7190971  61.9874649   6.7061806  43.0627441  67.2691803   0.3016715
  42.6757393  66.8470230   1.0686393  42.3564568  67.8056259  -0.0583583
  30.1078129  24.4330597   7.6932011  30.1144123  25.0312119   6.9459381
  30.7707310  24.7847786   8.2873926  45.2159004  23.6603851  15.1016226
  44.5095253  24.2493343  15.3669672  46.0064888  24.1979198  15.1491451
  47.8106575  66.1139297  12.4004107  47.0737343  66.3557510  11.8394289
  47.6191750  65.2168427  12.6739225  24.1896572  44.1922607  51.6864853
  23.9381561  44.3101311  52.6025009  24.1844788  45.0769043  51.3209534
  79.1885757  26.1923714  29.9582882  79.8291931  26.8927250  29.8344002
  78.3905563  26.6436558  30.2335033  48.3955650  71.4903412  65.4778671
  49.3278885  71.2880020  65.4000244  48.0096016  71.1565475  64.6680222
  26.1657200  10.2546110  15.5216951  25.4911041  10.6974831  15.0069227
  26.9547882  10.7786217  15.3837938  58.5977020   3.0913167  75.8888092
  59.1300087   2.4898090  75.3681641  58.9445534   3.9590006  75.6813202
  43.5546951  22.0634537  10.2790060  43.7849388  22.2440777  11.1903763
  44.3713226  21.7620506   9.8808765  22.8027706  29.5525875  75.8038406
  23.4160614  28.8177662  75.8159790  21.9547710  29.1536140  75.6090317
  78.4921036  66.8894043  15.7215557  79.2060165  66.5545044  15.1789627
  78.4383545  66.2743149  16.4529991  78.4048615  40.5807800  68.6210632
  77.6201096  40.1142540  68.3334122  78.8337860  39.9768867  69.2273407
  84.4642715  51.8900490  37.5135422  84.2955856  51.3182907  36.7646294
  84.6091537  51.2900238  38.2451248  73.1957550  32.7961159  33.9572067
  72.7994232  33.0733032  33.1311760  73.0433350  31.8517323  33.9909782
  20.2649231  43.6835594  39.9149017  19.9088306  44.5444069  39.6949615
  19.7825336  43.4177094  40.6977539  71.2729645  61.4877167  22.7825012
  71.0720978  62.4231644  22.8112240  70.9282837  61.1945229  21.9390163
  10.3115120  64.9060593  13.6641254  10.2209005  65.1816177  12.7519369
   9.9806795  65.6468277  14.1720972  62.7363739   1.0689452  25.5506668
  62.9729347   0.5273760  24.7976913  62.2460251   1.8002193  25.1751270
  63.6971703  15.6276646  65.2623672  63.4773712  14.8282251  64.7840195
  63.1334343  15.6067305  66.0356674  67.3396301   6.8177085  72.4691772
  66.5712662   6.6495581  73.0146790  67.4156494   7.7716932  72.4500427
  70.9485397  58.0382690  24.2701721  71.6065140  58.5254021  23.7741833
  71.3717041  57.8486862  25.1075630  57.5524712  14.7799234   8.9115334
  58.2243652  15.3759956   8.5806494  57.9503555  14.3744612   9.6819353
  42.2401276  45.1469650  50.7270279  42.1167793  44.2647133  50.3768082
  42.9113960  45.5356140  50.1661568  35.0352974  66.5600739  29.6193962
  34.3714218  67.0772247  30.0755196  35.3691139  67.1451111  28.9393044
  37.9569511   5.3516169  41.5714531  38.6050072   5.9922175  41.2783928
  37.5288658   5.7688160  42.3190613  25.3895531  27.3519535  59.8371315
  25.3150234  26.9374638  58.9775505  26.1970367  27.8635235  59.7871513
  11.7286463  30.8008175  52.4396057  10.9971790  30.4884663  51.9070435
  12.4192953  30.1525784  52.3016891   5.7330117  44.7016373  64.0198135
   5.9156575  44.9435539  63.1118774   5.3512812  43.8257408  63.9621506
  10.8475742   9.1794910  29.5798855  11.2718859   8.9465599  30.4056778
  11.5701532   9.2876282  28.9614849  56.6390648   4.1195960  20.3970661
  56.9846420   3.2885981  20.7230282  55.6948166   4.0597157  20.5421410
  70.9610519   7.0820003  34.9486046  70.5335693   7.2933741  34.1186562
  70.7818222   6.1509604  35.0800323  75.2180023  70.2492905  37.6992531
  75.6386490  71.1085587  37.6685371  75.3994522  69.8630219  36.8424492
  45.9969025   0.9568467   4.4346371  45.8770905   1.0234735   3.4873049
  46.1428947   1.8582802   4.7215791  62.0081291  62.6173363  24.8752708
  62.3174629  62.4488373  23.9852409  62.1227531  63.5601768  24.9941978
  15.1041384  60.2425880  10.7207003  15.7506285  60.3474541  11.4187593
  14.4162378  59.7030067  11.1104155   6.3845801   8.5545826  19.8431950
   6.7939487   7.8636866  20.3640709   5.4490566   8.4713020  20.0278358
  38.6335793   3.2453196   3.5624461  38.6252365   2.5964062   2.8588316
  38.0127907   3.9157963   3.2772875  61.7062912  13.1915312  73.7997360
  61.0457840  12.5944252  73.4484100  62.5377731  12.8481159  73.4727325
  79.6651382  58.3481102  71.8675232  79.1672745  59.0169830  72.3376083
  80.4851913  58.7816849  71.6314087  78.1733322  49.4496002   6.3381677
  77.4507904  48.8460808   6.5111718  77.7488937  50.2465096   6.0203314
  81.1359253  48.3916664  30.1698399  80.4983521  48.6240044  30.8449306
  80.9062271  47.4962387  29.9214764  36.4472275  53.0227356  58.0195427
  35.6639099  53.0675888  57.4712372  37.1349106  53.4237709  57.4880409
  53.8671951  17.8543682  81.1168823  53.5612640  17.3299522  81.8568954
  54.3920364  18.5483437  81.5158386  -0.2249909  67.0039215   4.5506201
   0.6325839  66.6891785   4.8365197  -0.0957686  67.9386826   4.3901649
  86.1976547  62.4973030  45.0851288  86.0931473  62.8050003  44.1847801
  86.2753296  61.5465622  45.0058327  35.0155029  51.4037819  59.6060791
  34.8427887  50.6142731  59.0931702  35.8626595  51.7156258  59.2877846
  32.0154076  71.5357819  28.3956547  32.5033646  71.0420456  27.7366009
  32.6410828  71.6676865  29.1079464  54.0980644   1.5655198   0.3354472
  53.6204605   2.3893611   0.4324533  54.0976906   1.1836672   1.2131830
  21.4411488  30.2929115   7.8463302  21.9326878  31.1112938   7.7765341
  20.6206856  30.5418568   8.2718897  67.0813904  52.1036568  43.5738716
  67.3139420  51.9006691  44.4799309  66.1372452  52.2593498  43.5980453
  29.8303432  42.2995796  15.9974089  29.6877842  43.2316399  16.1622486
  29.1054478  42.0435944  15.4271202  11.2473135  42.2938690   5.7205424
  10.4277678  41.8389397   5.5265942  11.3525972  42.2043457   6.6677132
  82.9476929  38.5231743  58.1706619  83.8410187  38.7030640  57.8776703
  82.5562668  39.3883667  58.2909164  48.7120857  70.9263153  69.5278015
  48.3518677  70.0472107  69.4110031  47.9525337  71.5059738  69.4702835
  51.6716652  23.9474068  81.8404388  50.7790146  23.8539562  82.1731033
  52.1455307  23.2043934  82.2140808  78.8618774  41.7779922  32.6545715
  78.2944336  41.5119781  33.3780899  79.5923843  41.1601295  32.6834564
  72.6573563  15.3012009  49.6633606  72.5009842  16.0901890  49.1444397
  72.0741119  14.6446199  49.2826271   5.0166292  31.2566528  85.6268082
   4.3850441  31.6508102  85.0251694   5.4833374  30.6116734  85.0953827
  67.5994568   9.9302406  73.0990372  67.6028824  10.8146286  73.4652023
  67.1370239   9.4030552  73.7505417  64.8138428   5.8392496  68.5483475
  65.2832260   6.6734447  68.5534897  63.9634819   6.0452976  68.1601944
  12.2612858  10.9658251  10.6721001  12.3129444  11.1757755  11.6045618
  11.9097672  11.7587347  10.2671795  71.3085938  11.1083860  85.8045197
  70.6640167  10.4762039  86.1224670  71.8375397  10.6160173  85.1768036
  73.1922913  37.7235527  80.8089981  73.2321625  38.1256943  79.9412842
  73.0559082  36.7921791  80.6352997  83.8683548  14.9957504  59.8322105
  83.9844971  15.9292326  59.6551399  83.7462234  14.6015215  58.9685555
   4.2407980  63.3227348  47.6949310   4.8746409  62.7625427  48.1428795
   3.8697960  63.8673553  48.3891792  69.7582474  68.7225723  32.1359024
  70.2996368  69.4375153  32.4705467  69.5256577  68.9936981  31.2478580
  73.4013443  30.6123600  66.5415344  72.7667923  29.8975735  66.4899445
  74.2521439  30.1752243  66.5772629   5.2429733  56.6436272   1.2940625
   5.3872757  56.2119179   0.4520209   5.7895398  56.1557922   1.9101083
  26.8373661   1.9073429  66.1218109  27.0201931   1.5479342  66.9899292
  26.0639935   2.4570339  66.2481689  42.9209213  16.2881088  67.7349243
  43.8329811  16.2133141  68.0156097  42.9165154  17.0300312  67.1301422
  72.4195938  59.7614441  63.6931038  71.5242538  60.0986290  63.6630402
  72.3777466  58.9285049  63.2233238  80.4931946  47.7996025   1.1327819
  80.0292358  47.8599319   0.2977167  79.8073120  47.6179581   1.7752764
  21.0155048  18.4593143  15.3147068  21.5780354  17.6977024  15.1742086
  20.3117199  18.1366787  15.8775787   8.6363335  20.4903145  13.1937046
   8.7778645  20.8648052  12.3242474   8.0786953  21.1269798  13.6408377
  60.4723358  42.1062698  23.9511929  61.4239655  42.1666107  23.8675709
  60.2996101  42.3059158  24.8712673   2.8150773  12.4797421   2.4701774
   2.9380145  13.4275427   2.5230212   2.4812651  12.2330637   3.3327034
  14.0329981  57.5498428  58.2851219  14.6537657  56.8237915  58.2240868
  14.2833786  58.0124512  59.0848312   1.3968643  54.0595131  81.5754166
   0.6283968  53.6400185  81.1884918   1.9921503  53.3357277  81.7703629
  41.2244568  17.9097576  17.4808083  40.6498680  17.1504478  17.3831902
  42.1043625  17.5655632  17.3274250  58.7931404  37.5978508  23.7803917
  57.9899254  38.0451775  23.5139790  59.4883308  38.0475426  23.3000526
   2.8127620  56.7974281  41.4963989   3.4914868  57.4713745  41.5332756
   2.4926193  56.8289948  40.5948753  69.2911911   1.4334098  82.3378067
  69.4304047   1.2051343  83.2569046  68.9565887   2.3299046  82.3617096
  54.6395149  27.8446960  21.5779037  53.9474525  27.1868420  21.6450310
  54.5839119  28.1596298  20.6757088  24.7273750  12.2321844  79.6538391
  24.8479805  12.7803679  80.4291992  23.9482594  11.7110405  79.8478012
  83.0065079  22.4602509  15.5258188  83.8803024  22.6206989  15.8821421
  82.5388794  23.2849522  15.6578102  62.9137611  69.6958847  61.4514236
  63.7962036  69.9832687  61.2170296  62.3411903  70.3900146  61.1249695
  69.5562897  19.3752823  51.6644325  68.7135391  19.8286228  51.6423378
  70.0785751  19.8712273  52.2948952  64.9927216  57.1242943  81.0814438
  65.9070892  57.1646576  81.3616638  65.0051346  57.4388618  80.1774902
  77.4221649  59.0760612  12.4755163  76.6439590  59.6309586  12.4233370
  77.1427765  58.3195801  12.9911852  15.4103327  68.8690186  52.8463707
  15.8684864  68.1623535  52.3914604  15.6650925  69.6621323  52.3748779
  61.1525307   8.1193132  18.0664024  61.9082565   8.3275499  18.6157169
  61.3927956   7.3030806  17.6279182  80.1872177  45.3885155  69.5196609
  79.7645569  44.6155815  69.1452789  80.9903107  45.4931145  69.0094299
  11.9748631  48.9912949  54.4251175  12.7147627  48.3850708  54.3894920
  11.4670630  48.7959824  53.6375732  81.6758270  25.1893978   6.7597890
  82.3480530  25.8373604   6.5488458  82.0891190  24.3462830   6.5738225
  51.7540817  47.5096588  55.3385391  52.4516754  47.2072601  55.9200439
  52.1711235  47.5783768  54.4797134  41.0978813  18.5479240  69.0421524
  41.5002480  18.9517212  69.8111038  40.2106285  18.3261776  69.3247299
  65.6917267   8.9395227  54.6510162  65.2798157   9.0511990  55.5078087
  64.9586334   8.8879137  54.0377159  60.3527069  66.0298615  68.6089020
  60.8396988  65.2234497  68.4392853  60.7206802  66.6654892  67.9950562
  77.7570953  64.5031509  87.6102905  77.4050446  65.3599930  87.3692474
  77.1691284  63.8757057  87.1897659  61.7299118  65.9661026  80.6415024
  60.8366356  66.3022690  80.5688095  61.9350090  66.0308151  81.5742340
  12.2077713  51.2468796  45.2212982  12.2978792  51.7837830  44.4339943
  12.1096249  50.3534775  44.8920097  33.5967140  24.6452961   0.6836681
  33.6709938  24.0036621   1.3900824  33.6561127  24.1263638  -0.1184625
  68.2170486  16.2289028  86.9193497  69.0242157  16.4535847  86.4565048
  68.4280777  15.4236135  87.3917923  71.7475586   6.7550783  83.6757889
  71.5152664   7.5586267  84.1411667  71.2748871   6.8139882  82.8455200
  56.6801758  67.6519165   7.2419333  56.1011200  66.9737930   7.5898952
  57.1991844  67.2040329   6.5739064  75.0730209  61.9946632  89.1195068
  74.1679306  61.6867294  89.0723190  75.4719238  61.6916962  88.3038330
  65.3962173  11.0474024  52.1202431  64.5612640  11.4799042  51.9412880
  66.0332184  11.7610655  52.1540565  57.6503601  18.3282757  75.4202423
  57.8142281  17.5570278  74.8775101  57.8448524  18.0394268  76.3118515
   3.7627809   5.0659714  74.5000763   2.9885228   4.8691940  75.0273666
   4.0954127   5.8879809  74.8604813  57.3168755  60.8990784  53.5713196
  56.7877998  60.7608223  52.7856979  56.8543663  61.5841179  54.0540619
   5.0046906  46.1696434  53.9350433   4.1790357  46.5640869  53.6540833
   4.7497005  45.3355370  54.3293571  18.8814030  36.8113785  13.1264133
  18.9256802  37.6641769  12.6939754  18.1645184  36.8983536  13.7546997
  83.9566956  14.8572445  18.3848515  84.3087692  13.9743595  18.4979362
  84.1237030  15.2907133  19.2217789  31.9629230  20.0743351  81.4468307
  31.8690815  20.0811176  82.3993988  32.8013229  19.6392498  81.2918472
  86.1616974  46.3123322  58.4215660  85.5821152  45.7877998  57.8691330
  85.9863815  47.2167625  58.1617432   5.8197765  38.1165009   1.0951092
   6.3858624  38.2106819   1.8612089   4.9647403  37.8827858   1.4563867
  76.3857346  34.3597641  23.1435127  76.5064850  35.1107445  23.7246170
  75.4373322  34.2357559  23.1063156  85.5743866  61.9480171  36.5986176
  84.8705139  62.4322433  36.1669693  86.0410843  62.6089172  37.1101189
  63.6372147  49.7696075  88.1812744  64.2901077  50.1096878  88.7930756
  63.8441734  48.8382988  88.1033630  60.9625778   6.1534314  38.4962654
  61.5903587   5.5173731  38.8391190  60.1895370   6.0500107  39.0511932
  76.9462814   1.5946697  41.2597046  77.3322296   0.8672490  40.7717171
  76.1106796   1.2530094  41.5779343  21.0115433  68.0524063  28.7723427
  21.1419926  68.5268707  27.9513054  21.0621948  67.1288605  28.5259209
  19.7669067  38.8454361  65.4698715  19.3278675  38.4948196  66.2448196
  19.0616570  38.9862366  64.8381805  79.7178497  70.0383911   1.4477667
  79.1094131  69.5779572   0.8698062  80.4801559  69.4619522   1.5011517
  21.1619682  49.4650497  16.6345844  20.8997288  50.2072067  17.1792564
  20.4364471  48.8451271  16.7090473  79.6885376  13.5710869  61.6145210
  80.2534409  12.8163118  61.4488983  78.9850769  13.4896498  60.9705200
  61.4747849   7.9715109  41.2485695  62.2678947   7.9415250  41.7836494
  61.0734787   7.1105604  41.3666840  64.3772430  15.1859646  34.9446526
  65.0036469  15.3374443  34.2369041  64.0594559  14.2952662  34.7966766
  63.7776909  27.4240837  28.7454758  63.3146591  27.5502834  29.5736713
  63.0947838  27.1668053  28.1260586  64.2529678  26.1017838  84.9796829
  64.5557556  26.2233810  85.8795547  64.1789017  25.1528797  84.8780594
  53.4976730  19.2134190  10.8738461  54.2791252  19.7056179  11.1254473
  53.8053360  18.6005116  10.2060728  65.3887787  58.9695435  36.9539528
  64.8453751  58.1937561  36.8157463  65.8028717  58.8234863  37.8045006
  76.6478043  17.2868080  76.6178513  77.2928619  17.3629799  75.9147644
  77.0894699  16.7722244  77.2933960  38.7410851  25.4235287  75.2419815
  38.4496384  26.3059254  75.4714813  39.6787186  25.5171604  75.0737305
  23.7333355  10.0062876  50.1796608  23.2584629  10.4303675  50.8944206
  24.4705219  10.5904570  50.0020828  53.6640282  61.7899284  87.4125443
  54.4405632  61.8000908  87.9721146  53.4611435  62.7140846  87.2676010
   6.6599336   2.8452322  88.5885773   6.9621429   3.4927354  87.9516754
   7.2386041   2.9621954  89.3420334  27.7741737  68.1572189  83.3826218
  28.3239708  67.9938660  82.6162872  28.3707733  68.5337677  84.0295410
  77.1711121  46.2344093  37.7217751  77.1960220  47.1908112  37.6916466
  76.5975647  46.0329285  38.4611511  45.2960701  12.1094990  36.6905518
  45.4415627  13.0549564  36.7248077  45.6823273  11.7781973  37.5012779
  78.9656143  14.4356661  13.4896574  79.4407349  15.0248575  14.0756149
  78.1841202  14.9275150  13.2375069  35.6241493  28.4627857  67.0897217
  36.5773087  28.4830151  67.1752243  35.4707108  28.2306461  66.1738586
  70.7995071  47.2485580  74.5879440  70.1292343  46.8262367  74.0507202
  70.4923706  48.1494102  74.6897278  26.6497078  19.5007687   9.1335068
  26.1729279  19.9292431   8.4226475  26.9118347  18.6548290   8.7703133
  17.9652500   6.1081047  83.0746765  17.9221191   6.2317967  84.0228653
  18.6573143   6.7033849  82.7867126   4.2071114  60.9142761  35.4379272
   5.0992174  60.6670837  35.1944618   3.6498854  60.4336548  34.8257713
  79.9368210  68.0207596  31.5338211  79.5043182  68.5654144  30.8761520
  80.4697418  67.4092865  31.0255604  69.3235626  15.5774937  31.4476948
  69.4333725  15.9262886  30.5630951  69.9795609  14.8836603  31.5147152
   3.0827997  63.9136009  10.4288502   2.2775266  64.4287720  10.4774876
   3.5785358  64.3110657   9.7129583  66.3251266   1.6477692  64.3355179
  67.1462402   2.1179457  64.1908417  65.7681198   2.2748530  64.7967529
  62.7719994  64.4669495  88.2439804  63.6296082  64.4219742  87.8212357
  62.8589058  65.1699142  88.8878174  52.5656471  10.3280535  46.8656921
  52.8656502  11.2283258  46.9911499  53.3571014   9.7971830  46.9552002
  65.6359482  13.8315678  26.9614811  65.6649475  14.6631908  26.4884129
  66.2809677  13.9316607  27.6616001  82.8023300  18.2339134  19.2033520
  82.7342758  19.1007423  19.6036129  82.1730270  18.2529507  18.4823494
   1.1188213  17.4281616  25.4382725   0.9935651  17.5004253  24.4920578
   1.1912308  18.3336277  25.7401314  69.8504562  39.7825508  20.5943871
  69.8433151  39.9352341  19.6494694  69.0561676  40.2117577  20.9123688
  24.8759575  36.8977814  75.5765839  25.0117207  37.4634132  74.8164139
  25.6679096  36.3619843  75.6209335   5.7067089  66.5277100  17.8361378
   6.4030571  66.6115417  18.4875240   6.1680942  66.3955231  17.0079575
  45.8533592  36.0932198  22.0481930  46.2481613  35.2546158  21.8092194
  46.4037895  36.4233818  22.7582970   2.2978134  28.9927425  84.9089966
   2.9065263  28.5227547  85.4789200   2.4755509  28.6490631  84.0334778
  41.7522659  33.9181061  79.5783005  42.4973412  34.0810013  80.1567154
  41.7918510  34.6233635  78.9323273  76.0415802  24.7898445  12.0619907
  75.9618149  23.8846035  11.7613106  75.8749542  25.3172684  11.2807808
  34.4642830   1.9116023   7.0209155  34.4816322   0.9890657   7.2755861
  34.8162537   1.9210193   6.1308255  34.6155243  66.5670929  37.0891609
  34.1930008  66.1452484  37.8373299  35.1101418  65.8651276  36.6662712
   1.7751250  29.9911976  27.9799461   1.2733160  29.7675095  28.7637711
   1.7706189  30.9481277  27.9576607  57.7283745  19.0405941  57.3217773
  58.2330856  18.9430389  58.1292267  57.6520042  19.9869289  57.1999168
  33.3760986  54.3523598  45.4979706  33.5418930  53.5774384  46.0348511
  32.5032272  54.2082558  45.1325073  34.9215469  48.3239403  88.2785568
  34.7132568  48.9981422  88.9253235  34.1030006  47.8412247  88.1636734
  76.0878830  64.3046112  35.9072876  76.1027527  65.0625534  36.4916916
  76.8811951  64.3937912  35.3791428  16.5491085   1.2068690  45.5554314
  16.3050213   0.9532555  46.4455643  16.2056141   0.5042888  45.0035057
   3.0637207  32.6008492  60.3490639   3.6185350  32.0290298  59.8185616
   2.1986794  32.5381813  59.9440842  57.3801994  63.0793152  75.5855484
  58.1873322  62.7351456  75.2030334  56.9942665  62.3321762  76.0427933
  21.8546162  38.2461510  31.6574821  21.0394764  38.4881859  31.2179394
  21.5755730  37.8942223  32.5027695  83.7155838  31.5514278  31.9210835
  83.5363693  32.4906120  31.9663200  83.6645355  31.2538300  32.8294106
  85.9983063  63.7788887  12.9763374  85.1310349  63.3860779  12.8774834
  85.8842773  64.4432678  13.6559191  21.9185810  51.2491798  55.6279526
  22.3308086  52.0609779  55.9233818  21.5127659  50.8863144  56.4152756
  19.8330708  38.5123291  84.4483871  20.0816174  37.7269020  84.9357910
  20.2730103  39.2280769  84.9070740  79.7174149  50.6478882  72.1434097
  79.3370285  51.0479202  71.3614197  79.1574249  49.8925514  72.3225937
   9.6965132  12.2487478  26.6291504   9.9169254  12.2053909  27.5596180
   8.9661160  12.8658056  26.5845299  39.5579185  60.2068405  16.7544727
  39.1161995  59.4912300  16.2972870  40.4457855  60.2076683  16.3968048
   6.5881429   9.7205248  68.0796356   7.5105295   9.8244572  67.8459015
   6.5819654   9.7221270  69.0368195  13.6283207  50.2474442   0.0783202
  12.8449669  49.8330917  -0.2834814  14.2151613  49.5178032   0.2770033
   0.7193963  24.3690643  68.7106628   0.9972884  24.0134640  67.8665314
  -0.2366464  24.3304310  68.6837921  23.8768959  31.6177635  80.1041870
  24.1959534  30.7771091  79.7759628  23.3306789  31.3894920  80.8563690
  53.4673386  36.1054382   7.9712248  52.7976570  35.7698097   8.5671358
  53.6525421  35.3737488   7.3825312  29.4316101   2.5638041  79.6300964
  29.4326382   1.6103885  79.7151260  29.1572075   2.8807130  80.4906235
  48.7009697  60.1236420  69.3239365  48.9417801  59.6405182  70.1143951
  48.1724319  60.8554764  69.6422119  77.1709671  42.5154457  80.6702194
  77.3109360  42.0694466  79.8349152  76.2420044  42.3834534  80.8594894
  23.5810528  58.4226723  19.0107574  24.5266857  58.3783455  18.8691788
  23.2206459  57.7494202  18.4336357  56.0551453  69.8181152   3.1364260
  56.8415794  70.3036423   2.8873985  56.0839043  69.0249252   2.6013923
  78.9133377  62.8223534   9.7210732  78.1196060  62.4229698  10.0770531
  78.6914673  63.7480812   9.6209345  73.4428482  58.8717880  72.9455948
  72.9923172  58.7911339  72.1049118  74.2005615  58.2920723  72.8678513
   9.9721804  62.0349159  42.5912285   9.0586529  62.3156776  42.6448097
  10.2961807  62.4272842  41.7804871  36.0937576  50.5955658   2.5800645
  35.6069908  50.5888519   1.7559006  36.7242966  49.8808403   2.4916542
  35.5647888  49.3633957  18.5065041  35.4246979  50.3102074  18.5188293
  34.7857170  49.0004959  18.9279099  45.9914856  19.7178116  14.7452240
  46.4669991  19.9963703  13.9625835  45.4990730  20.4930744  15.0149107
  31.0567169  68.3998871  15.6223440  31.9091148  67.9658966  15.5862579
  31.1600380  69.1767731  15.0727987  41.8079605  51.6511841  58.5559044
  41.5922012  51.0139694  57.8749962  42.6628380  51.3715858  58.8833771
  68.4610214  16.4381771  21.2951756  67.9349442  15.6452913  21.1912479
  67.8736191  17.1502609  21.0419483  62.2103539  43.6739388  15.5402660
  61.2895851  43.7152214  15.7985620  62.6914101  43.9334526  16.3260593
  55.5289536  23.0386982  14.0054016  54.9535217  22.3514690  14.3412971
  56.4099121  22.6723881  14.0826054  50.5306625   6.6502175  45.4274635
  50.3470573   7.3780980  46.0213585  49.8053932   6.0407014  45.5642433
  28.8906555  10.4886761  64.4350357  29.1218300  11.3879433  64.2024231
  28.4974976  10.5598040  65.3048630  72.6076508  28.1232414  20.9048252
  72.5372162  27.7537060  20.0246468  72.8666153  29.0336628  20.7623405
  62.3017159  51.8308487  31.8955727  62.5967560  52.3876877  32.6160736
  61.7012634  51.2077751  32.3047981  38.7072639  68.3472977   7.6849136
  38.6426926  67.6371231   7.0463858  39.3269691  68.9640732   7.2953124
  22.3987846  36.1952744  87.9806747  21.7689743  36.8423576  88.2982483
  21.9802685  35.8119164  87.2098846  73.5267563   1.9995601   8.2430086
  73.3857803   2.7207160   8.8564358  73.4824524   1.2118921   8.7850866
  34.4789391  57.2075195  50.4076538  34.8702812  57.8715477  50.9752426
  34.9674339  57.2755775  49.5873070  56.1101036  42.4118996  48.3076210
  55.8685951  43.2822227  47.9906845  56.2070694  41.8862305  47.5135803
   1.6978859  55.2279358  13.7776060   1.7279339  56.1706886  13.9405451
   2.1884165  55.1097031  12.9641981  50.2440872  33.5873871  56.4259605
  49.7566795  32.8320732  56.0970688  51.1379623  33.2645073  56.5398407
  76.2762299  30.7207642  45.1515732  76.1961060  30.3252869  46.0195656
  76.0485687  31.6407852  45.2856140  84.6906052   4.7639232  24.3984108
  85.1406250   5.0493903  23.6032867  85.1396027   3.9572618  24.6512566
  34.2662430   4.2372975  42.9109383  33.3133011   4.2237096  43.0001144
  34.4681511   5.1309848  42.6338310   7.9409142  15.7414703  30.8670425
   7.5821733  15.4546080  30.0272522   7.3258333  15.4038305  31.5181236
   6.8715019  41.8808060  61.2619209   6.8533149  40.9256859  61.2015038
   5.9727874  42.1499710  61.0719337  33.8450241  30.1310902  64.7917938
  33.8206978  30.7215424  65.5447922  34.1969490  29.3122101  65.1408157
   6.6939688  38.8520317  28.3621979   6.8192277  38.2359352  27.6404171
   7.3890653  39.5000153  28.2473545  14.3401995   2.3845022  22.1740150
  15.2284441   2.1024821  21.9555702  14.0899982   1.8344172  22.9163342
  84.0925980  66.2165604  11.4157467  84.8612823  66.4873734  10.9137392
  83.5279694  65.7845612  10.7748079  24.0189037  68.6389694  24.6312695
  23.5958214  68.6483765  23.7726994  24.2720432  69.5494461  24.7835312
  15.1512432  50.8245468  41.8132401  15.7709370  51.3250542  41.2824783
  15.1880779  51.2363663  42.6765366   7.4307666  54.0783424  35.5495186
   8.0268297  54.6850891  35.9886093   6.5878773  54.5319328  35.5448227
   9.0358791  50.9650154  41.4572792   8.9349518  51.2033463  42.3788261
   8.5321817  50.1566086  41.3624077  60.3715858  48.0631485   5.2235417
  61.1180115  48.3901520   4.7213964  60.3467598  47.1255150   5.0326004
  17.0372276  29.5586891  86.4956131  17.1902599  28.6439781  86.2587204
  16.5986977  29.9337463  85.7319031  11.7584763  47.4026794  48.0675316
  11.3474636  48.2599297  47.9560738  11.2584047  46.8210335  47.4949493
  26.3615570  68.5436630  10.3419685  26.0381927  67.6438446  10.2973461
  27.2896729  68.4541855  10.5583649  22.5415325  65.8001938  43.6313515
  23.3234730  66.0668564  44.1147652  21.9032383  66.4911804  43.8083916
  41.7836647  59.0596962   1.3602470  41.6011887  59.9755821   1.5702226
  40.9436913  58.6155128   1.4759108  50.8036728  31.2955437  53.7395172
  50.0875397  31.0746880  54.3350067  51.5113106  30.6992893  53.9843826
  15.9215994   4.2017288  72.4687195  15.9264898   3.6011703  73.2140656
  15.0131130   4.2019291  72.1672516  37.7169571  60.3725815  20.7688141
  37.3661537  60.0479012  21.5981236  36.9432793  60.5400925  20.2306767
  75.3518448  59.6947250  53.2691879  75.2685165  60.5725822  53.6415520
  74.4494705  59.3994293  53.1477356  38.4160652  61.0399017  12.5868244
  37.7682800  61.6251678  12.9793377  38.6870918  61.4861908  11.7845745
  21.9018440  69.9619904  68.6548080  22.6907043  70.2189407  68.1774063
  22.1317749  70.0769501  69.5768433   9.8670864  55.2375259  33.5598831
   9.3445454  56.0038795  33.7962875  10.5751429  55.2225151  34.2038231
  38.6272926  63.0966988  31.6002941  38.7990723  62.3916740  32.2245255
  37.7080116  62.9838753  31.3585720  67.8360367   7.0463471  66.2962570
  67.8624725   7.9971547  66.1890335  66.9609756   6.7961187  65.9998245
  15.0466471   3.5936542  84.6603165  15.1243324   3.4104471  85.5966034
  14.1887894   3.2447050  84.4183502  19.8606567  66.4911652  67.8574905
  19.9194183  66.2309113  68.7767563  18.9410343  66.3563156  67.6287079
  26.0708542  51.5650520  33.7070503  26.0246048  51.9172249  34.5959091
  26.1315937  50.6174355  33.8277397  38.8608894  12.9837952  18.0651684
  39.7975159  13.1309423  18.1967335  38.8040009  12.0900640  17.7271748
  52.5451355  62.1284103  51.7229195  53.3277321  62.5562248  52.0704079
  52.6218834  61.2186279  52.0103912  47.1414413  11.5931549  88.4983139
  46.6559563  12.3783560  88.2453461  47.2647781  11.6819096  89.4433746
  11.4309502  49.1107063  65.2820511  11.7197018  48.1996536  65.2288132
  11.1050711  49.2067757  66.1769333  19.6284409   2.3335686  41.8055611
  19.9274902   1.4398708  41.9732094  19.2167130   2.6061530  42.6255646
   4.8440084  52.5483551  86.3270416   5.3254185  52.7374191  87.1324768
   4.0795002  53.1231270  86.3644257  75.4460983  30.6614914  42.4365273
  74.8636932  31.4209232  42.4192924  75.5102463  30.4298248  43.3630524
  49.9528694  71.2536621   8.6952801  49.4184647  70.6390228   9.1981401
  49.3262520  71.8906555   8.3520279  66.6271286   9.3874969  47.9811134
  65.7821655   9.1892128  47.5774422  67.2259827   8.7365198  47.6152840
   4.0930204  45.8853569  36.5957909   3.3716464  46.0574379  37.2009697
   4.6928439  46.6203918  36.7229424  64.8726273  61.4203186  82.9798737
  64.4410934  60.9379807  83.6851120  65.6301270  60.8820992  82.7502060
  65.3482437  64.7557983  16.1210594  64.9038773  64.8027039  16.9675655
  65.3389587  65.6558838  15.7954865  38.6723557  18.1916389  73.9572220
  39.3077774  17.5996094  73.5547714  38.7550926  19.0055237  73.4602509
  10.1081247  48.9268990  17.0687580   9.3657656  48.7854500  16.4812832
   9.9682837  49.8045044  17.4244061  20.5927677  36.0790405  78.4969711
  21.2372818  36.3153915  79.1640320  21.1144409  35.8827553  77.7187958
  46.0768242  56.2900276  54.2716904  46.4518700  56.8149719  53.5645828
  45.1935921  56.0777779  53.9698830  86.3408813  50.3857346  62.3815651
  86.0196075  50.3276176  63.2813644  85.6967545  50.9328537  61.9321289
  30.4400978  42.8297310  41.4963989  30.5221062  42.2832718  42.2779922
  31.2727528  42.7180824  41.0376472  38.6914635  13.4050732  67.2527618
  37.9705391  13.6032076  66.6550674  39.2168770  14.2050409  67.2677841
  35.5469856  25.8404655  76.6327515  35.2981262  26.7417755  76.4279556
  35.0768471  25.3101082  75.9893799  77.0789490  45.4502144  50.6371574
  77.9461670  45.4534798  51.0423126  76.9846039  44.5670166  50.2803726
   9.5969019   9.9945488  84.1967850  10.0322113   9.4353456  84.8402328
  10.3085051  10.3336487  83.6537704  54.6305275  11.5230541  80.7941437
  55.3962173  10.9592972  80.9042664  54.3774986  11.7603235  81.6862869
  67.4233627  71.4227905  10.3238974  67.7363663  71.0425797   9.5031023
  68.1961823  71.8398743  10.7047129  26.2019882  60.3659706  37.7284164
  25.4951305  60.6432190  37.1455650  26.9772472  60.8192825  37.3971901
  55.7657928  61.2683601  18.7257843  54.9726143  61.4274673  19.2374325
  56.0251617  60.3764877  18.9571285   7.6071558  52.3022346   5.4519663
   8.2741060  52.8034973   5.9211631   6.8664670  52.9034958   5.3738623
  40.7484283  24.9351730  12.9005795  40.1975327  25.5657597  13.3643751
  41.6204033  25.3299732  12.9052172  47.7099609  42.4538269  82.0739975
  47.1792755  43.2264442  81.8799210  47.2219696  41.9934006  82.7567139
  42.7215080  55.4906273  87.1405716  42.2628708  55.5972710  87.9739380
  43.0237846  54.5824394  87.1480408  23.3281326  41.5625916  73.8039169
  23.9180832  42.1323090  73.3103485  22.9642601  42.1275330  74.4855881
  45.9514847  62.9473076  15.3844995  46.3627968  62.7494011  16.2258606
  45.7038689  63.8696022  15.4500036   9.2942820  65.6601181  85.0750504
  10.2045727  65.3872757  84.9603348   8.7973242  64.8420334  85.0758667
  30.5745564  50.3268433  27.5986176  29.7334290  49.8798752  27.5039940
  30.3677864  51.1264458  28.0824738  54.7442970  13.0350132  36.8188019
  55.4572067  12.9698248  36.1833954  55.1805763  13.0198841  37.6706581
  25.6938553   7.0284538  22.6562634  26.4680977   7.5909595  22.6371155
  25.6122875   6.7026443  21.7599220  70.3624420  33.5804710   6.2299585
  69.6005707  34.1565514   6.2925715  70.0523682  32.7366905   6.5587850
  20.3597012  28.9554195  73.0400925  20.1521606  29.6336460  72.3973083
  20.3121605  28.1360435  72.5475540  21.1923676  16.1625977   8.0179300
  22.0454082  16.5548878   7.8317595  21.3989964  15.3347225   8.4517050
  57.9681358  30.9950447  41.1913567  57.5577354  31.8594303  41.1659622
  57.3746109  30.4333725  40.6928711  11.1241779  67.7685318   8.1396179
  10.2247410  67.4540482   8.0482759  11.4620419  67.3081207   8.9077969
  75.9972382  12.5463924   9.0943623  76.3235703  12.1007252   8.3126211
  75.9584885  11.8614845   9.7619181  32.0770264  25.8141975  72.9989548
  31.5044308  26.2597847  73.6233063  31.6500530  24.9721661  72.8411179
  55.3113518  43.5737190  88.6476822  54.3991928  43.3020096  88.5458527
  55.7750816  43.1258774  87.9401321  54.0541229  62.7068710  63.7243996
  53.8793030  62.5170441  64.6461563  54.9836311  62.5083504  63.6110878
  66.4643097  12.1236391  37.4166412  67.3776321  11.9610252  37.6525230
  66.3661270  11.7266455  36.5512009  85.4398651  16.7817898  46.8283234
  86.0726624  16.2651367  46.3294563  85.7700577  16.7626247  47.7265663
  30.1474953  51.6792679  -0.1559297  30.6102238  50.9370461   0.2329482
  30.7543945  52.4139214  -0.0654505  15.3478546  54.0659714  40.6686134
  15.2188787  54.1818352  41.6099777  16.2916718  54.1634712  40.5423851
  84.5800018  63.8617401  61.7427788  83.9660492  63.8125229  62.4754944
  84.7544937  62.9486160  61.5147591  84.0990906  43.0797272  47.1953049
  84.5473251  43.3785820  46.4040985  84.0420227  43.8596306  47.7473221
  17.9252491  56.6359253  53.9183731  17.4841213  57.0164604  54.6778679
  17.2326164  56.1747627  53.4452782  78.8132935   1.1615822  29.0494709
  78.3808289   1.3243493  29.8877544  78.3722763   0.3878222  28.6987095
  68.0008469  64.8392792  16.8736343  68.3277817  65.6202316  16.4270325
  67.1742172  64.6403198  16.4339428  36.0230484  68.9133072  17.3908367
  36.9712563  68.7825089  17.3855305  35.9125252  69.8630371  17.4359093
  79.4651947  46.3124619  60.9990387  79.8246536  45.8917580  61.7800827
  79.7840118  47.2138672  61.0443153  79.1844406  51.8511238  30.1509743
  79.7006378  51.3394203  29.5281353  78.3502808  51.3854103  30.2103462
  46.1434135   4.3362536   7.2705321  45.5067329   4.8379641   7.7796040
  45.8406296   3.4304404   7.3342090  72.4105988  68.0012741  11.0555887
  71.5161972  67.7408676  10.8354397  72.9643631  67.4253616  10.5284328
  57.0548172   2.4406824  71.4895401  57.1099586   1.4861561  71.5350418
  56.4261627   2.6111081  70.7881241  61.2544441  34.9341774  60.0591278
  60.7598991  35.7034492  59.7765007  62.1544342  35.1151237  59.7879982
  63.5670395  68.3239899  77.1417618  63.7781792  68.5405655  78.0499191
  64.1345978  68.8928909  76.6216965  68.0494461  70.9624481  21.0096130
  67.1184998  70.7985764  21.1603470  68.0802765  71.8436356  20.6370735
  15.0619020  45.9788399  20.7202644  15.0200319  46.1165123  19.7739429
  14.5187063  45.2058563  20.8741074   1.9784478  19.5198345   1.3744310
   1.1269104  19.9190750   1.5525439   2.5307772  20.2492008   1.0930228
  19.7283554  69.2292252  56.7653275  19.8416061  69.2789078  57.7145042
  19.1984138  69.9958267  56.5468979  20.2395191  41.7227974  34.6728058
  21.1316586  41.3797226  34.7239647  19.9497890  41.7734642  35.5836945
  71.1191025   9.9947243   1.0928203  70.3283157  10.5338736   1.0784446
  71.1311722   9.6105785   1.9694719  36.9540100  49.3778305  49.0117416
  37.9079056  49.3365784  48.9437943  36.7775307  49.3091354  49.9500198
  50.8143120  42.2349167  74.8162460  51.2546005  42.7616653  75.4832611
  51.4725227  42.1167221  74.1313934  42.7196388   2.3383346  60.8718414
  43.0422211   2.6295202  60.0189743  43.4565353   1.8646594  61.2576485
   6.3315797  60.5402794  80.6748123   6.4693217  60.0282059  81.4717102
   6.7050147  60.0021820  79.9767990   5.1483922  19.0641346  80.9249573
   4.3304996  19.2304001  81.3936157   5.6247401  19.8929977  80.9730301
  26.4783821  38.8081856  12.2077904  25.7370243  38.2223892  12.3609667
  27.2456322  38.2367096  12.2389889  63.3708725  16.5545311  50.4829216
  63.9388428  17.3210144  50.4045334  63.3726158  16.3497620  51.4179611
  75.4868622  47.3760223  58.0945892  75.2690811  47.9038773  58.8628159
  76.4375687  47.4521446  58.0133667  45.4812431  21.4686890  22.0111790
  44.7783813  22.0729504  21.7722492  46.2617493  22.0198250  22.0685272
  56.4817085  43.3452034   3.9262171  56.5802994  42.6907730   4.6177602
  57.3286247  43.3518219   3.4802144  51.8954773  44.1856728  58.7300377
  50.9491920  44.3245621  58.7685280  52.2224541  44.5327568  59.5600090
  61.3530807  53.9970551  14.3622999  61.7239799  54.7611771  13.9209595
  62.0097694  53.3105774  14.2450905  -0.1293084  36.2570953  36.4181442
   0.8138453  36.1276779  36.3184280  -0.3947413  36.7106209  35.6180840
  28.3830299  53.6981354  34.6450272  27.6567078  54.3185997  34.7059555
  28.8077812  53.7417297  35.5017166  53.0499763  55.8525772  28.2255669
  53.1621971  55.7000465  29.1638470  52.7223358  56.7500000  28.1662998
  68.3854370  46.0690079  39.3499336  67.7329559  45.4404755  39.0409851
  68.6407166  46.5543785  38.5654068   8.5249233   1.5275584  42.8231354
   9.2086248   1.5890293  42.1560516   7.7069592   1.5056914  42.3264580
   2.3287237  15.4496326  50.7095604   2.8874838  15.7918472  51.4073486
   2.4384928  14.5000238  50.7588234  35.9730072  59.1030464  13.3837395
  36.5810928  58.5567474  12.8857203  35.6585884  59.7491951  12.7513895
  47.9395180   5.4071441  50.7385941  48.6391411   4.7576199  50.8084297
  47.8818359   5.7920070  51.6131134  10.9920263  63.5466499  28.8569622
  11.1247559  63.4283218  27.9164238  11.3248367  64.4258728  29.0370712
  79.2950821  19.6575336  59.8182259  79.8978424  19.6230659  60.5610046
  79.3270798  18.7776203  59.4427757  12.7291651  42.4439125  42.1325874
  13.3538094  41.7339287  41.9843483  12.7114401  42.5527000  43.0834198
  58.7758369  40.1972351  43.9533386  57.9667511  39.7225418  44.1438293
  59.0025520  39.9356575  43.0609207  56.5306549   0.2286476  83.1664505
  55.6766815  -0.0238623  82.8154526  56.4641418   1.1739502  83.3013916
  24.0056591  49.0094528  17.4109821  23.1601276  48.5632515  17.4580269
  24.5832520  48.3827972  16.9751816  46.8134727  31.3884010  59.9275017
  47.2776375  31.6711025  60.7154503  45.9228363  31.2055759  60.2267914
  35.5794754  43.7527695   8.9136543  36.2151260  44.4542389   8.7717991
  34.8157082  44.0140152   8.3992233  22.8797703  20.5837173  80.5594406
  23.5403423  21.2078018  80.2587814  22.3462029  20.4077759  79.7844696
  18.7267265  25.4690704  57.8964729  18.0862484  24.8402615  57.5638771
  19.2977390  24.9516888  58.4643555  76.9749756  13.9217606   6.8509374
  76.2674332  13.3790331   6.5029936  77.0715942  13.6358566   7.7593179
  42.7931175   5.5046506   6.0332084  41.8842545   5.2915230   5.8216157
  43.1895142   5.7264404   5.1906462  30.1850834  54.0052185   8.6979132
  29.6596775  53.5937767   9.3841333  30.5720615  53.2715378   8.2202148
  68.8650818  29.9851952  83.5478592  69.5630264  30.3532162  84.0897675
  68.9665909  30.4179802  82.7001419  81.1788406  37.9799461  56.2956009
  81.9099503  38.1091118  56.8997765  81.4873734  38.3426552  55.4652481
  58.2497177  64.3993912  17.2409000  58.6596069  64.9916229  16.6104336
  57.3136368  64.5872574  17.1724262  37.2715378  69.8065338  61.6529808
  37.1641312  70.0171280  62.5805321  38.2175064  69.8334122  61.5092545
  56.1916580  55.6376228  48.6986275  56.0070648  55.9667320  49.5783119
  56.9508858  56.1430702  48.4082298  66.0911255  38.4468918  88.1241989
  66.9231796  38.1658058  88.5048752  65.7354813  37.6573486  87.7163162
  68.6526566  60.7663116  79.1711960  68.1206589  60.2271919  78.5859070
  68.0618896  61.4624405  79.4586639  13.4055176  21.4921227   4.9684668
  13.6641808  20.8205261   5.5995646  13.5980015  22.3204708   5.4078078
  62.1343307  20.6226559  22.7128811  62.5346642  20.4556637  21.8596058
  62.8311577  20.4421577  23.3438206   1.1487960  47.0457306  14.4758816
   1.7255081  47.7723122  14.2398529   1.3406820  46.3675117  13.8282471
  78.2148972  71.4788208  45.9581909  78.5520096  70.7677994  46.5032005
  77.3843460  71.1464539  45.6176720  58.6280251  62.1390839  51.2235947
  57.7203712  61.9462509  51.4585686  58.8448982  61.4907608  50.5536118
  44.2787857   0.9144828  25.7544651  44.4546165   1.5873841  25.0968037
  44.2558098   1.3908905  26.5843697  31.3533707  61.0712471  74.1372070
  30.4618320  60.9326706  73.8175354  31.8774300  60.4156342  73.6770325
  11.8304424  43.1352234  31.1501274  12.2827892  42.4607353  30.6434898
  10.9221973  43.0905037  30.8512592  54.0006638  11.9189796  83.5341949
  53.9520607  12.5927191  84.2123871  53.1333313  11.5140572  83.5362549
  71.8716812  15.2971487  21.8352985  72.6295624  14.7381706  22.0067482
  72.2312469  16.1834812  21.7984123  63.3089104  42.5905228  24.9811420
  63.6052437  41.6832314  25.0534935  63.6850853  43.0270233  25.7454662
  31.5929375  44.3172493  53.6269188  30.8323288  43.9738579  54.0957336
  31.2496376  44.5788727  52.7725601  46.4360313  51.2771568  37.2080040
  46.2257614  50.5313530  37.7699547  46.4459419  52.0285301  37.8009415
  57.7743225  63.6981697  14.0056019  57.5057449  62.9716072  14.5679216
  57.4092751  63.4841537  13.1470165  56.3692169  65.1649246  38.1259727
  56.7517853  66.0166168  37.9150467  55.6054306  65.0969315  37.5530510
   5.9301558  16.0403004  28.8237934   5.4367218  16.2944145  29.6036530
   5.8415465  16.7863369  28.2306595  66.8537521  36.9535522  10.9956856
  66.7484512  36.0168037  10.8294115  67.4077530  37.2632065  10.2791481
  12.9284067  55.5883064  32.2858200  13.3623295  54.7503357  32.1253548
  12.7158461  55.5731277  33.2189980  53.8576050   5.5013547  30.5655766
  54.6565857   4.9958682  30.4161015  54.1529121   6.4111700  30.6010818
  76.6148224  56.6484375  65.4027176  76.4036865  56.6888313  66.3354721
  76.4707947  57.5400620  65.0857162  39.5000954  65.1517639  51.3927155
  40.3879967  65.5064468  51.4380379  39.6027145  64.3036728  50.9609261
  77.9798889  21.4965477  88.2262878  77.1190720  21.1383095  88.4428558
  78.3719635  20.8437691  87.6462936   5.3234692  35.9572220   7.6041288
   4.8753238  35.8574753   6.7642193   5.8712196  36.7342377   7.4925494
  14.0071201  49.1354980  32.4203796  13.2911491  49.5663757  32.8872452
  13.7772961  48.2064018  32.4343376  32.6690521  11.4342289  15.9061499
  32.3331146  12.2722664  16.2240696  33.0476418  11.6369495  15.0506945
  30.6345615  41.7562523  44.1396751  30.6400356  42.6855240  44.3691483
  31.1896591  41.3429756  44.8009644  40.9287796  39.9734383  65.0372162
  41.1179390  39.0369072  65.0951767  41.0525551  40.1859894  64.1121597
   8.5879240  26.8709126  17.7220364   8.3929605  27.5833111  18.3308964
   7.9636779  26.1824093  17.9511909  14.2035561  23.1647873  83.2081833
  13.7025023  23.9788418  83.2580795  13.9938059  22.7042542  84.0206757
  80.5188828  56.6251488   0.4787453  81.3989029  56.6808624   0.8511592
  80.4229050  57.4299622  -0.0304630  38.0773659  38.7290573  62.9658508
  37.4511223  38.2303619  62.4411125  38.0209084  38.3409271  63.8390045
   5.2098722  53.6095238  30.8890667   5.3351035  52.6732903  31.0440407
   5.9993911  54.0186501  31.2433376  70.1383286   8.6690474  54.4988556
  69.3855743   9.2034912  54.2459335  70.8599548   9.0048428  53.9671364
  28.2480392   4.6930747  19.5797672  27.3302937   4.9626465  19.5436668
  28.3137531   3.9811075  18.9433594  58.5608559  68.1210938  70.2788315
  59.0882416  68.1891251  71.0747375  59.1031876  67.6139297  69.6747665
  57.5774040  71.2304459  58.4216957  57.9453773  70.4042282  58.1083450
  57.4976883  71.1133957  59.3683624  39.4583130  68.2678146  50.1173782
  39.2266426  67.5012436  50.6417160  39.0527763  69.0034027  50.5763817
  25.6136990  41.5177383  11.5649242  25.9408894  40.6950150  11.9286671
  24.8417511  41.2654152  11.0583067  57.7217979  61.0039749  81.7697754
  57.0655174  60.5714417  81.2234802  58.1878433  60.2859306  82.1980820
  36.6088905  36.6275787   8.5149364  36.6545448  36.9327469   9.4210377
  37.5147629  36.6553078   8.2069378  83.3604050  34.9689674   5.8552299
  83.3700027  35.3495674   6.7334580  83.6689682  34.0714645   5.9797616
   8.9002600  64.8183823   5.2880850   8.8202114  64.4776306   6.1789889
   8.0057707  64.8106155   4.9474082  37.6057549   7.3835826  21.1953220
  37.6812630   7.6237097  20.2718124  38.4156303   6.9106507  21.3868198
  29.3280277  42.0751038  57.7516251  29.5857658  42.6425667  57.0251350
  28.4933224  41.6966476  57.4754562  72.8632126  35.2076912  60.4313202
  72.4855423  35.3156891  59.5584335  72.9605865  36.1005478  60.7623062
   9.1346369  37.4832573  18.9531784   8.3457422  37.8974419  18.6034184
   9.8568459  37.9549713  18.5382881   1.1701704  15.5231495  83.2419281
   1.9172330  16.0042095  82.8859634   0.5293196  15.5156918  82.5309525
  36.0566292  37.5574570  80.1447449  36.2339478  38.3169250  79.5897675
  36.9229546  37.2317924  80.3889847  26.4744568  59.9678268  85.0771027
  25.7569809  60.1302261  84.4646606  26.0566845  59.5496368  85.8299713
  83.4579468  67.2219086  54.3974915  83.2353973  67.1179047  55.3226357
  83.9443283  66.4274216  54.1773720  64.5309067   0.9219791  35.8196106
  65.0170288   1.3329902  35.1047745  64.7879333   1.4151562  36.5986786
  71.4584961  53.5537491  57.5176163  71.2450867  52.7056923  57.9068336
  71.5689545  54.1398849  58.2662621  67.2668228   2.6021676  58.1926689
  66.4804993   2.7601094  57.6701927  67.4951401   3.4613242  58.5475655
  28.5664768   7.1346984  80.8586349  29.1863270   6.6805277  80.2878876
  27.9643650   6.4504066  81.1509323  65.6534729  67.4659348  33.2581825
  66.1299210  67.1111832  34.0087700  65.5589981  68.3982544  33.4533501
  26.0738964  14.7437267  13.5155048  26.7838707  15.2974291  13.8404398
  25.5180874  15.3381166  13.0115128  86.5470810  12.5975761  11.5445051
  85.6991348  12.8008232  11.9393568  87.0753937  12.2645073  12.2698870
  56.3454475  42.8331985   9.8349333  57.2615814  42.6640358  10.0547466
  56.2494392  43.7815895   9.9219389  46.1177673  63.9340439  79.9418335
  46.9351425  63.8907051  80.4380722  45.4846916  64.3071823  80.5551910
  77.9770203  66.4598999  45.0716400  77.3867798  67.0651169  45.5205994
  77.3951569  65.8441849  44.6260376  67.9398575  28.0504017  24.3311749
  68.5378418  27.7306290  23.6556053  68.2125015  28.9552040  24.4835873
  46.3246040  14.3809080  70.4950027  46.0604210  14.4513216  71.4123230
  46.1513405  13.4679842  70.2652588  84.7973251  48.1409454  77.6503754
  85.1290817  48.3369064  76.7741470  85.2266312  48.7812538  78.2177658
  77.4982452  47.4125824  54.2805557  78.1188431  47.6260986  54.9773331
  77.9100723  46.6904793  53.8060036  58.7600899  42.7484245  33.9044075
  59.1806793  41.9113159  34.1008377  59.4845047  43.3704414  33.8369827
  55.2431297  42.2776566  28.8568840  55.5252495  42.0562935  29.7443733
  54.2873573  42.2398796  28.8929634  84.9974136  53.7604752  25.3146515
  84.6687698  53.1880608  24.6214237  85.7603302  53.2998848  25.6639996
  18.8117924   1.4405459   7.3474021  18.6284218   2.2732391   7.7824068
  19.7659035   1.3658634   7.3655252  14.7525530  71.0946121  82.5052414
  14.1543102  70.9289322  81.7766266  14.8980532  70.2331467  82.8963242
   5.8862882   3.7150652   7.2856226   6.4136214   4.1005840   7.9852843
   6.0320511   4.2876868   6.5325689  48.5375519  15.2246609  41.8103676
  49.1915665  14.6185465  41.4623375  48.6765366  15.2091560  42.7572937
  31.3531399  68.3178635  46.9762039  30.9892578  69.2004852  47.0455170
  32.2587280  68.4533691  46.6973152  12.7091665  70.1872253  47.0530815
  13.1579390  70.2144470  46.2080383  13.0113583  69.3745804  47.4586868
   5.2828441  32.9005051  16.2275047   4.9248924  33.2033844  15.3930187
   5.9896164  32.3033485  15.9823294  30.8854256   7.1667199  21.5555534
  31.4602051   7.2663946  20.7966557  31.4822350   7.0378213  22.2927361
  82.3142395  44.6176682  12.9045277  82.6072083  45.4676094  12.5758934
  81.3621674  44.6387329  12.8078651  73.3791351  63.6526527  35.4973526
  72.9220123  64.4546585  35.7504501  74.3071976  63.8840828  35.5343628
  80.9339066  25.3630180  16.9916363  80.8232956  25.7542801  17.8581886
  81.8726273  25.4297695  16.8167515  36.1933594  66.7238388  54.5837288
  35.5878868  66.1981201  54.0609932  35.8284988  66.7005310  55.4683571
  61.8121223  61.9403763  88.9638977  62.1069794  61.5391235  88.1464081
  62.2061043  62.8127174  88.9582672  70.1613159  31.6700611  38.2821426
  70.3233109  31.7040806  37.3393669  70.8130417  31.0530815  38.6150436
  75.5405579  25.2537708   3.7200713  75.1992950  25.4767952   2.8540256
  74.7927017  24.8747025   4.1818614  50.6339264  70.5625992   6.1010160
  50.3726883  70.6455841   7.0181313  51.0176277  71.4121094   5.8834658
  82.2737808  35.3553162   3.3754184  82.5427094  35.2422485   4.2870789
  83.0056000  35.8162003   2.9652262  54.4775734  44.2357140   6.5342517
  54.4850197  44.2437592   5.5771141  54.1787529  43.3558693   6.7640576
  56.3354301  29.7391052  10.1870651  56.7117844  30.4180183  10.7471247
  55.5597000  29.4400864  10.6614733  55.6281090  54.1668320   0.7611123
  54.7607040  54.2525558   1.1567111  56.1455688  54.8633423   1.1652625
  45.5561066   9.4017887  87.2883224  45.9928398   9.2062922  86.4592972
  46.1984825   9.9102268  87.7833710   8.8298626  55.0348740  41.8044891
   8.5050497  55.9188118  41.6330681   9.3704023  54.8263741  41.0425339
  86.0629349  28.0474949  29.9127216  85.4807739  27.7268505  29.2238770
  85.8289566  28.9701385  30.0138054  86.3605957  25.4625359  89.0029602
  85.4439163  25.7319508  89.0608444  86.4099426  24.9533024  88.1939621
  82.6709213  62.6750793  35.9135666  82.1514893  63.2784309  35.3821602
  82.2464981  61.8253403  35.7950592  58.9756546   1.5403445  18.7995377
  58.3802719   1.9752159  18.1890965  59.7427254   1.3209620  18.2706699
  24.2468948  70.6794510  87.0516891  24.6880684  71.2599030  87.6719131
  23.8025742  71.2710800  86.4444122  23.5745296  21.1306782  51.1014786
  23.7369061  21.8884716  51.6632729  22.6322327  20.9778633  51.1718712
  87.0299835  54.4058762  19.5163651  86.6028519  54.3304367  18.6630783
  86.6241302  55.1728706  19.9203892  25.1638317  38.4224358  78.0693130
  25.5773678  39.2853470  78.0939789  25.1200619  38.2043381  77.1383209
  10.3002043  49.5469894  68.2100525  10.9227896  49.0471344  68.7380295
  10.1502752  50.3484802  68.7114105  36.9417381  53.4800568  33.5052109
  37.5225945  53.0466423  34.1305046  37.3763046  53.3710556  32.6593361
  80.7857742  41.4619751  50.9489021  80.4663467  41.9948845  50.2207489
  80.0657959  40.8607101  51.1395493  11.2758570  71.6166077  31.1237411
  10.5841322  71.2292252  30.5873756  11.0375805  71.3894272  32.0225449
  24.3172340  65.8547897  25.1399765  24.2651463  66.8004074  25.0009689
  23.8130722  65.4785233  24.4185371  40.8961296  20.3620529   4.4038749
  39.9558105  20.5099983   4.5045815  40.9870148  19.4096088   4.3751655
  86.3539581   2.5590572  24.6189308  86.5504303   3.2800992  25.2170372
  87.1500168   2.0275414  24.6148911  64.3009949  11.4957809  86.9905853
  63.6255455  11.7150059  87.6324081  64.3908005  10.5448313  87.0527039
  79.9624176  66.8566818  34.7646408  79.6386642  67.2124100  33.9370728
  79.9179230  67.5924149  35.3753357  49.3549271  40.0584984   8.4406729
  49.9404907  39.5338745   7.8946686  49.7966690  40.1061592   9.2885094
  86.1458206  12.8822718  40.5678062  86.1385727  12.2980785  41.3260269
  87.0732574  13.0600023  40.4112473  56.4418411  52.5075417  84.4379349
  56.5421486  52.7927628  85.3461304  55.8739204  53.1678619  84.0408478
  49.0801926  23.9402847  65.4927673  48.9101677  24.6519012  66.1099625
  48.3302460  23.9546738  64.8981247  62.3877945  46.2069664  58.5525246
  62.5601082  45.5131798  57.9159660  61.9545746  45.7616844  59.2807236
  56.1378212  38.6160278  60.1373940  55.5164604  39.3306961  59.9981461
  55.5937805  37.8732147  60.3990898  79.0272446  48.7860222  31.9717598
  78.4878464  49.4142456  32.4519920  78.5713272  47.9507294  32.0749817
  38.7753716  56.6865234  42.8851357  38.2944031  57.4087372  43.2892532
  39.1289062  57.0570297  42.0764503  57.2492104  68.7628708  55.6559906
  57.3663597  68.7715073  56.6059570  58.0401344  69.1791153  55.3133354
   0.5705217  67.2143097  80.2328262   1.5107313  67.2785721  80.0651703
   0.4573226  67.5856247  81.1077805   0.2469046  71.4814606  84.4932938
   0.2116254  72.3309631  84.9329758  -0.3203226  70.9164734  85.0179596
  18.6668949  52.8971443  23.3929348  19.5776501  52.9065590  23.0985374
  18.3697319  52.0031013  23.2237816  10.9045820   5.9316583  30.8451061
  10.8961258   4.9787951  30.9357224  11.2024021   6.2506351  31.6970387
  14.8787060  44.9844627  49.2270889  14.6131868  44.3754921  48.5379715
  14.6267138  45.8462410  48.8953209  45.3849487  60.2095490   5.3755789
  46.0093307  59.4906502   5.2778144  44.5397644  59.8262825   5.1410480
   3.6724229  32.9678688  67.8791046   4.3543372  32.4056664  68.2467422
   3.0587194  33.1033859  68.6010742   1.2690116  33.3251343  49.2210770
   2.1384494  33.1152840  49.5620651   1.1520299  32.7298584  48.4806747
  79.6178207  52.3048172   6.0329709  78.9707565  52.7896729   6.5452809
  79.1104507  51.6275406   5.5856323  47.1303635  10.9769297  34.6805115
  46.6733704  10.1409492  34.5881844  46.6907043  11.4107523  35.4117622
  57.5949440  11.8099318  85.8661270  58.5172424  11.5978489  85.7225266
  57.3006744  12.1759520  85.0320587  59.3600311  44.7857780  84.0707626
  59.3416061  45.5775604  83.5332031  59.4256668  45.1080589  84.9696884
  52.8488274  26.9208527   4.1893792  53.0770569  26.0772552   3.7988863
  53.6832886  27.2773590   4.4940243  17.2589588   8.4311657  17.7070961
  16.5030823   9.0182629  17.7212582  16.9040337   7.5777092  17.9558392
  46.9941444  65.4058075   5.9154072  46.5184059  64.9447632   6.6063037
  46.9990540  66.3205261   6.1973653  29.6820316   4.6380897  66.1964951
  29.3600655   5.3563967  65.6518860  29.8759804   5.0457945  67.0405350
  19.5035515  61.5582275  51.5389824  19.9452457  62.3612862  51.8150864
  19.3977203  61.6562920  50.5927162  39.9552422  66.0489731  83.7811966
  40.6085892  65.7068939  83.1709900  40.4683495  66.4804001  84.4644318
  72.8112030  51.1309357  34.1130104  73.5741730  51.6875458  33.9571304
  72.6084671  50.7568283  33.2555885   2.0703685  56.5142326  64.7238617
   2.0432999  57.4403648  64.4835052   1.6788954  56.0613899  63.9769249
  68.6185989   6.1164351  60.9684448  69.3132553   6.1210151  61.6269722
  68.8267059   6.8545489  60.3956375   6.3120351  27.7352982  13.9487734
   5.3669271  27.6029205  14.0227995   6.4033532  28.4897766  13.3668327
  43.8382721  41.7002373  77.9202423  43.2480164  40.9956703  78.1874695
  43.2568283  42.4218788  77.6806870  27.8137093  49.6721344  26.7701492
  27.7879677  49.7712746  25.8184452  27.0048580  50.0827789  27.0757008
   0.7147565  18.0389690  80.1265335  -0.0480029  18.5542603  79.8640442
   0.4565238  17.6334534  80.9542465  17.4703903  40.5187187  22.0400200
  17.3556919  39.6140060  22.3308258  17.9585037  40.9380226  22.7486534
  82.9742355  10.2704468  79.4070816  82.6112823   9.5434513  78.9011383
  83.3936005   9.8528652  80.1594009  43.1082344  41.8514061  31.8025990
  42.1520615  41.8075714  31.8095856  43.3124123  42.6928253  32.2107124
  22.0503197  16.2301807   4.5188589  22.0496140  16.8714199   5.2295232
  22.5864334  15.5086584   4.8478270  35.4505119  42.0012360  82.9848709
  35.6035957  42.9164581  82.7499924  35.9733963  41.8660927  83.7751617
  73.6247864  37.7824402  25.4864178  73.2956696  37.7865639  26.3852501
  73.7311478  36.8550644  25.2745495  39.0022507  31.4234715  71.1542587
  39.9569626  31.4364433  71.0865402  38.7360268  32.3218422  70.9585876
  38.2581215  61.5322075  75.4696808  37.4450607  61.9282608  75.1561279
  38.4804688  60.8821487  74.8031845  53.4884033  50.2768517  73.4825058
  54.1328011  50.7732086  73.9870987  53.2216759  50.8728065  72.7825623
  14.6851196  63.5212364  55.8074303  14.2062550  63.0946541  55.0968285
  14.8259296  64.4160309  55.4980087   6.5565124  22.3914299  58.3085175
   5.9499030  23.0512218  57.9724617   6.3825941  21.6138744  57.7780533
  31.3377934  49.4406929  12.2093611  31.7025871  49.8599434  12.9887114
  31.3988171  48.5028915  12.3911190  16.8552475  11.4811869  73.1111298
  16.4049339  11.5526152  72.2694931  16.2457962  10.9973679  73.6685486
  55.7688103  70.2357330   7.2774177  56.1846504  69.3792877   7.3764567
  55.3295135  70.3869019   8.1143150  33.3546677  34.6370163  10.2393007
  33.8612061  35.3140373   9.7906418  33.7551460  33.8136902   9.9600439
  47.8315544  58.7291641  30.7325344  46.9076195  58.8179131  30.9664192
  47.8354492  58.1098442  30.0027008  27.2866821   6.9107895  86.8154144
  27.6897926   6.7477036  85.9626923  26.6727695   6.1858163  86.9327087
  73.9079742  71.3064804  50.8079376  73.7409286  70.8130188  50.0049286
  73.8800507  72.2236938  50.5356064  60.4901161  17.5689106   9.8785572
  61.0942993  17.0335789   9.3641510  61.0489311  18.2197342  10.3032770
  85.4739075  64.4516068   1.4054193  85.5469589  65.1302032   0.7342988
  84.8817520  63.8022766   1.0260051  60.3596306  29.5758724  65.0162735
  60.6674767  30.4752579  64.9041519  59.5657425  29.5263195  64.4838104
  49.2478218   4.4897094  46.9742165  49.8968124   3.9104576  47.3736000
  48.6059380   4.6441970  47.6672935  13.3587828  64.1490173  51.0486488
  13.8161869  64.6248398  51.7419052  12.6298504  64.7203217  50.8067703
  32.1617813  48.2122307  60.7650681  31.3717842  47.7381706  60.5054474
  31.9155064  48.6643143  61.5720367  14.2002831   1.7371562  71.0296173
  13.5617895   2.4472151  70.9634781  14.5769463   1.6712455  70.1521072
   0.3107853  66.4119339  43.3097343  -0.0273552  65.7105637  43.8664818
   0.4560691  65.9947128  42.4605865  48.4526100  58.0494118  84.0756683
  48.5635490  57.6711731  84.9479446  47.6251755  57.6858253  83.7604141
  80.4474335  57.4676437  42.5381508  79.9063873  56.6834908  42.6309013
  79.8362350  58.1484451  42.2567673  39.6440430  61.6543579  82.4634323
  39.0637093  62.3984261  82.6240768  40.4259491  62.0411530  82.0694275
   1.6830338  55.3023376  27.1975136   2.5011270  54.9096909  27.5021229
   1.2613850  55.6254387  27.9937859   9.2121849  64.9081955  26.5488186
   8.7780838  64.1235580  26.2139721   9.3211336  64.7406235  27.4849186
  28.3489304  54.3152657   4.3271537  27.9460888  54.6010666   5.1470747
  28.0386086  53.4176445   4.2079554  45.6631126  30.7646923  73.2475967
  46.2274971  30.1430168  73.7071762  46.0777435  31.6155148  73.3904648
  21.4822273   6.1524425  25.8378220  21.9919090   6.0175414  25.0389118
  22.0139771   6.7504425  26.3630543  81.9002228  14.2881317  16.4748440
  82.7294846  14.6178064  16.8210640  81.6704178  14.9026918  15.7778959
  10.6183329  16.5285397  70.0101852  10.4302158  15.9447947  70.7450867
  10.4076624  16.0108643  69.2331009  79.6340866  41.5011711  76.5386429
  79.4037018  42.3841286  76.8276749  80.2452240  41.6379471  75.8147430
   6.4401474  50.4408302  79.0529251   6.7396979  49.7052460  78.5186844
   7.2451320  50.8727875  79.3386688  79.8431625  11.2406464  18.2333679
  80.6912155  11.4311562  17.8324413  79.9187851  11.5785828  19.1257305
  55.8250961  27.6054497  34.2836533  55.1440697  28.1742363  33.9245987
  56.4445381  27.4892769  33.5632210  73.4148636  34.5506020   3.0292063
  73.5110550  35.4556961   2.7329206  74.2284470  34.3642273   3.4977968
  30.1995449  54.9066620  28.4268360  29.8947182  54.0583496  28.7488308
  29.4314404  55.4748993  28.4847317  19.8866005  64.2833099  43.0338097
  20.7508526  64.6938705  43.0065231  19.9657478  63.6026993  43.7021866
  53.7782440   0.9557655  48.0818100  54.6094933   1.4061911  48.2313843
  53.2855530   1.0870193  48.8919106  74.2347107  17.5177498  83.6093597
  73.5723572  17.6042156  82.9237595  74.0524750  16.6690559  84.0127716
  56.3617935  24.6608047  87.2690887  56.6059418  24.8659267  86.3665619
  56.6944389  23.7746658  87.4116974   5.6928596  43.3394470  39.6147957
   4.9845548  43.6248169  40.1919441   6.4149179  43.1300316  40.2072563
  53.5387726  10.6595926  76.9890289  53.4234390  10.3793011  76.0810776
  54.4085083  11.0588923  77.0077896  76.5238113  40.6061554  36.9591751
  76.3525925  40.7111473  37.8950653  76.0229721  41.3082047  36.5438194
  18.0708828  60.4098167   6.8414512  17.2787819  60.8896370   6.5994058
  18.7893963  60.9754333   6.5585256  82.0306549  46.2937393  71.8867874
  82.8631363  45.8765411  71.6650925  81.4264145  45.9998055  71.2050781
  46.3217087  58.1187706  79.3839493  46.1096458  58.4922371  78.5285034
  47.1755104  57.7043610  79.2593765   6.3359027  39.9496994  41.2004738
   7.1475358  40.3678207  41.4879799   5.6612086  40.3195190  41.7699089
   6.1469522  61.9894333   8.7087593   5.5125375  61.7921829   9.3978491
   5.6745100  61.8222275   7.8932400  59.2977829  68.1667862   3.4404490
  59.0226173  68.9535522   2.9697852  60.0628510  67.8541183   2.9576042
  59.2903252  57.5208588  68.0442734  59.8969536  56.8841209  67.6663818
  59.0358734  58.0759621  67.3071594  58.2859840  25.7124767  67.9398575
  58.2224083  25.7772923  68.8927460  58.5331650  26.5925312  67.6558914
  54.5837822  11.1902113  23.4444008  54.6962929  11.7670717  24.1999168
  53.6353493  11.1047363  23.3474522  14.1686659  60.2531013  63.7876625
  15.0659361  60.4641457  64.0457306  14.2615213  59.5288849  63.1686974
  76.4094086  61.9167557  61.5638504  76.2237396  62.2008057  62.4588776
  76.0148697  61.0468521  61.5019341  52.1035690   2.9682972  17.7090797
  52.5785522   3.6499965  17.2337837  51.2343140   3.3407886  17.8569984
  23.9891090  60.6587029  24.4783649  24.6562233  61.1834984  24.9208355
  24.2474804  59.7523460  24.6456757   2.4790847  23.6726494  44.5853043
   1.9786313  22.9447193  44.9539490   1.8444979  24.1559048  44.0561600
  37.2979088  52.2807770  62.0408211  37.1718445  52.5563583  62.9487801
  36.6459846  51.5928726  61.9065933  81.7923813  20.7172337  19.6513405
  81.0067825  20.9814510  19.1725349  82.4163818  21.4266624  19.4978161
  39.4942398  15.8999405  19.8618774  39.0480652  16.1604214  19.0560799
  40.1733589  15.2902393  19.5732689  15.0308571  70.2343750  74.1020660
  15.5212564  70.7315674  73.4474335  15.6957855  69.7198029  74.5595703
  63.2162094  28.6266041  37.5373383  63.6168289  29.4768066  37.7187004
  63.1887741  28.1884365  38.3879204  32.6490402  24.4309196  66.8078003
  33.4237480  24.9853611  66.9008179  32.2430344  24.4393044  67.6745911
  65.2518005  21.3071613  84.1294785  65.9839020  21.2001324  83.5221939
  65.2227707  20.4839783  84.6170883  64.8919220  54.0738068  44.2071991
  64.1545334  53.6224556  44.6180077  65.6517487  53.8150330  44.7286758
  47.2817535   0.5069165  21.3954239  46.9516296   1.0351911  22.1221809
  46.5995750  -0.1476952  21.2459278  80.4683990  54.0851479  53.0651436
  79.6832199  53.5396385  53.1114502  80.3145294  54.7811279  53.7040215
  64.6893616   6.7164011   9.9350443  64.6361008   7.2776752  10.7085857
  65.5825577   6.3725786   9.9496374   5.6556563  37.1897545  74.7184143
   4.7641039  37.0854416  75.0508118   5.6502814  38.0414276  74.2815475
  36.1174622  53.8915863   5.0703330  36.2455597  52.9650650   4.8669143
  36.9974174  54.2671432   5.0409250   3.3395762  18.9266167   6.7514725
   3.2448361  18.4206276   5.9444833   4.2854815  19.0036087   6.8762426
  81.2553635  47.5071526  19.9708557  82.1764145  47.5568619  19.7150879
  81.2563934  46.9771652  20.7679405  15.4106350  61.5945320   8.2720156
  15.0812302  61.1046562   9.0255051  14.8786306  61.2896881   7.5369821
  11.7625370  46.9724846  23.3105545  11.9971304  46.0447693  23.2872086
  10.8064833  46.9790154  23.2641678  51.5583382  55.6175613  85.6999512
  50.8923187  55.4125710  86.3561783  51.4815559  56.5624847  85.5678406
  18.1812229  70.1716156  83.7296677  18.1519547  71.1127853  83.9016724
  17.9148121  70.0870590  82.8141861  58.2603607  19.1497383  54.3699074
  58.1134758  19.0475197  55.3102303  57.5713577  19.7493782  54.0836563
  66.4909821  32.9645996  86.9797363  66.5878220  33.6783638  87.6101303
  65.7590485  33.2331657  86.4244156  53.8815727  51.7900238   7.0770712
  53.7432594  51.0811806   7.7052774  54.7346687  52.1551247   7.3119245
  60.8451385  68.8003769  22.3510780  60.2135010  68.6090622  21.6577797
  61.6841583  68.5025482  21.9995480  35.7021751   2.7107031  44.5592232
  34.9258804   2.4021130  45.0265236  35.3542633   3.1946626  43.8102455
  17.8194160  10.3581123  62.3284569  18.7238274  10.6240339  62.1624451
  17.8787117   9.4265184  62.5402298  58.9231339  42.1092377  10.5157862
  59.7579041  41.8738594  10.1108351  59.1537857  42.3645210  11.4090166
  68.9916687  50.6966591  60.3443375  68.2469025  51.0280838  60.8460426
  69.1908493  49.8494110  60.7427406  85.7624130  45.8562889   4.8121738
  86.2790833  45.8909492   4.0071411  85.6951065  46.7688751   5.0930533
  73.1888962  12.3107090  73.3081360  73.7185974  11.5139513  73.3369675
  73.7914200  12.9878845  73.0005112  28.1501522  23.1249504  18.7043552
  27.7753372  22.2510624  18.5945187  28.7315750  23.2325287  17.9516220
  50.3331795  63.3981476  67.0194702  50.5920563  62.5234413  66.7294617
  49.4752617  63.5391006  66.6190414  62.1332397  23.5649242  52.2654266
  61.9820366  24.0141850  53.0970116  62.9172478  23.9812756  51.9073563
  39.0948563  50.5814667  13.3591480  38.7835922  49.7670860  12.9640169
  39.4069023  50.3229561  14.2263460  42.3076096  18.4655628  81.3483429
  41.6512680  18.3751736  82.0391998  41.8649940  18.1610298  80.5561447
  13.9872847  35.3034668   4.6556435  14.1460381  35.1760902   3.7203338
  14.8355141  35.5728073   5.0080538  -0.1607289  49.3144493  82.9163132
  -0.4574592  48.6808243  83.5695343   0.6952103  48.9885902  82.6380768
  26.1115112  63.8370247  82.3816376  26.2210140  62.9374580  82.0733948
  26.2952805  63.7927132  83.3199921  25.1063328  50.3397865  19.7060528
  24.6203327  50.1563454  18.9020729  26.0221672  50.1891975  19.4719543
  84.5885315   3.4619308  18.4726429  85.1205978   2.7896883  18.0469398
  84.2870560   3.0512021  19.2829800  52.5936165  12.7886810  56.6226883
  52.0659637  12.2296448  57.1930351  52.1410561  12.7657347  55.7795448
  65.3926239  18.2264881  50.0400047  65.8951645  18.5991192  50.7644615
  64.8866119  18.9625607  49.6959496  36.1926842  66.6917267  34.3879852
  36.5966454  65.9764786  34.8793793  36.6003952  67.4835281  34.7387733
  37.6884155  45.7527809   8.4399652  37.7264442  46.6707458   8.7085314
  38.2795448  45.3021049   9.0430326   2.8239338  39.7548828  76.7369232
   2.0119665  39.8985519  77.2230301   2.7366500  38.8706818  76.3808289
  70.6265335  15.8610468  74.7853394  70.4436646  14.9782553  74.4636765
  71.1907730  16.2478237  74.1158142  69.5435104  20.7980251  39.1997871
  69.8805847  20.4530907  38.3729668  68.5949402  20.8320885  39.0761452
  60.2931747  40.3609657  64.9239120  60.1674500  40.2437782  63.9822655
  60.5401917  39.4927788  65.2424469  82.4400024  66.2948761   3.8526778
  82.3567734  66.0717621   4.7797842  83.0549088  65.6488647   3.5051281
  43.8276825  35.3975410  63.6917343  43.5025253  36.0925903  63.1195335
  44.7660446  35.5700912  63.7687645  73.2413177   9.2254114   8.7173986
  73.7072296   9.5751495   9.4768953  73.3197632   8.2754498   8.8048592
  32.4913330  67.8044205  25.6002941  32.0560608  67.4197006  26.3610554
  33.2584457  67.2500076  25.4574757  14.1861095   0.4655713  24.0194378
  13.7569227  -0.2668658  24.4616661  15.1091862   0.3820760  24.2585831
  10.8747101  54.9400177  72.7999496  10.3967352  54.2982025  73.3251648
  10.3453188  55.7356682  72.8539505  65.1085968  30.2087784  58.1485748
  65.9839630  30.5444794  57.9555130  64.5155792  30.8905201  57.8326836
  22.9989223  18.4586239  74.7949982  23.7794647  18.4453659  74.2410889
  22.3846626  17.8691864  74.3574142  24.9759350  52.7210350  14.9466362
  24.3812122  52.5160103  15.6680946  25.3499203  51.8760147  14.6970139
  44.8170700  29.7655277  66.2581177  45.1557655  29.3716469  67.0620956
  44.5919151  30.6619644  66.5069885   0.9952531  24.4681435  37.7223854
   1.8627490  24.8723965  37.7061501   1.0600631  23.7372551  37.1077042
  18.0371342  34.9331322  81.3162003  17.4669304  35.6784096  81.1273727
  17.4417667  34.2456512  81.6147614  84.7425842  64.8356857   3.9959605
  85.1709595  64.7796860   3.1417994  85.1446381  65.5959625   4.4161534
  39.4901543  22.7108955  88.0837097  39.6443825  22.8555603  89.0172577
  38.7229118  23.2464714  87.8818893  75.4890823  37.7414474  37.9426231
  75.7484741  38.5387802  37.4808846  74.5764923  37.6037750  37.6887360
  72.2558823  66.2685776  58.9598656  72.6506958  65.5887909  59.5059853
  71.8306732  66.8587341  59.5820770  44.8347092  46.8745918  79.6684265
  44.3205605  46.8863907  78.8611221  45.0548248  47.7927780  79.8256454
  18.2699108  56.3038139  32.3153534  17.6193523  56.6218147  32.9413605
  18.7110138  55.5872002  32.7715607  73.3516922  46.2274170  68.1292801
  72.8598709  47.0397949  68.2492218  74.2473297  46.5138512  67.9503479
  62.2296982  62.0068779  54.2805405  61.2905273  61.8992577  54.4309082
  62.4438210  61.3470497  53.6209908  61.3371162  33.8413544   0.9263743
  61.7788582  33.0027962   1.0602115  60.8914261  34.0123863   1.7560370
  23.5001125  48.0325089  56.4473114  22.6700840  48.1720734  55.9914551
  23.3041000  47.3622131  57.1019211  71.6530304   6.9712195  43.8824654
  71.0968933   6.4619703  44.4720459  72.4911423   7.0361471  44.3402710
  59.1539001  46.0625153  25.2157612  59.4366417  45.7917175  26.0892353
  59.2557793  45.2778778  24.6770573  34.2426720  45.5987396  11.7066460
  34.9413414  46.1648369  12.0347185  34.5308723  44.7121773  11.9238663
  63.8126717  52.0534859   9.3752756  64.3811722  51.2834053   9.3709593
  64.0893173  52.5597076   8.6114435  40.0913162  14.6023779   0.8736026
  40.6467628  14.4632301   0.1065632  39.4295654  13.9129848   0.8183510
   5.5155339  50.8000450  53.2013168   6.1070638  51.5467491  53.2948990
   5.2869525  50.7905807  52.2718582  21.2565937  28.3376446  27.5590515
  21.4893684  29.0310059  26.9415588  20.4010620  28.5981197  27.9002991
  42.3738594  10.8692980  59.6047173  42.7315483  11.7295485  59.3850365
  42.9048462  10.5705414  60.3429794   7.9992170  60.1600533  76.3890533
   7.4230442  59.6232376  75.8449173   7.4528971  60.8972855  76.6615524
  51.9001541  11.3727160  25.3721561  51.9863625  10.5025911  24.9826927
  51.0429420  11.3606958  25.7979202  84.8976364  67.1709366  67.7583771
  85.7488480  66.7376785  67.6954041  84.7677765  67.5699997  66.8980789
  20.9902802   3.0697565  16.7234364  21.9028625   2.9195614  16.4767246
  21.0406761   3.6288188  17.4987679   4.3242841   5.0208974  87.9889069
   3.7929347   4.7535381  87.2389603   4.7966194   4.2279592  88.2426376
   0.8705169  31.1889038  20.8916092   1.0126029  30.3196812  21.2664394
  -0.0805080  31.2629833  20.8122654  27.8135071  33.0581970  87.3478775
  28.6646938  33.0015411  87.7820511  28.0057735  32.9045906  86.4228516
  15.6157265  34.2466049  59.7971382  15.6981516  35.1888084  59.6498566
  14.8274250  33.9968758  59.3150101  19.9570370  55.5555992  74.0451431
  19.3481636  55.0044556  73.5534668  19.3943062  56.1307793  74.5635452
  10.6930218   8.1020746  20.8254128  11.5941401   8.1341553  21.1466427
  10.1564350   8.2690630  21.6002808  77.1754456  55.8230934  50.9606972
  77.6267471  56.6593399  50.8455849  76.9809952  55.5312767  50.0700417
  75.3763428  33.7780762  74.6907883  76.0050125  34.0350647  75.3652954
  74.5426941  34.1415100  74.9894180  66.0690155  17.5405159  87.8168640
  66.6936035  16.9277840  87.4286957  66.2872162  17.5466843  88.7488403
  84.2378235  65.2177811  35.4638138  83.3624878  64.8396759  35.3797455
  84.2098694  66.0085831  34.9252167  22.2637615  36.7718353  76.3422852
  23.1871700  36.5997238  76.1580887  22.0049248  37.4181709  75.6854095
  21.9984474  58.6880608  72.7536545  21.2308445  58.8460541  72.2040558
  22.2104053  57.7658005  72.6096344   5.2867441   7.4145145  87.4780655
   4.3942924   7.7300019  87.3358383   5.2112627   6.4607682  87.4480438
  33.1185036  55.6511650  42.2346649  32.6897926  54.8283882  42.4702072
  33.8146935  55.3940010  41.6301689  68.0880585   1.2777134  36.9327469
  68.9320908   1.6505111  36.6780663  67.4469452   1.7535423  36.4047432
  10.4782534  35.8004761  56.8738861  11.3001738  36.2519188  57.0659180
  10.2507267  36.0835915  55.9882774   8.3415871  44.4196587   2.2322817
   9.1979561  44.2597771   2.6288955   8.1996317  45.3601379   2.3398690
  22.4571152  27.3141060  57.0281181  22.7609806  28.2189674  56.9565468
  22.5427742  27.1055565  57.9583855  57.5353317  69.7861862  24.1988907
  57.4585266  68.8584290  23.9761620  57.4861526  69.8079300  25.1545792
  37.2767181  36.1738167  85.8204651  37.6761627  37.0433578  85.7965393
  36.6923599  36.1994514  86.5781631  77.2887421  61.3732758  31.6971035
  78.1835632  61.0351372  31.7315388  76.8103638  60.8509178  32.3409424
  68.0833740  10.4264584  43.5964088  67.8989410  10.7509260  44.4778519
  68.6093216  11.1166096  43.1923065  31.7024994  32.9183655   6.3918247
  32.0721283  33.7055817   6.7916994  31.9238014  32.2138596   7.0008616
  45.8300972   3.4215710  17.6046009  45.5462112   3.5712140  18.5064030
  46.6429787   2.9232306  17.6889648  43.0731430   2.0276098  85.9852600
  42.1159744   2.0208514  85.9822617  43.3093681   2.0837035  86.9111557
  12.8474369  71.1202545  71.9237061  13.5504084  70.9269562  72.5439529
  13.0854034  71.9681320  71.5486069   1.0641439  33.6862297  19.5198631
   0.1474191  33.9593201  19.4842434   1.0554471  32.8860359  20.0450726
  68.4852524  51.3876915   8.8327017  69.0964737  52.0667992   9.1180859
  68.7079239  51.2356453   7.9142618  48.2012901  46.8257065  10.1874781
  47.4644051  46.2705956   9.9323616  48.1315079  46.8937149  11.1397057
  54.4610176  65.3852005  36.2590141  53.5071793  65.4148178  36.3334961
  54.6241264  64.8494186  35.4827652  12.9296923  70.2151566  37.1417618
  13.2125025  70.7549820  36.4036331  12.6752977  69.3818207  36.7454376
   7.8226304  43.1541481  10.3561993   7.1206069  42.7439232   9.8511152
   7.5416913  44.0630074  10.4624176  28.6942673  44.1988564  81.0378189
  27.9067421  44.7220612  80.8885040  28.9715595  44.4309769  81.9240799
  12.5969820  33.7045059  81.2693253  13.2255354  33.6520081  81.9893265
  11.7407608  33.6741753  81.6961670  31.2544594  67.8959198  76.1656036
  30.7712059  68.5778961  75.6991272  31.9310398  67.6171188  75.5485611
  83.3801498  47.4106598  42.2582741  82.5216827  47.8290100  42.3234367
  83.2232513  46.5011559  42.5120850  44.0841904  48.3825493  49.9836960
  44.0155869  49.2711639  49.6345749  43.9264603  47.8157349  49.2286644
  56.5085716  19.0904808  20.8732281  56.2919807  18.3290901  20.3350773
  57.2159767  19.5262794  20.3979492  49.4370842  16.6815434   2.6323762
  49.5271835  17.3218327   3.3381681  48.4919167  16.5760784   2.5238843
  60.2005577  28.4349079  48.4928589  59.6282387  27.7162647  48.2240829
  60.9885597  28.0030289  48.8226547  70.4878082  71.1082001  61.5636482
  71.2420807  71.3086090  61.0094528  70.7279358  70.2965469  62.0106354
  53.4318314  19.0413799  25.4117374  53.9683685  19.7545071  25.7578754
  52.6273956  19.0738258  25.9294815   6.6485915   9.6470671  23.5660534
   7.4555335   9.1556311  23.7195683   6.4432130  10.0411758  24.4138317
  51.9231567  36.6655846  37.6944237  51.4032211  36.4478607  38.4680519
  51.3054848  36.6044197  36.9657440  47.4429436   7.8369765  15.9665079
  46.7880211   7.2058620  15.6681757  47.5405617   7.6569419  16.9015427
  34.8045006  45.6459122  57.3167152  33.8673439  45.7908401  57.4469452
  35.0891609  45.1919861  58.1099091  26.3721008  27.0197773  87.7668457
  27.2845669  27.2580261  87.9307861  25.8701172  27.7826252  88.0537415
  77.7703857  36.2869186  24.5492592  78.0478973  36.9591637  25.1715965
  77.9103622  36.6839371  23.6895981  60.8917427   8.8049650   6.6869249
  60.2898445   9.4632273   7.0342593  60.3914566   7.9891353   6.7060647
  48.3204155  38.1061440   0.5656889  48.4321327  39.0343399   0.7711297
  47.6423187  38.0902519  -0.1097096  55.6900101  24.0733852  16.6008797
  55.8638649  23.6369553  15.7668905  54.7388573  24.0311108  16.6996231
  78.1672974  31.6632576  81.0304184  77.4997330  31.7488422  81.7110519
  78.4732208  32.5578842  80.8811417  16.0828743  30.1799641   5.7219591
  16.9378452  30.5284252   5.4693084  15.9361429  30.5215778   6.6040030
  59.1209946  71.3699188  22.4363976  59.7669907  70.6823959  22.2744198
  58.6440048  71.0726547  23.2112179  63.7940521  12.5268507  34.9612122
  64.5989914  12.0937319  34.6771240  63.1879807  11.8091612  35.1451492
  63.5810623  20.7957096  46.5965347  64.0223541  19.9858952  46.3402290
  62.8652763  20.5092182  47.1638107  35.1352158  27.0263443   0.3687448
  34.9000206  26.1283302   0.6021679  34.5653114  27.5718174   0.9108706
  49.1687622  26.4755955  62.6919250  48.7231026  25.8859673  63.3001671
  49.7320557  25.9023380  62.1720123   3.5285969  12.9658403  52.0127296
   4.2876973  13.4063625  52.3947487   3.8269079  12.6802025  51.1492157
  85.3391342  33.1795311   0.9497203  84.4412079  32.9951553   1.2253455
  85.7687149  32.3241577   0.9452356  35.9590607  53.4141350   8.0544491
  36.1133156  53.8106194   7.1969900  35.0102310  53.4597702   8.1722298
   0.1503678  32.5467987  14.7751694   0.6401725  32.6321983  13.9572268
   0.8069110  32.6673813  15.4612036  71.2983704  46.2025642  77.2567902
  70.8348541  46.8384323  77.8018188  71.1957855  46.5324059  76.3640900
   6.8197951   8.4270687  85.3693695   6.3732262   9.2151365  85.0599213
   6.3267422   8.1615858  86.1456757  73.9976120   7.6180015  45.6853485
  74.1585693   7.3907728  46.6011505  73.8488693   8.5635176  45.6957512
  60.4689713  32.2406807  83.3943100  59.5672493  32.0638390  83.6623764
  60.3979034  32.5122910  82.4792099  62.6639862   9.6155434  79.4710617
  61.9813995   9.2451420  78.9114990  63.4828949   9.2902966  79.0971146
  69.2786636  60.9112778  53.4557686  69.6462173  61.6791725  53.8933525
  68.4333038  61.2089119  53.1195984  72.5877075  14.8483973  28.1762619
  72.9409637  13.9594326  28.2106762  72.3927307  15.0641193  29.0882263
  85.2119751  65.0449753  32.4492607  85.9074097  65.4209747  32.9889183
  85.2610092  65.5283051  31.6245022  57.4056396  66.3741760  72.4208069
  57.1697502  66.7560959  71.5753937  58.2950363  66.0436401  72.2945099
  80.6048126  56.5274048  60.1376610  80.1779404  57.1166115  60.7596321
  81.2065277  57.0894775  59.6495590  15.9224863  19.7398891  82.7835464
  16.4750061  19.3288116  83.4483566  15.4041395  19.0198460  82.4242554
  85.7956848  33.2699738  24.0696068  85.2156601  33.2208977  23.3097439
  86.4179611  32.5538292  23.9425678  73.0308151  69.1476364  24.9131775
  72.6307144  68.7346725  25.6784286  73.1862335  68.4250793  24.3049164
  36.1414490  62.3439064  63.8533821  36.9376717  61.9523048  64.2124252
  36.3790970  63.2550926  63.6816483  72.3816299  15.2595863   1.2958317
  72.6986465  14.6824121   0.6011348  72.0539627  16.0317764   0.8347615
  69.3324127  63.1019402   2.7499032  70.1378098  62.7757607   3.1513622
  68.7163239  63.1800690   3.4783003  45.8542442  27.2948570  81.1006393
  45.1844368  27.9470959  80.8952789  45.5331650  26.8628407  81.8921585
  23.3550453  65.5835648  88.3214188  23.1604080  66.5202408  88.3529434
  22.8122597  65.2500610  87.6070023  72.4853897  59.4876633  35.8089600
  72.9261551  60.1562309  35.2845802  73.0579758  58.7227135  35.7521591
  66.6874542  38.1610374  18.1485958  66.0515671  37.5328827  17.8060970
  66.1890488  38.9708786  18.2580433  29.0511665  41.7195282  39.3403702
  29.8386822  41.8009109  38.8023872  29.3692532  41.7793312  40.2411880
   8.4749765  54.4067879  63.6714211   8.6976633  54.2308846  62.7572556
   8.0188818  55.2480469  63.6492310   0.8314161   0.9383788   8.8576841
   1.4357421   1.5596462   9.2639456  -0.0231384   1.3664426   8.9099331
  70.6876221  53.4081955   2.9805932  70.0363159  53.2113533   2.3073273
  71.5092621  53.0690880   2.6254172  18.2352314  21.2266331  68.4670410
  18.7129059  21.9864082  68.7999039  18.4330750  20.5274963  69.0901794
  38.1854401  26.4734001   9.8245049  37.6065865  25.7149544   9.9014444
  37.6780243  27.1121426   9.3237352  71.2715607  44.3089447  81.1885452
  71.4095612  43.5661430  80.6008072  72.1086807  44.4156837  81.6402740
  60.2871819  20.0604897  42.8790016  60.7367287  19.2809258  42.5527840
  59.4858170  20.1105213  42.3579025   8.4942961  34.1531525   1.1725532
   8.7496071  34.7432594   1.8816533   8.1602936  34.7323074   0.4875321
  18.7971287  53.5197792  63.7334290  18.2577477  54.2371101  64.0662003
  19.4508781  53.3744850  64.4173431  81.8851624  29.1849384  21.6203156
  81.6118011  30.0404606  21.2892799  81.4847565  29.1246281  22.4876499
  83.4545364  67.7186966  62.1795387  84.0350113  66.9577484  62.1949806
  84.0433655  68.4672012  62.0832672  45.6105194  19.4433594  39.5014153
  45.6278458  18.9213085  40.3035355  45.4814377  18.8030987  38.8016777
  41.3075066  54.9812965  54.2889748  40.5391464  55.4664688  53.9882050
  40.9855232  54.0926781  54.4403458  12.7011194  61.4966049  61.1561317
  12.6737032  61.6246681  62.1043282  13.5474138  61.8562202  60.8902473
   0.9179837   2.3049421  17.9252911   0.0915869   1.8219404  17.9283619
   0.8453943   2.8990498  17.1782990  28.5344372  46.0227127  26.6896038
  28.4043102  46.6561584  25.9838810  27.9181995  45.3167496  26.4944267
  18.1914177  42.5631218  23.6752758  19.0281734  42.2704315  24.0363903
  18.3661575  43.4469109  23.3518391  85.1668091  64.8614655  54.5490646
  85.2524338  64.0759583  54.0088081  86.0366440  64.9873505  54.9282494
  85.6096191  70.9087601  10.8540497  86.4907684  70.8577957  11.2244749
  85.0735245  70.3704300  11.4363117  84.7255249  62.9191246  73.9782486
  85.3566437  62.2017021  74.0350342  84.3153915  62.8099823  73.1202850
  33.9301758  37.7532120   7.7177658  34.8616982  37.7482262   7.4976125
  33.8921585  38.1470680   8.5893517  22.8414211  55.4245605  41.3451881
  23.2433434  55.8999023  42.0723305  21.9005890  55.5527992  41.4660988
   6.6619601  51.7379723  60.1742706   7.1649804  51.3923569  60.9116669
   6.4404945  50.9664307  59.6528206  82.4079132  58.4741516  44.4308815
  82.8550568  57.8562279  43.8525505  81.5927811  58.0324631  44.6689987
   9.0867596  45.4034119  41.0700951   9.4029036  45.8615417  41.8488121
   9.8823977  45.1328354  40.6118584   3.8978260  12.7847548  10.3690844
   3.9939184  12.4544392  11.2623310   4.7778335  12.7280560   9.9967890
  41.8423271  61.7146721  48.5349770  42.4261665  61.1692924  48.0077896
  41.2805214  62.1520500  47.8952065   9.9702454  67.0885696  46.2725716
  10.0660248  66.2866821  46.7864075  10.6512089  67.0265961  45.6027374
  72.8503876   0.8585929  14.8591299  72.1584396   0.5284496  15.4322338
  73.6477203   0.4359614  15.1783066  59.2325516  63.7246437  39.8610954
  59.3511696  62.8482933  40.2273903  58.5596504  64.1252365  40.4115181
  80.3599701   5.3965049  84.7003250  79.8776093   6.2188921  84.7854233
  81.1606140   5.5349760  85.2063065  16.8490047  17.2536545  75.5347977
  16.8427792  17.2367058  76.4918289  16.7553349  16.3362083  75.2783813
  43.6726532  21.2332726  67.7581177  43.1598740  21.8671284  68.2596359
  43.0619202  20.8960571  67.1027374  67.1218719  10.4606981  22.8201771
  66.8655701  11.0599413  23.5212135  67.0124130   9.5883932  23.1987724
  76.2612991  48.9383507  63.7981148  76.9050751  49.3937378  63.2555161
  76.2327347  49.4434776  64.6106796  85.0156021   1.9494300  12.1435318
  85.7419662   1.3270595  12.1793985  84.3449249   1.5676913  12.7098331
   8.7445030  47.0661392  75.2195511   9.2892752  46.8378487  74.4663315
   7.8499537  46.8827820  74.9325104  64.7556763   4.2706971  61.2654915
  64.1206055   3.6050210  61.0013123  64.3857803   4.6519890  62.0617485
  84.8615341   7.2797813  37.0887489  85.4671936   7.7499809  37.6617470
  85.1241531   7.5325227  36.2036591  65.9966125  25.7725201  34.1048965
  65.5974197  25.7866516  34.9747696  66.3087082  24.8738270  33.9991608
  84.8381195  31.2092800  19.7511177  84.5904236  31.8432751  19.0781174
  84.6596680  30.3566933  19.3542786  57.9732590  47.4225349  23.0672989
  57.9540062  46.6092873  22.5628262  58.2182846  47.1500969  23.9515915
  48.5270576   0.6305867  38.3802605  48.4767075   1.5355078  38.0723381
  47.8945847   0.1579229  37.8391495  83.3912201  47.5816231  25.6406403
  82.6179123  47.0557213  25.4365311  83.0635757  48.2788467  26.2087574
  30.8697205  66.4208603  72.1148605  31.2990627  66.9263000  71.4246216
  29.9762421  66.7631912  72.1419296   3.2358327  62.6738167  62.2310753
   3.9715886  62.1874619  61.8591156   3.5986190  63.5347824  62.4392891
  61.2090759  41.7365761  18.5138836  61.9087486  42.3038254  18.8377914
  61.6599312  40.9466858  18.2154999  46.6485596  50.1899109   1.8972323
  46.7978287  49.3127861   2.2502248  47.2027893  50.2319908   1.1179430
  14.0990696  69.8522491  62.9367027  14.2281132  69.2784729  62.1814766
  13.1914740  70.1468964  62.8613319  38.5819054  30.6636353  74.8640671
  38.7112236  31.5681839  74.5789413  39.1567955  30.1493378  74.2972946
  66.1348801  56.4886780  59.1449280  66.1545868  57.2721252  58.5953331
  65.2937851  56.5360222  59.5993996  73.7742767  21.8206100  30.6434860
  73.8914413  22.4642792  31.3421955  73.8209915  20.9739227  31.0875244
  56.2606583  34.0019684  35.5415459  55.4308586  34.2192802  35.1167603
  56.0881424  34.1152687  36.4762268  41.7368889  65.5250778  46.5377312
  41.2141495  66.1360168  47.0570908  41.3037796  64.6795578  46.6549797
  70.9154587   0.0171563  19.9008064  69.9894028   0.1813455  20.0788231
  71.3419800   0.1019924  20.7535152  51.0623322  23.6794682   3.7178121
  51.9774246  23.7169971   3.9960816  51.1052094  23.5453682   2.7710223
  67.7523422  36.4686699  72.7737732  67.9844971  35.9124107  72.0301971
  67.0787048  35.9747925  73.2412338  21.4917431  51.7718315  62.2381668
  21.0275497  51.0595284  62.6779175  20.9216633  52.5328941  62.3478203
  32.0620346  52.6720695  40.2509766  32.4566154  51.8157730  40.4161987
  32.4836082  52.9792023  39.4483719  49.3338318  52.4587669  27.9224606
  50.2344856  52.7781143  27.9779434  49.2206001  51.9237289  28.7080441
  76.1960068  55.2518272  83.6677017  76.5800095  55.6354523  82.8792801
  75.5242844  55.8786278  83.9363098  80.5890198  56.5666695  49.3393021
  81.4019775  56.8581467  48.9265366  80.1137848  56.1165581  48.6408882
  67.3892899  48.8917694  78.8714905  67.8241425  48.1123314  79.2173309
  66.5400467  48.9079170  79.3128052  28.4548702  45.3830757  36.8583031
  27.5999146  45.6756821  37.1739998  28.6275806  44.5778427  37.3461533
  42.1191330   2.1039081  42.2000351  41.2431984   2.4419351  42.0137291
  42.3540611   1.6036974  41.4184761  40.2766418   3.2979348  83.0663834
  39.3206253   3.3414240  83.0857086  40.4786491   2.8259442  82.2585220
  52.2231483  10.6280594  52.2007751  52.4538155  10.0226641  52.9054184
  51.8704567  10.0677462  51.5094795  78.8650818  16.9667759  30.2673950
  79.1854858  17.7901287  30.6357250  77.9218140  17.0982628  30.1715584
  10.0792761  24.7467823   7.0851851   9.5313263  24.7985897   7.8683190
  10.9269629  25.0942268   7.3625698  56.0577278  49.9858780  81.1288605
  56.3137436  49.0689240  81.2282944  55.1314468  49.9513817  80.8900299
  66.0390472  55.6261292  42.1768684  65.5987091  55.2395706  42.9337730
  65.8553925  56.5630264  42.2456131  25.7286396  36.6834183   5.0838490
  26.0846043  35.8017845   5.1944809  24.8035965  36.5989647   5.3149204
  47.7841682  12.3508635  20.7921410  47.8137131  12.1141481  19.8651428
  48.5011826  11.8560038  21.1886730  77.6996536  16.4275665  81.8970261
  76.7758713  16.6124477  81.7276840  77.6989441  15.5660400  82.3141632
   5.8128681  32.1616478  57.2633743   5.3924193  33.0199127  57.2100830
   5.2516646  31.6561127  57.8513527  60.8532181  70.6420135  73.0970688
  61.1199646  71.1802216  72.3518143  60.5551147  69.8211594  72.7052002
  62.1248360  52.5965614  76.0702744  62.4936104  52.4140205  75.2060318
  61.2841721  53.0164871  75.8881378  33.6661873  47.1968346  51.5026741
  33.1259880  46.7948608  52.1829948  33.0507393  47.7127724  50.9818459
  21.7636051   5.4454837   7.4478025  21.6297073   6.3783703   7.2803922
  21.4861107   5.0148039   6.6392579  82.7865067  39.0935745  12.1077509
  83.3843002  38.5053368  12.5691137  82.6659393  39.8304939  12.7066202
  23.6861172  40.1732635  55.8459625  22.7741241  40.0066795  56.0841904
  24.1928959  39.6059837  56.4269943  62.6550827  24.4192467  39.5490952
  63.1622238  24.6353664  40.3316154  62.5814819  23.4650536  39.5673523
  48.0010643  43.9552994  22.1799984  47.8223953  44.4396515  21.3739491
  47.1862831  43.4879303  22.3641891   0.3767735   9.1572447  37.9387627
   0.7019774  10.0197630  37.6808205   1.0767702   8.5533333  37.6907158
  12.6025181  38.3217239  52.0174713  13.5113058  38.2972145  51.7179108
  12.6657543  38.4456520  52.9645042  30.0467014  15.8998365  67.4010544
  30.0461311  15.2960596  68.1438065  29.2671909  16.4399700  67.5308609
  25.7056885  11.6970005  12.5054579  24.7581654  11.6565990  12.3758392
  25.8830433  12.6192999  12.6902304  40.6059914  57.0983505  51.3554802
  41.4255257  56.6038475  51.3476181  40.0858002  56.6888657  52.0468254
  13.0899954  63.6236877  78.9620514  13.7636366  63.4500237  79.6195297
  12.6369295  62.7871246  78.8565826  55.0071678  58.6667938  83.3356323
  55.8390045  58.2519836  83.5641327  54.5342216  57.9981499  82.8401871
  68.1425552  35.9609566  87.1657715  67.4757233  36.0345497  87.8485260
  68.9341278  35.6922302  87.6320648  34.0206146  15.0622778  75.7377243
  34.9712753  14.9524822  75.7581406  33.7617989  15.0807581  76.6590805
  35.6266403  36.2890625  83.1288681  36.3074417  36.2576256  83.8009949
  35.3348312  37.2006950  83.1259918  45.1677933  41.6150703  61.5819855
  44.9417000  40.7818375  61.1686592  46.1106148  41.5575294  61.7369308
   3.2811644  13.5467052  55.4232674   3.1401258  13.2490950  56.3220253
   2.8418462  12.8907394  54.8820267  20.5383415  54.2419243  76.5411911
  20.7549381  54.9004745  75.8811646  19.7519531  54.5810051  76.9688034
  70.6187897  31.1602707  28.0277500  71.2838287  31.8363762  28.1575184
  69.8058929  31.6469345  27.8914375  41.2842293  44.1645012  80.3197403
  40.9646606  43.3630104  79.9053421  40.9025421  44.8716354  79.7996368
  78.1462860  15.3302116  85.2103424  77.4272995  15.9012251  85.4809723
  77.7164917  14.5932837  84.7762375  28.8832798  50.2137947   4.4697976
  28.4140720  49.4703979   4.8485270  28.7486153  50.9258041   5.0952063
  27.8491344  41.8154640  62.5302773  28.1179676  42.7299271  62.4424019
  28.3243256  41.3583832  61.8363762  42.8444786  41.6268501  17.4132252
  43.6632195  41.2579880  17.7446461  43.0526237  41.9105721  16.5230503
  48.0163116   8.3731461  26.9607143  47.2654877   7.8254375  26.7315655
  47.8297691   8.6755934  27.8495121  43.1241760   6.6959162  69.3302460
  43.7620888   6.9584026  68.6666183  43.6468925   6.2702584  70.0098190
  44.5978737  46.5012665  67.6922302  44.2254028  45.7958145  68.2212219
  44.7759628  47.2023277  68.3191452  55.2195930   9.1729269  16.0347977
  55.6312523   8.6152191  16.6948967  55.9132004   9.3409758  15.3969107
  66.2821808  48.4394035   3.1223192  66.0954132  49.2111282   3.6569133
  65.5107651  48.3424149   2.5639756  60.9962120  70.0056915  50.7863007
  61.7512703  69.7423630  50.2602043  60.6092491  70.7348557  50.3017349
  42.6972885  70.5712433   0.4300201  41.8852692  70.2068558   0.0777689
  42.5402069  70.6401062   1.3717289  34.0787811  42.0062408  70.1336517
  33.4897690  41.5735970  70.7518082  34.7039337  41.3262672  69.8825455
  25.3260994  14.9052954  36.0482941  25.6896820  15.4684181  36.7316208
  26.0678349  14.7169743  35.4733200  44.2018738  50.9284897  49.3484268
  44.5455856  51.5014877  48.6630287  43.6865501  51.5083008  49.9092216
  77.1392593   3.6889272  19.1310272  76.8465195   4.3813653  18.5385208
  77.7723236   3.1865718  18.6180954  60.8073730   5.7521143  63.5150146
  61.2856522   5.3492126  64.2396851  60.7704582   5.0704622  62.8440285
  81.7920914  31.7945137  46.9982147  82.5287857  32.3372498  46.7172165
  82.0183487  30.9123821  46.7034454  43.4503250   9.8137627  11.5271473
  43.5637817   8.9268541  11.8688383  42.5729980   9.8125486  11.1443529
  24.3800507  53.4602585  72.4630051  23.9229107  53.8787270  73.1924820
  24.3840466  54.1221390  71.7715378  58.7191925  70.5085983   1.9798876
  59.3612747  70.0291138   1.4563792  58.4141998  71.2085800   1.4026256
  68.6872864  38.8910751  38.3016090  68.7290649  38.3147240  39.0646935
  68.5602722  39.7658577  38.6688385  41.4867249  65.3080292  40.9476929
  41.5759506  64.8790512  41.7987213  41.2791328  66.2182693  41.1588898
  76.0680161  16.3812237   1.0203533  76.9583282  16.4230804   0.6713265
  75.6491165  17.1819115   0.7046771  42.7981834   3.1894615  30.7308712
  42.7982826   2.5559909  30.0132732  43.0477219   4.0170913  30.3197861
   2.8141308  31.1023254  55.6097221   3.3793223  31.8537102  55.7891998
   2.1755216  31.4289646  54.9759102  59.9228554  47.9322319  60.4167709
  59.4250298  47.9327087  61.2343292  59.2563133  47.9009132  59.7304955
  60.0281715  25.5167065  75.2510757  60.6140022  25.2281265  74.5512466
  59.2993622  24.8967457  75.2242279  66.4274063  33.9229507  82.1637726
  65.6566544  33.3933105  82.3678589  66.9199829  33.9550018  82.9838791
  45.5330620  35.6751823  50.2683945  45.4806290  35.2939377  51.1448288
  46.4711227  35.7248116  50.0845146  76.2539215  55.6415291  10.8054085
  77.0452118  55.6447983  11.3440008  75.5367813  55.5579033  11.4338579
  49.2488060  68.5703735  26.2207165  50.0507431  68.0494385  26.2626553
  49.0919075  68.8417511  27.1251316   9.1850042  41.7784500  57.3578987
  10.1085529  41.6627922  57.1344833   9.1943827  42.0822868  58.2655449
  63.2633514  41.7288399   1.3765854  64.0426407  42.1091423   1.7819413
  63.1942177  40.8558235   1.7629676  33.5947762  38.5679092  67.9786453
  34.2235374  39.1984291  68.3298416  33.1595078  39.0354233  67.2657623
  67.5554581  12.4659777  45.4925575  67.6622620  13.3854733  45.2489319
  66.6190338  12.3716497  45.6670456  50.0718079  53.6796227  11.6692257
  50.0846329  53.7422371  12.6242895  49.1735954  53.4250603  11.4579287
  15.3565722   3.9928238  87.4973450  14.8893566   4.8054161  87.3033524
  15.0797968   3.7633398  88.3844528   2.1226211  10.2402582  77.0968246
   2.3714464  11.0481691  77.5458221   1.1733642  10.3064861  76.9931107
  58.4542236  20.0322285  84.6467209  58.5629120  19.1121616  84.8873444
  57.8457336  20.3800201  85.2986526  61.9789734  69.4188843  81.8784103
  62.7760849  68.9606857  82.1446762  62.0009804  70.2415771  82.3672104
  58.4101753  43.6080704  53.8409615  58.5743523  42.9119186  53.2048416
  58.0728569  44.3355179  53.3182106  71.9573212  21.8457813  44.2482376
  71.3591690  21.8845787  43.5019493  71.9985352  22.7466087  44.5692368
  43.8313751  70.1490860  86.3582153  43.8356056  70.9383469  85.8166580
  42.9283791  70.0753937  86.6670914  75.4237289  25.0114002  82.7307587
  75.4110489  25.9664268  82.7939682  76.3487015  24.7908821  82.6210480
  30.6159058  20.2524815  68.8678360  31.2427483  20.9304581  69.1201248
  30.0326195  20.1727638  69.6225891  12.6582260  62.2922859  83.5078354
  13.5362129  62.5302658  83.8057175  12.8075619  61.6840744  82.7839508
  43.2924614   2.7305517  17.0410480  43.3361206   3.6506965  17.3011627
  44.2048416   2.4413023  17.0297356  58.5856209  22.4120579  40.2776031
  58.3137398  21.7348900  40.8970833  58.9785690  21.9282608  39.5511284
  29.0554981  63.8718529  86.0261993  29.9835930  64.0892410  85.9389343
  29.0494213  62.9599457  86.3170853  30.6643372  15.2951632   0.6474460
  30.9793358  14.4415970   0.3500683  31.2437325  15.9262905   0.2205839
  46.4146538  37.9488258  68.0831375  46.4412384  37.2926712  68.7795486
  46.4122314  38.7876015  68.5443192  14.1236382  54.6267509  59.8753738
  13.3091574  54.8740234  60.3132210  14.1464939  53.6716042  59.9336929
  69.9451599  66.7316818  40.2363014  69.1170654  66.7532120  40.7159042
  70.3894348  65.9482727  40.5605431   9.0194902   6.0065193  62.7277794
   8.7307911   6.4164786  61.9124146   8.6741257   6.5742712  63.4166985
  42.1134605  71.1353989  28.7072105  42.1537323  70.6392593  27.8896217
  42.2776260  72.0414810  28.4458656  30.2206478  61.2577858  49.5221519
  30.8966446  61.8714256  49.2345734  29.7064037  61.0814590  48.7343102
  74.0511169  14.7709913  84.6884918  74.0417175  15.3027582  85.4843369
  74.8147812  14.2027311  84.7891464  28.1470947  28.4670086  60.2868233
  28.7011490  28.9585571  60.8931541  28.7288780  27.8045292  59.9141579
  76.5039749  60.9157219  19.3271275  76.8507385  61.3110313  20.1269512
  76.1261063  61.6491547  18.8418159  58.2803040  56.1530609  77.5757980
  58.3088036  57.0955658  77.7404251  58.2477570  55.7585678  78.4473114
   6.0095415  63.2759247  39.8490410   6.9466877  63.4340439  39.7350769
   5.8811274  63.2707481  40.7975731  67.8843002  56.6318970  28.3905544
  67.2814102  57.0599823  27.7826920  67.5885925  56.9105453  29.2572403
  59.6166573  39.3873138  88.0400772  60.5395317  39.5681648  88.2184677
  59.1649590  39.6263123  88.8494492   9.8873167   1.6630747  35.6453438
   9.9168472   0.9625993  34.9936600  10.5458317   1.4145901  36.2940674
  81.7352219  71.4024200  15.8994808  80.8074799  71.1881027  15.9974432
  81.9533997  71.8905716  16.6934204  48.9275360  48.1895218  48.5455971
  49.6659470  48.7066040  48.2237206  48.9295349  48.3324471  49.4920616
  49.6484032  44.9718971  33.0296707  50.3278885  44.8688202  33.6959343
  48.8309097  44.7817726  33.4898758  45.3596611  65.0273972  11.1259508
  44.5136375  65.4488220  10.9747057  45.1615562  64.2952347  11.7098398
  64.7205963  17.1130505  53.7471733  64.0904846  17.7955761  53.5161896
  64.1822052  16.3856735  54.0590935  78.1011124  22.1806507  45.4407463
  78.1207504  22.7434711  46.2147484  78.4910355  21.3569794  45.7335892
  23.1990986   0.5818537  85.1750793  22.7497616  -0.0879536  84.6596375
  22.7246113   1.3905791  84.9825821  39.6453972  54.6422310   8.2375193
  39.5209732  53.7215347   8.4678860  40.5900688  54.7806625   8.3058043
   1.5811173   7.2311311  30.3872566   1.7705808   6.3336592  30.1136150
   2.4252973   7.6796904  30.3384056  66.8227768  23.1114960  68.4544983
  66.5484238  22.8665752  67.5707703  66.6295090  22.3403645  68.9876328
   1.8452045  46.7970123  72.1110687   1.1425291  46.1481781  72.1496887
   1.7742356  47.1750412  71.2345428  67.9993057  10.3991880  53.8284683
  67.1390228  10.0523643  54.0648270  67.8423538  11.3258247  53.6469612
  17.7079544  38.9764481  59.3203049  18.2608852  39.1798592  58.5659027
  17.0764275  39.6949196  59.3550529  35.8778610  67.1688080  69.2768097
  35.8603973  68.0680008  68.9491272  36.6097908  67.1527786  69.8934555
  77.6372223  62.7219849  51.0464630  78.5073471  62.5419350  50.6905251
  77.0861664  62.0211906  50.6979523  86.4594574  30.0989666  65.1084824
  86.3627472  30.1324406  66.0601959  87.2674408  29.6056156  64.9670486
  84.7113419  68.5690765  41.5181160  84.3663788  69.2006302  40.8869476
  85.1775818  67.9264145  40.9834747  21.3356113  51.8127518  75.8153229
  21.0397835  52.6575584  76.1544724  20.7211189  51.1781769  76.1840363
  57.1707344  49.5759659  50.1270790  57.8668976  49.1323357  49.6425323
  57.0684166  49.0592461  50.9263039  28.3020287  15.3896770  81.3020859
  29.0586014  14.9281340  81.6637573  27.9648457  15.9068756  82.0335541
  63.7800827  66.6411896   0.8462601  63.9332848  65.9674454   1.5087022
  64.3494949  67.3656769   1.1053364  45.0292244  25.4056759  89.1375198
  44.9614449  24.9247093  88.3127136  44.1767693  25.8291588  89.2385864
  76.9605255  27.8901482  50.4945183  76.5585785  28.6007862  50.9941826
  77.1598663  28.2790661  49.6429100  57.8291855  37.8839951  28.4990559
  57.5559311  36.9691429  28.4311790  58.2706604  38.0643082  27.6691055
   4.1952076  45.3048706  20.2125702   3.9097362  45.4990845  19.3198109
   3.3832583  45.1505318  20.6954250  53.8678284  23.5193367  78.0633316
  54.5757141  23.8810272  77.5301208  54.1427383  23.6785603  78.9662704
  72.3009491  19.1567230  16.0806675  71.9742889  19.0224075  15.1910152
  72.1723557  18.3124771  16.5130405  45.8884811   8.4244442   3.0604899
  45.0599785   8.8341942   3.3093281  46.5412445   8.8448067   3.6203361
  73.9112778  18.7638397  24.0933208  74.4887161  19.3490429  24.5835533
  73.0875931  18.7764816  24.5807819  65.7361298  37.2300186  53.3610802
  65.6636734  37.1678581  52.4086533  65.3678665  38.0875397  53.5738449
  45.9915428  13.7722168  65.9596481  46.1668625  12.8405533  66.0919266
  46.7826881  14.2114744  66.2716980  13.1405640  29.7983379   5.3712640
  14.0955105  29.8562832   5.4020939  12.8619490  30.6334114   4.9954233
  47.2275581  32.5790100  66.1380157  47.3637390  33.0733376  66.9462967
  46.2947578  32.6811066  65.9490967   2.5978029  67.5080185  28.0722733
   2.2934654  67.4846725  28.9795017   1.8223026  67.2932739  27.5538940
  51.2651100  67.5932007  77.6657715  52.0733528  68.1046829  77.7027359
  50.6348915  68.1041412  78.1737061  20.0062046  70.6453171  66.5393219
  20.2047443  71.4969711  66.1501083  20.6963539  70.5121841  67.1890945
  58.6570015  53.6433105  64.8008347  58.5051003  54.5445862  65.0851898
  58.6126328  53.6828804  63.8454819  57.8368149   7.3242111  13.9499521
  57.8154716   7.9620023  14.6633930  58.6357460   7.5329995  13.4658594
  30.1003933  41.7212486  50.5653076  29.4096355  41.3764534  51.1311722
  30.9113579  41.3796234  50.9419518  24.8549843  35.8290749  89.4119339
  25.5479412  35.9835663  88.7699203  24.0466251  35.8412514  88.8994522
  78.6217194  46.1850853  74.8505783  77.7161865  45.8890724  74.9433823
  78.7311172  46.3302956  73.9107971  74.1143036  21.9342861  70.0454254
  73.9120255  22.8180466  70.3524857  73.3209381  21.4303284  70.2266159
  43.9252396  49.5609856  37.9824066  43.4331055  50.0103874  37.2953300
  43.9706879  50.1949043  38.6981659  57.8418350  42.3021736  56.3134766
  56.9590340  42.0112648  56.0848541  58.0624199  42.9481964  55.6424866
   4.8132401  62.0538368  76.1109924   5.0223460  62.2085266  77.0321732
   5.4068279  62.6308899  75.6304703  74.2187195  39.9414978  88.5262451
  73.4501648  39.4854889  88.1833115  74.8188782  39.2408409  88.7814331
  29.0105515   3.3330231   0.5709125  28.1093025   3.5872140   0.3725004
  28.9446507   2.4227703   0.8595798  79.3143005  13.5698156  47.9574051
  78.6537170  13.7171221  48.6342773  78.9914780  14.0549994  47.1980553
   9.7422476  61.3135223  33.0926094   9.9481516  61.3639946  32.1591797
   8.8932829  60.8727264  33.1271133  14.4415045   6.1918244  85.7973785
  13.5568810   5.8914289  86.0057831  14.6313906   5.8033638  84.9433975
  39.2590675  51.6418571  33.8918266  40.2027512  51.5078125  33.9797287
  39.1678925  52.2074051  33.1249657  75.7765045  22.9579163  80.0136032
  75.0331573  22.8256207  80.6019516  76.5061188  22.5141220  80.4459686
   3.0252666   2.6996529  86.8749847   3.5430501   2.0112715  87.2924347
   3.3923030   2.7746058  85.9941330  52.9905548  21.9074287  76.0203781
  53.7688599  21.3505039  76.0379257  53.1365280  22.5450993  76.7191620
  68.1574554  17.0780716  82.7951736  67.4491119  17.1118908  82.1522598
  68.2125702  16.1550179  83.0424957  47.3501930  49.0988960  83.2845764
  47.3422241  49.6447945  84.0708084  47.4518852  48.2059441  83.6140060
  23.7672348  27.1108665  83.6843796  23.9858856  28.0412159  83.6307983
  24.6071701  26.6616058  83.5900269  10.4693804   1.1210986  51.6124077
  10.2147570   0.2285320  51.3784790  10.6813641   1.5365545  50.7765312
  33.9510231  58.6950798  40.5101204  33.6460381  59.0589333  41.3412781
  33.1744995  58.6925926  39.9504433  58.2545242  59.8986511  32.6587601
  58.9705696  60.5337906  32.6484261  58.1519203  59.6384697  31.7433281
  56.0290833  65.0429153  74.3254013  56.6638184  65.6182175  73.8983612
  56.5481453  64.2995377  74.6323090  55.5562401  26.3498135   2.4857295
  55.3967896  27.0701962   3.0955307  55.3828392  26.7242832   1.6220533
  63.4818115  64.4960480   2.9305387  63.9738426  64.4452667   3.7500236
  63.7204895  63.6985435   2.4580476  14.9527779   8.5838823  65.9613800
  14.1459246   8.5437984  65.4479446  14.6931963   9.0000954  66.7833328
  58.3427353  67.0362244  23.1560249  58.7310066  66.9074326  22.2906399
  59.0809059  66.9707870  23.7618771   9.8475952  69.7499008  76.1740112
   9.2003336  69.0889587  75.9281616  10.3003778  69.9574127  75.3565979
  45.9823532  27.5581818  76.6765594  46.3748131  26.6899090  76.5854034
  45.0444336  27.3889503  76.7654495   7.8030567  25.2548065  66.1889420
   7.9729414  26.1868248  66.3257446   7.4075718  25.2086735  65.3184891
  82.7593155  40.1909142  49.7585449  82.1208954  40.7416534  50.2116852
  83.1087036  39.6180153  50.4411507  26.9175701  65.0229340  28.7300186
  27.1173725  64.9846191  27.7946873  25.9636230  65.0917206  28.7685337
  26.4786339  54.8299141  66.8554001  26.1702175  55.7162971  67.0436554
  27.0309334  54.9281693  66.0798111   5.2256994   0.6272444  47.0947685
   5.1383882   1.2318538  46.3578453   4.8065090   1.0796944  47.8267555
  20.9001331  15.0664196  75.7703857  20.4495869  15.9102554  75.8047180
  20.4682465  14.5930662  75.0593033  74.1336517  52.8173904  58.9959259
  73.2519455  52.4594460  58.8924522  74.2436752  53.4033394  58.2470627
  78.5198898  24.0753803  66.0380859  78.3871841  23.2165375  66.4393463
  78.0945206  24.6882496  66.6378250  80.7134247  68.7529755  36.7395782
  81.5968628  68.5341339  37.0360374  80.1625061  68.6220398  37.5113106
  24.7406616  53.2448845  27.1265278  25.0909977  54.0335464  26.7123928
  23.7985287  53.2866135  26.9625950  32.9485092  47.5065346  23.2177963
  33.8145180  47.8025398  22.9373589  32.3375816  48.0738602  22.7475395
  18.1521378  11.9034567  25.9400043  18.3678932  12.6923447  26.4373341
  18.9984684  11.5672140  25.6452217  16.8030052  22.8394699  85.6797485
  15.9502811  23.2574596  85.7996674  17.3660088  23.5362892  85.3425522
  42.0409508  47.1419487   4.8202066  42.8907356  47.4129868   5.1675386
  41.6217155  47.9584885   4.5486698  21.1108055  47.3776932  89.0168076
  20.7831974  47.7184982  88.1844940  21.5232162  48.1315155  89.4385910
  84.0873871  59.1068420  46.4546623  84.8749237  59.4592133  46.0401001
  83.4674911  58.9939232  45.7341003  85.3198013  36.2346611  28.1700439
  85.1378708  35.7192574  28.9558487  85.4404602  35.5833664  27.4790401
  75.1101990  45.1763039  11.1339474  74.3136063  45.3079453  10.6198101
  75.7557755  44.8643990  10.4997625   9.8274574  63.6260414   3.2180147
   9.8190737  64.0917664   4.0542307   9.6648960  62.7120399   3.4512725
  65.2316132  50.6751556  56.1777306  65.1303253  51.3624153  55.5192108
  64.6081314  49.9980164  55.9150810  27.6951504  59.5143471  57.1304245
  27.7528419  60.4341431  56.8718185  26.7709846  59.3825607  57.3420486
  81.7543640  37.8881760  43.3099556  81.8745346  37.8842697  42.3603363
  82.2542343  38.6467438  43.6115150  83.3320465  45.6806412  68.2064362
  83.1610413  45.0339622  67.5217514  84.0872726  45.3331223  68.6808777
   8.5533152  25.2762737  53.3769569   9.1106672  24.8692989  52.7136612
   8.8820772  26.1723480  53.4490471  17.7113972  71.2824860  59.2754059
  16.8137589  70.9864807  59.4265938  18.2576408  70.5968094  59.6597252
  27.0966034  20.2880611  84.4802475  26.6799660  19.4572277  84.7090683
  27.5586357  20.1068840  83.6617508  60.8262444  30.5987644  61.7884712
  60.9980354  30.3814068  62.7047005  60.1459274  31.2711067  61.8253098
  45.9404144  36.1848831  57.8221931  45.2049866  35.8364067  57.3182640
  46.4385071  35.4110146  58.0853691  73.0818253  10.1172733  88.4522858
  73.1007156   9.1922102  88.2070694  72.3633499  10.1837034  89.0812607
  23.5639267  25.9403954  19.2013779  23.1217785  26.7109127  19.5578079
  23.9209480  26.2352581  18.3636284   6.5751443  68.0341644  76.8834229
   6.2660828  67.1291580  76.9243240   6.5489058  68.2543716  75.9522629
  77.4384842  32.5824814  40.3237343  76.5508575  32.4163437  40.0063324
  78.0073547  32.2064743  39.6519928  55.8136177  66.7243195  11.1711035
  55.2372818  66.1022339  11.6150398  55.2234077  67.3963852  10.8302078
   3.6133621  11.6628695  68.1382065   3.1934757  10.9824591  68.6644821
   4.5043230  11.3420315  67.9986191  13.4145508  16.0166206  62.9201698
  13.3316727  15.3067265  63.5568886  13.5724287  16.7973042  63.4510536
  59.7219505  56.5931931  48.9464722  58.9959030  57.1176300  49.2841911
  60.4159851  56.6977425  49.5973320  56.3025284  65.0447998   2.8967946
  55.5690575  65.4133072   3.3891940  56.2841873  64.1103058   3.1032331
  45.9308929  44.7264862  85.7366333  45.0211945  44.7259483  86.0344315
  46.2951889  43.9098473  86.0781403  22.2749310   6.0219517  20.8786716
  21.6263580   6.7206807  20.7928543  22.8510323   6.1357484  20.1227684
  12.7114954  51.6847076  28.6902447  12.3354521  52.5619011  28.6170464
  13.6032257  51.7776489  28.3549690  83.9082947  14.7567930  74.7797623
  83.2123337  14.8290806  74.1265793  84.6828384  14.5037546  74.2774811
  56.4153061  11.8105698  35.1419907  56.2633553  11.5579062  34.2313271
  57.2146072  11.3456450  35.3893661   0.3462366  30.0969715  67.7982178
   0.9119681  29.6921196  68.4556961  -0.5173749  30.1252747  68.2100525
  66.6555862  25.8562851  75.6624680  67.4522171  25.3652668  75.4612122
  66.9322052  26.7726402  75.6608963  45.4155388   6.0501566  81.6765823
  45.9017754   5.9947648  80.8539429  44.5360718   6.3246784  81.4169617
   4.3371677  70.6056213  30.0601597   4.8503623  69.8957214  30.4460564
   4.3101797  70.4009705  29.1254826  72.5568314  57.4663734  33.4187202
  73.1709061  56.7479553  33.5704727  72.9685440  57.9926224  32.7333069
  19.4153061  26.1682262  78.8570938  19.2867031  25.5481091  78.1393585
  18.5567017  26.5728741  78.9807510  10.7299614  28.2074108  85.9246216
  10.3047066  28.3682957  86.7669449  11.1325617  27.3443108  86.0205536
  45.8797798  37.7991447  85.3331833  45.4018059  38.6272316  85.2879944
  45.2078781  37.1279449  85.2137299  47.3940315  58.8631859  16.9549065
  48.1861992  59.2555847  17.3219509  46.8299675  58.7088318  17.7126923
  51.2952957  13.9685049  24.4447460  51.0618820  14.5073061  25.2006855
  51.5603485  13.1293898  24.8213959  53.5918388  36.9374695  26.6027470
  52.6897049  36.9067497  26.2842445  53.5501251  36.5519447  27.4778824
   9.6872206  58.2706223  87.4673462  10.0261087  57.6156731  88.0776215
   9.5420513  57.7875366  86.6538467   0.3225337  56.4475822  38.9683418
   0.2744578  57.3211555  39.3566666  -0.5283473  56.0531807  39.1598625
  10.8312492  38.7264404   5.5282125  10.9853764  38.4119682   4.6373787
  11.2060289  38.0480042   6.0899024  51.5005112  40.0937119  77.0558853
  51.8904190  40.8731117  76.6599808  50.6019783  40.3528328  77.2601624
  82.2233124  27.7538586  82.6855621  81.3981552  28.2319202  82.7680359
  82.1910477  27.3697643  81.8093948   3.2775290  18.9342422  51.7210999
   3.9193430  19.3566933  51.1502762   3.4602637  19.2893600  52.5910034
  79.5777740  44.5288277  20.0614758  79.6203308  43.5813065  20.1904125
  80.2037811  44.8847122  20.6921082  77.4850464  31.6248913  61.7094688
  77.8794937  32.4372215  62.0269051  76.9783325  31.8888187  60.9414749
  64.5629501  33.9357300  85.0416565  64.5247269  34.7814789  84.5950241
  63.7568703  33.9001770  85.5566330  79.9484634  39.7167664  45.8134117
  79.9606323  39.7613640  44.8573265  80.8166351  40.0205269  46.0784225
  25.7222748  38.9928322  64.0076752  25.8205433  39.1955566  64.9379807
  25.2521286  39.7446098  63.6470795  17.4468174  48.6807594  11.3969002
  17.2271252  49.5319786  11.7755709  16.6967297  48.1244240  11.6068821
   9.7399044  65.0008240  10.9199429   9.7649679  64.1338806  10.5149632
   8.8237181  65.2698898  10.8533449   2.3263106   9.2892246  57.3382187
   2.8513305   8.4953279  57.4397774   2.0604134   9.2845297  56.4187050
  77.9599380  21.3712425  22.3180809  77.6981812  21.8478355  23.1058426
  77.8966522  20.4484253  22.5643234  23.5836105  37.5164261  67.9235764
  23.3478565  38.4408340  68.0017929  23.1519299  37.0954247  68.6669769
  47.4222908  46.4888420  59.9455528  47.8315582  46.4529190  59.0810089
  46.7971954  45.7639351  59.9449387  63.5868111   4.6424727  78.9867325
  63.9910316   3.9681032  78.4407883  64.0362091   4.5701160  79.8287811
  35.1576042  13.9097538  69.0154724  34.2304077  14.1090794  68.8858032
  35.2134628  12.9587460  68.9222183   4.8223767  30.1762657  68.7967987
   5.5386844  29.7036228  69.2207565   4.0447683  29.9338169  69.2995605
  30.2246742  41.2139626   0.5872931  29.7843151  41.0969658   1.4290930
  29.6877403  41.8563766   0.1233548  58.6863785  15.5140314  19.0162907
  59.1723785  14.8679495  18.5038319  58.6377487  15.1358891  19.8942871
  35.6475410  47.9273682  83.0576248  36.0661583  48.7847519  83.1343155
  35.0592766  47.8797836  83.8112259  49.5657272  46.3150101   1.4880564
  49.4446793  46.1430283   2.4218669  49.6645355  45.4475746   1.0955979
  51.8093224  53.6287956  68.4714508  52.2973900  53.3270912  69.2376099
  52.4844246  53.8767967  67.8398132  27.4479256   1.4581993  25.8244972
  27.6817131   1.9697605  25.0499783  27.9890480   1.8229629  26.5247593
  64.4156342  31.0980854  22.3948154  63.7051964  30.8602257  22.9905758
  64.7030640  30.2654057  22.0203018  73.0196838  52.5771027  62.6183853
  73.6447601  53.2617950  62.3802452  72.2813797  52.7094574  62.0237274
  31.0719128  65.3803864  10.1270962  31.5655804  65.8327103   9.4430437
  31.7340260  65.1181488  10.7666817  72.3528366  42.7703896  16.8946648
  72.8328018  42.2711105  17.5554104  72.8474274  43.5848618  16.8038578
  46.3494835  24.8676739  85.9671326  45.8715210  25.6912785  86.0643768
  45.6670456  24.2077332  85.8446808  53.6919937  14.5477018  34.8010406
  53.9810715  13.9672813  35.5051575  54.0368347  15.4073591  35.0425034
  46.5951424  61.3293762  61.4982681  46.8910751  62.2354050  61.5864334
  46.3455429  61.2474327  60.5778236  45.2962379   1.2437539  33.3759613
  45.2759361   2.0922017  33.8186302  44.7259598   0.6846168  33.9035797
  25.7158985   8.1970367  80.6092911  25.8118477   8.8041439  81.3430862
  26.2945938   8.5468140  79.9318008  15.9334660  60.8500290  21.7186680
  15.2773361  60.7587204  22.4095993  16.7068329  61.1928406  22.1665688
  43.4762192  49.8144608  79.0276031  44.0071716  49.5079079  78.2925186
  43.6835175  50.7460823  79.1007080   5.7550716  43.8702011  14.5181866
   5.4440784  43.1132164  15.0146646   5.5100207  43.6798439  13.6126776
  28.8086300  33.3060608  79.2046509  27.9188843  33.2492485  78.8562851
  28.9817104  34.2453804  79.2675171  35.1468353  22.3154602  76.9601898
  34.6159134  23.0542698  77.2577133  34.5293617  21.5867653  76.8972626
  14.5614758  24.0806465  75.4973526  14.4047079  23.1395569  75.5748444
  14.1918211  24.3157539  74.6462860  17.5392647  22.6708469  75.7498322
  17.7911892  22.3202457  74.8955231  16.5940418  22.8065662  75.6837540
  80.3221283   1.1466728   1.5693791  80.1252899   1.2846842   0.6428590
  80.1806641   0.2100947   1.7073667  12.5572414  69.2836151  17.2772484
  12.8053770  70.1467819  17.6082993  11.7881937  69.4483337  16.7316608
  63.1277618  30.5929222  60.6365585  63.2996902  29.6632061  60.7858963
  62.2169800  30.7141895  60.9048882  83.2617416   1.2390950  19.3366909
  83.3823547   0.9416931  20.2384872  82.4436493   0.8286504  19.0565205
  64.9852676  20.9075966  78.0841980  65.9360962  20.9734898  77.9957962
  64.7797928  21.4317608  78.8583221  11.0913801  71.4251938  23.8389435
  11.7351904  71.7284851  24.4790649  11.3657799  70.5328522  23.6275997
  75.7362747   4.3489442  54.9323616  74.8167572   4.0905948  54.8693810
  75.9555511   4.6691985  54.0573807  66.6233292  57.6215401  16.2840824
  65.8730164  57.0930214  16.0121803  66.6133041  57.5776558  17.2402229
  65.1910629  60.4367561   7.1253438  64.3219604  60.5601196   7.5070248
  65.7326660  60.1361351   7.8550887  54.0729294  71.0136642  81.9309311
  54.0056038  70.0590363  81.9113388  53.3763504  71.2907333  82.5261154
  78.4508209  30.4061928  41.8980522  78.4175949  30.8619747  41.0569878
  77.5480576  30.4236908  42.2157822  32.4598083  47.8622742  80.1395187
  32.8465004  47.2025681  80.7152710  33.0713081  48.5979004  80.1735153
   5.5464740  50.1079979  27.3702526   5.9087830  49.3584976  27.8427086
   6.3126688  50.6151581  27.1019917  69.5067825  17.5963440  68.8528366
  68.8501282  17.1785088  68.2956543  69.0592346  18.3585949  69.2201309
  50.7444038  61.9735603  22.5166798  50.9889679  61.6576538  23.3865185
  50.4743156  62.8808403  22.6585560  67.1169357  59.0050888  26.5748425
  66.6328812  59.8196831  26.7103519  68.0182190  59.2191124  26.8159008
  64.0056152  41.8547897  80.8646698  64.4320145  41.7924347  80.0099640
  63.9587784  42.7944412  81.0409851  58.7634621  63.5768547  60.8535423
  59.0494804  62.7320976  61.2011223  59.5175667  63.9009514  60.3610802
  81.2867355  47.7224960  15.1882296  81.8016357  48.2862816  15.7655115
  80.9741287  47.0189438  15.7570210   8.8515930  71.2029648  61.2139893
   8.7940960  71.4450760  60.2896996   8.2168598  71.7712326  61.6503639
  81.9406052  15.5391502  11.7223320  81.3422546  15.3829670  10.9917040
  81.9366760  16.4895496  11.8361683  46.3868904  13.9462509  22.9268360
  45.9731102  14.6922531  22.4926720  46.9181633  13.5363398  22.2442284
  45.1815910  44.8937111  59.8116341  44.5097923  45.5578842  59.9658699
  44.6957588  44.1286545  59.5035973  53.2795105  14.5244646   5.8781104
  52.7900162  13.7056360   5.9565196  54.0038948  14.4306545   6.4967370
  52.5015488  56.2860107   8.3313913  51.9910851  56.8160629   8.9435196
  52.6992950  55.4844780   8.8158245  71.8186188  53.4735146  72.6672516
  71.9113159  52.5728035  72.3568420  71.8451996  53.4019547  73.6214066
  58.7846909  32.2735519  16.2324486  58.7592278  31.3169937  16.2566319
  59.6064301  32.5023308  16.6667690  60.8929596  50.7588768   1.1161690
  60.4500351  50.1660347   1.7232832  61.3912544  51.3506088   1.6798985
  31.1322517  66.6115494  44.8075142  30.1957550  66.6090927  45.0055008
  31.5207634  67.1538315  45.4939690  75.1992950  47.9850464  27.6026230
  75.6054688  48.3977966  26.8404636  75.9359360  47.7324181  28.1591930
  64.6376114   3.0759058  69.2772751  64.6481094   3.1234429  70.2332382
  64.9698563   3.9268885  68.9914856  14.1330061  37.9272461  66.7699356
  14.9706717  37.5128174  66.9768143  13.4789658  37.3671227  67.1879425
  36.3321228  55.9061584  38.1635170  36.8498306  56.5839806  37.7290382
  36.9010811  55.1364212  38.1682854  74.0118866  49.9448471  18.5073757
  74.2368469  49.6049156  19.3734417  74.4822235  50.7763176  18.4468403
  83.9043121  27.1078053  39.9332771  84.0610504  27.9377155  40.3837357
  83.4078598  27.3496819  39.1514435  74.1305237  38.7001610  78.3127441
  73.5479889  38.5308113  77.5723267  74.9807663  38.3630028  78.0305481
  76.1822586  70.6778107  75.1971588  76.6850739  70.4481430  74.4157104
  76.2009811  71.6345215  75.2214127  80.2673645  41.3986549  -0.0964363
  79.5402985  42.0203819  -0.1288990  79.9636688  40.7053452   0.4895013
  75.4578247  49.4639473  50.0995522  74.5068359  49.3688126  50.0466347
  75.6199722  49.7535324  50.9973717  61.5716286  47.3199501  33.9985733
  61.4218636  46.9940681  34.8860435  62.2834702  47.9529114  34.0927925
  72.2343750  65.8846588  36.3127594  71.4600372  66.3909531  36.5583305
  72.7138596  66.4561005  35.7129440  53.5249023  55.6272736  19.8495770
  53.9740219  55.3807144  20.6581154  52.6274147  55.3170204  19.9699478
  23.2113876  27.8365459  12.4579735  22.9415665  28.1896801  11.6101971
  22.4515266  27.3413677  12.7639790  70.1733246  23.3528404  28.6432610
  70.0389175  23.9340286  27.8946705  70.8558960  23.7813797  29.1596737
  27.9867573  59.7876396  15.7106094  27.8868313  60.6769905  15.3710508
  28.2323380  59.9076920  16.6279469  32.7561493  39.4163475  26.7708569
  32.2311249  39.9716454  26.1944618  33.2576942  38.8595390  26.1753330
  58.7720642  40.0250511  29.8297329  58.1106415  40.1979752  30.4996948
  58.4124985  39.2990723  29.3199310  48.3066483  10.5462122   6.9124737
  47.3646660  10.4018335   7.0022378  48.5271263  10.1667633   6.0618033
  14.3606415  41.5339088  85.1132736  14.0453768  40.6349335  85.0200806
  15.2443314  41.5171242  84.7457962  64.3125916  70.0673447  44.4377327
  65.0352249  70.6906281  44.3631783  63.5276718  70.5898438  44.2730560
  45.8306427  35.8631096  31.9637890  44.9693565  36.0389900  31.5849915
  45.6708984  35.1800957  32.6151009   3.8483720   7.7810078  10.3444538
   3.4039156   8.5757666  10.0494137   4.7641459   7.9137683  10.0995779
  25.1542892   4.8230271  62.0120850  25.3672848   5.3480654  61.2405930
  25.6058559   3.9914305  61.8679771  77.4627838  16.9087830   5.8153992
  76.8861618  16.1580086   5.9570661  78.1176987  16.5936127   5.1925111
   2.1032925  17.8541012  45.0301208   1.3898191  18.2950401  44.5688591
   1.8227991  16.9407463  45.0879021  10.5169220  42.9503555  61.8431549
  10.3044281  43.4318085  61.0436020   9.7742157  43.1123886  62.4248428
  26.5551720  55.9874420  40.9811134  27.3954487  56.4457016  40.9939461
  26.2749195  55.9754105  41.8962898  58.5396957  55.0939369  79.9576416
  57.8403473  55.3105011  80.5742798  58.9629822  54.3235245  80.3364868
  31.8456268  63.0405159  68.5100021  32.1830826  62.5315437  69.2470932
  32.5972748  63.5494423  68.2062683  74.2742386  50.3521576  54.2616730
  74.3253479  49.4099007  54.4222069  73.3384552  50.5505714  54.2961159
  30.8041439  16.5165672  76.6912003  31.4932823  16.0111313  77.1223068
  30.2377052  16.8074303  77.4058914  17.9413872  13.8608885  12.0029631
  17.8071098  13.6910486  12.9353561  17.0606518  13.8498964  11.6282396
  41.7484131   4.6483378   9.3008842  41.4150429   5.1369953  10.0534210
  41.1101494   4.8127241   8.6067448  69.8844376   2.0387721  27.5623474
  69.5289154   1.1777169  27.3422966  70.6029816   2.1666272  26.9430122
  10.4722824  17.6016140  89.4206543  11.1415510  17.2524624  88.8320923
   9.6800690  17.6426659  88.8849792  14.5558357  22.8188972   7.3959751
  13.9911356  22.3378754   8.0009241  15.2695513  22.2117577   7.2004662
  59.8897171   2.2305117  53.5580292  59.6567192   1.5239542  54.1602936
  60.7068863   1.9401541  53.1528664  58.8324089  48.4968071  39.6373711
  59.5195236  47.9299202  39.9877205  59.0635033  49.3726158  39.9468651
  11.1159201  21.4650993  -0.0073905  10.9954233  21.3775940   0.9381543
  11.9521513  21.0337772  -0.1832054  84.9554214  18.5740433  62.9515724
  85.2688065  19.4046288  62.5935936  85.7400360  18.1536903  63.3035812
  57.0302544  62.4047356   0.5365893  56.4266129  63.1462021   0.4909832
  57.9004822  62.8031807   0.5231398  44.1581306  26.6152840   7.2020631
  43.5813522  27.3491459   7.4142122  43.8214493  25.8872604   7.7244229
  20.6099739  21.7215290  11.6923227  21.2993374  22.3576336  11.8830585
  20.3119564  21.9482288  10.8114004  45.3017120  35.8963928  60.7045937
  45.1873093  36.2179527  59.8103104  44.5701828  35.2936020  60.8377914
  15.1576328  30.4439240  84.3190384  14.4733906  29.8041954  84.5159988
  15.5925140  30.0972958  83.5399628  75.5377731  23.8279800  47.2466850
  75.5459366  24.4493732  47.9747200  76.3692703  23.3598309  47.3220253
  62.5512886  48.3721542  49.1546593  62.1359520  48.6916924  49.9556732
  62.8511314  47.4904022  49.3756676  30.6372566  46.2980804  38.0421791
  31.3729324  46.0264130  37.4933548  29.8769817  46.2547684  37.4622307
   8.4660616  47.2975349   2.3365498   8.2738838  47.6634407   1.4731760
   9.3894606  47.5024757   2.4834061  19.4848385  32.7582664  86.5835495
  20.0665798  32.4252930  87.2668762  19.1957932  31.9763641  86.1131058
  18.9056072  61.9710579  48.6368599  19.6461811  61.4422684  48.3399353
  18.6504974  62.4795761  47.8670807  65.2657623  69.0217438  63.7035179
  66.1083984  69.2749557  64.0804520  65.3284073  68.0730667  63.5925407
  75.2872162  37.1401291  87.4253922  75.9530182  37.0614052  86.7422104
  75.7408447  37.5634079  88.1542892  31.1182861  44.5123177  74.5446091
  30.9111633  43.9955444  73.7659683  31.8807831  45.0324364  74.2910156
   4.8919735  39.0906334  66.0063324   5.5921164  39.1913261  66.6512299
   4.3598676  38.3688660  66.3412170  86.1181488  16.0133591  31.3624802
  85.5312653  15.5223265  30.7874317  86.5399780  15.3444691  31.9018154
  70.1086807  62.8772964  25.0367908  70.5308380  63.7216339  25.1952515
  70.7302170  62.2318344  25.3733940  79.6976166  36.8997955  87.5674591
  79.3399048  36.2671127  88.1903458  78.9841843  37.0564880  86.9488449
  53.3207550  38.8370209  82.0989151  52.3847771  38.7917747  82.2941895
  53.7010345  38.1000023  82.5768585  31.7290058  19.6128826  84.2658997
  32.4962120  19.0468273  84.1809998  31.8697243  20.0855751  85.0862579
  13.5843105  45.0854797  64.7946472  13.6419430  45.4372978  63.9063148
  13.9628992  44.2087059  64.7300491  53.7074165  53.6874199  45.2113533
  53.0101051  53.9684296  44.6188850  54.2203102  54.4797897  45.3704796
   2.0996537  59.4302826  11.4481487   1.2345401  59.0220261  11.4143906
   1.9831367  60.2747498  11.0128031  58.4811630  41.0365906  67.6305542
  57.8129692  41.7202759  67.6787109  59.1770134  41.4189987  67.0959549
  26.8533916   9.1982450  66.9871216  26.2603626   8.9565849  67.6985626
  26.4997845   8.7510509  66.2182159  57.6328888  12.3310652  54.4225922
  57.4061394  12.8861876  55.1686859  56.9116936  11.7045946  54.3622475
  50.4725800  30.5327320   1.8133780  50.9755516  29.7183437   1.8083059
  50.4678192  30.8055897   2.7308514   3.7742102  43.0233917   4.6894307
   3.3992312  43.8909378   4.5378108   4.6805787  43.0987320   4.3910160
  32.0194244   6.9690299   1.2280391  31.4095764   6.2970524   1.5326066
  32.6419296   7.0715265   1.9479098  21.6341324   0.6520826  27.5493431
  20.9604263   0.1907989  27.0497742  21.5078316   1.5744678  27.3268890
  19.0082626  49.5670624  43.2345886  19.2333488  49.7573204  42.3238907
  19.5610485  48.8210068  43.4670944  76.9918060  13.3654699  43.6679993
  77.8240509  12.8928165  43.6820030  76.3268356  12.6783524  43.6241493
   4.9805942  23.9817028  56.7151794   4.5856962  23.5299377  55.9693947
   5.3029900  24.8066368  56.3521690  68.1995316  19.5049572  84.1443481
  67.8946838  18.6325035  83.8950958  68.2478333  19.4778500  85.0999451
  45.9877472  61.3507042  34.0987892  45.9263954  62.0736694  34.7231216
  46.6329765  61.6439362  33.4554253   7.0204349  10.1573820  63.5551834
   7.9164762  10.4618692  63.6988144   7.1108546   9.4271507  62.9429588
  60.4589615  69.4617310  89.3008881  60.1362686  69.5168457  88.4014130
  61.0743675  68.7286606  89.2900772   3.5701635  70.0674286  74.2451096
   4.2874246  70.3701782  74.8019791   3.7524400  70.4538574  73.3885574
  80.2157745   0.8689862  87.8885803  79.7000351   0.9631419  87.0877228
  80.7658615   0.1017772  87.7304077  69.6556625  44.6251183  33.8385239
  69.3833008  45.5162430  33.6195526  68.8826141  44.0885277  33.6633110
   2.8866234  66.2730789  55.3904495   3.3972068  66.3470230  54.5841789
   3.3451238  65.6081772  55.9041748  67.8928528  25.2611294  12.0139694
  68.0121002  25.0817490  11.0813198  68.7817764  25.2907047  12.3677568
  57.5112114  45.0384331  32.3135643  57.3530083  44.0949287  32.2819366
  58.0002937  45.2262650  31.5124683  85.6042938  45.4748535  82.8209381
  86.1872864  45.1856766  83.5228806  84.7242432  45.3737297  83.1835861
  78.0988312   8.1460924  58.8818283  77.2900848   8.5743980  58.6012535
  78.1824036   7.3889322  58.3022118  58.9844551  17.3881607  77.8560028
  58.5318527  17.1713696  78.6710968  59.2617493  18.2971363  77.9704666
  16.2751389   6.3496819  65.1205368  16.6687336   6.9112463  64.4527359
  15.6505632   6.9168692  65.5726776  55.5715981  13.6621046   6.8742537
  55.8882027  13.3629694   6.0218983  56.3388290  14.0551996   7.2902589
  37.4340172  64.6675568  10.6476507  36.7544937  65.2123489  10.2505655
  37.6777763  65.1336670  11.4473715  44.9254570  58.3357239  73.9470596
  44.8140259  57.7954979  74.7293472  44.1159477  58.2101021  73.4519348
  67.1401596  50.9370270  14.5084009  66.8992157  50.0473289  14.2503061
  66.4536819  51.2031822  15.1200686  86.1645355  23.4504013  79.3740234
  85.3427277  22.9710178  79.4791870  86.6649094  22.9325180  78.7434235
  74.9738846  19.4228477  68.9337540  74.0911484  19.0964489  69.1082993
  74.8980789  20.3735962  69.0147552  24.2959213  35.3462372  64.2625351
  23.8361053  36.0774040  64.6750793  24.4623852  35.6423035  63.3676224
  16.6724396  37.1802101   8.9393415  16.1070805  37.1929436   8.1670465
  16.1942101  37.6882362   9.5946598  32.9998245  62.3066978  33.5840759
  32.8409271  62.7580795  32.7550774  33.6391144  62.8563156  34.0373535
  44.3421478  38.4598198  15.5788136  44.8059540  37.8648682  16.1680031
  43.5673180  38.7294693  16.0719280  22.4236946  43.2716827   0.5807976
  23.0652103  43.3013725   1.2905916  21.9122334  42.4811516   0.7531313
  76.5016937  42.7650375   3.9327738  75.7440796  42.2829552   3.6013296
  76.7094574  43.3910255   3.2390833  19.0571384  29.0289326   5.9566259
  18.8123493  29.3694420   5.0961823  19.2793579  29.8071041   6.4678016
  38.2234612  58.3204803  23.5393982  38.2310066  57.3692284  23.6456699
  39.1226616  58.5415268  23.2968979   6.5925393  15.4144087  18.1819038
   6.6197596  15.4692421  19.1371441   6.0844102  14.6234636  18.0017834
  37.2611389   3.2483556  88.7543182  37.1783104   3.1682398  87.8040771
  37.9711151   3.8778098  88.8806229  31.1466770  35.8291397  19.0101681
  31.3717175  35.6034317  18.1075897  31.4899769  35.1033134  19.5312748
  19.0024605  52.3868752  85.6231308  19.8935852  52.0374603  85.6294098
  18.9899902  52.9979744  84.8864975  79.0371246   9.5886440  88.8443604
  79.0715866   9.0505972  88.0534439  78.1053238   9.6432905  89.0564499
  62.9015656   5.5551047  31.7070580  62.7925453   6.0607038  30.9016285
  63.7190132   5.0738535  31.5789566   1.0077248  28.4601173   4.7430811
   1.7818136  28.7204189   4.2438202   1.3179998  27.7613945   5.3190565
   9.2801037  41.7707443  69.4313812   9.0431776  42.5848045  69.8756790
   9.3742161  42.0184975  68.5116043   8.3922119  46.7476921  20.3129959
   7.6806397  46.7301903  19.6730022   8.8041553  47.6028900  20.1898117
  37.9743538  43.2792206  32.2473259  37.1372604  43.6237984  32.5584030
  37.7532845  42.4384308  31.8467827  43.5292091  69.3141479  62.0258408
  43.5303955  68.4002304  61.7412758  44.4384956  69.4911270  62.2669029
  41.1031990  61.7892418   8.2945337  41.9679794  62.1982498   8.2613630
  41.2840157  60.8509293   8.3502455  80.7749710  10.1709013  84.5670471
  80.5750351  11.1064215  84.5995636  81.6979294  10.1144943  84.8144226
  16.1315022  36.9486885  68.6147385  16.7095547  36.1947670  68.7317200
  15.8099413  37.1428413  69.4951553  20.4943104  70.5465240  44.4556122
  19.5747643  70.4183502  44.6885071  20.8372593  71.1200714  45.1409302
   8.9300976   1.7103363  85.8416443   8.5299253   0.9878942  86.3255539
   8.5785265   1.6285907  84.9551086  17.8713207   6.1254683  21.2341900
  18.3709183   6.8918171  20.9525108  17.2524719   5.9676805  20.5211945
  82.4860153   4.8959627  13.1302385  83.0770493   4.3348541  13.6323080
  81.7034378   4.3611050  12.9970970  67.8740540  60.1243286  30.2019444
  67.2228775  60.4155312  30.8402271  68.0112686  60.8840981  29.6361217
  58.5009766  52.7149544  45.7782784  57.9247894  52.2587700  46.3915749
  57.9154778  53.2814407  45.2757607  31.9205666  19.9176292  75.6159744
  32.6781464  19.7069016  75.0701752  32.2963562  20.1799927  76.4563217
  83.5819855  55.1424561  70.6856995  83.2940750  54.2651711  70.4332886
  82.7851639  55.5783424  70.9878845  51.7957954  60.1177330  19.1519585
  51.9843674  60.3123970  20.0699902  52.1766014  59.2514725  19.0076942
  39.0666161  47.6018333  61.6253433  39.0207291  46.7115860  61.2766533
  38.2101517  47.9808807  61.4277992  60.8194923   4.5899587  12.2064400
  60.6989822   3.9556346  11.4997988  61.7515411   4.5383763  12.4182272
  27.5368919  55.4879227  28.8224602  27.2516155  54.6019325  29.0457745
  27.2646809  55.6049194  27.9122715  61.4268761  55.0029564  72.4745636
  61.5038223  55.9121399  72.1852646  60.8262291  55.0385094  73.2190018
  25.0910473  21.9447212  18.2855949  25.5179081  22.6037254  17.7381153
  25.3785820  21.1076870  17.9209976  75.0939255  62.0804749   6.9171395
  74.9621429  61.1353188   6.9916244  75.4984970  62.3320541   7.7473550
  58.2537727  35.3666611  52.2046394  58.3217354  34.5233765  52.6523895
  57.9930573  35.1431160  51.3111687  54.8572693  53.6870842  35.1258202
  54.2926750  52.9890480  34.7938347  55.4602203  53.2439423  35.7227364
   6.8531332  21.7506237  66.2773132   7.1607447  21.4221458  65.4324951
   7.3712382  21.2711468  66.9237671  46.2031631  39.5174675  27.6415310
  46.8888817  39.2132530  27.0469952  46.5561943  39.3566666  28.5165977
  54.9179382   4.9414740   5.0987434  54.7717628   4.0036144   4.9751134
  54.8362198   5.0741653   6.0431728  67.4038239  31.4718685  10.3199520
  67.5415344  30.7367287   9.7225943  66.4690704  31.6656456  10.2497807
   9.3285198   4.5587845  76.2443161   9.8063726   4.3625402  75.4384766
   9.0697031   5.4756989  76.1520462   0.3359604  38.3938065  14.6764441
   1.1193691  38.3324623  15.2230148   0.2187268  39.3325043  14.5303764
  58.2258644  63.1177139  34.9906540  58.6080322  63.1311951  34.1131592
  58.8877525  63.5290108  35.5465050  36.4452934  42.0447693  14.4872770
  37.0560684  41.4529762  14.0480032  36.9697533  42.8174171  14.6974916
  28.0592728  41.7376633  14.0578852  27.7256050  42.5185432  13.6161623
  28.5139523  41.2498970  13.3711662  18.4901962  40.4962883  19.2625351
  17.9068947  39.8940086  19.7243252  18.6710815  41.1889458  19.8979359
  25.8813438   0.1486054  71.3588486  25.7736073  -0.3746185  70.5645828
  25.2130890   0.8303626  71.2890320  82.5153046  19.4238224  35.4546242
  82.2460022  19.6523094  36.3442879  82.3002472  18.4949017  35.3704033
  61.6015854  39.2408447  55.7665863  60.6723366  39.2599792  55.5377617
  61.8004150  38.3118324  55.8833618  70.0640335  25.6647797   5.8739386
  69.2210770  26.0896263   5.7153029  70.5283890  25.7350655   5.0398750
   6.6848826  48.2553902  55.4910316   5.9764414  47.8002357  55.0358620
   7.1691575  47.5600662  55.9362679  32.0195198  53.8892899  16.5803833
  31.2314453  54.3192711  16.9124737  32.3029556  54.4395218  15.8502169
  27.3311291  29.9001904  66.9750519  27.0882607  30.8051605  66.7794037
  27.6569500  29.5546246  66.1439972  17.3640747   5.8569779   6.0684371
  16.9135323   5.0405035   5.8525395  16.7159138   6.5404525   5.8981948
   2.2480519  58.7085609  66.8000565   2.7002285  58.0130386  66.3225479
   2.4571755  58.5430069  67.7193451  81.7956314  12.6235085  31.3632221
  81.0134277  12.7961426  30.8392181  81.6397934  13.0870390  32.1860733
  28.6722374   6.2905865   7.8752685  28.2791901   7.1514859   7.7317500
  29.0260963   6.0434117   7.0209150  58.7120171   5.4560533  21.6268616
  58.0357208   4.8558679  21.3128033  59.0134125   5.9101644  20.8399849
   5.7244849  57.1042824  86.4483490   6.2197976  57.7929192  86.8918304
   5.6269631  56.4170418  87.1074600   0.9405744   8.4761858  46.3896484
   0.8598637   7.9785442  45.5759697   1.3796607   9.2868004  46.1320839
  82.7887573  34.7909546  10.5889864  82.1739426  35.0877457  11.2599220
  82.2350693  34.4018898   9.9120150  53.7346306  17.1855068  69.1961136
  53.0032158  16.5818653  69.0661850  53.4684296  17.7280865  69.9383926
  53.5611076  57.0069504   3.3588004  54.4385071  56.7585068   3.6497927
  53.4337540  57.8890228   3.7080359  78.9635620  23.2962685  85.2949753
  79.1411896  23.9042091  86.0126724  79.7257919  22.7175388  85.2771225
  36.4188347  18.1458988   6.4483495  35.7727013  17.4718990   6.2374768
  37.0260849  18.1353741   5.7085075  61.7208290  18.7760582  19.6861134
  62.0426407  17.9322777  19.3687725  60.8316574  18.8397617  19.3374767
  34.2355766   9.9349356   1.9781101  35.0631752   9.4690523   1.8586493
  34.0337143   9.8300304   2.9078827  79.3143082  25.2892342  87.0508270
  79.1634903  26.1442089  87.4539413  80.0718231  24.9350872  87.5166321
  56.0316086   7.2029009  70.3696594  55.5055084   7.9489222  70.6575928
  55.5496292   6.4361234  70.6794662   1.9396988  61.3678055  66.5504684
   1.4536978  61.7136116  65.8018341   1.5203356  60.5288124  66.7414017
  81.5943527  59.7358818  78.8167419  81.8638840  60.5253830  78.3474045
  81.0715256  59.2464485  78.1816559  26.9682159  39.5306969  88.5697098
  27.0614185  38.6096039  88.8128815  26.9419193  39.5243301  87.6128922
  49.3872337  35.4302711  73.1318436  49.4259186  35.4399681  74.0882111
  49.3761520  34.5011444  72.9019852  75.0635300  65.4679489  65.8523941
  74.6016769  65.0193024  66.5606537  75.6846161  64.8186493  65.5223999
  20.3718548  47.2331581  81.6623077  19.7474174  46.6750183  82.1257629
  20.9773769  46.6202164  81.2453156  61.7628365  15.9251442  34.5934296
  61.8272552  15.6148300  33.6902199  62.6478958  15.8263226  34.9443359
   6.4666672  25.0711269  82.0934753   6.4764810  26.0259171  82.1606598
   6.6153803  24.8948536  81.1644745   2.2317042  55.7190361   5.9423661
   1.5303973  55.2867851   6.4297667   2.1177740  55.4178543   5.0409560
  32.6695213  49.9139519  87.2961197  33.0199928  50.4766884  87.9865799
  32.5491295  50.4991302  86.5482559  13.2923241  21.1689625  81.2645493
  13.8213282  21.6365719  81.9108658  13.8702402  21.0707932  80.5078354
  59.5002670  40.9404373  72.5676956  59.4333954  41.4887657  73.3494186
  58.6040077  40.8857841  72.2360916  29.0501537  50.1090546  11.2614546
  29.8360615  50.0870705  11.8074389  29.2643509  49.5549355  10.5109186
  73.2901001  30.9368610  50.9370575  73.4805756  30.0184422  50.7461166
  72.6102753  30.9055519  51.6101723  37.7386169   3.0661514  70.5022964
  37.0467491   2.4992468  70.8431320  37.3027077   3.6062546  69.8431244
  54.0931282  56.5747337  62.3557625  54.5075951  57.3401985  61.9576263
  53.9189529  55.9871140  61.6205063  12.9922829  44.2366905  21.0858212
  13.1494455  43.4111366  21.5440750  12.0696659  44.1987953  20.8336849
   9.6843872  46.7100868  77.8413467  10.4430828  46.6806450  77.2584686
   8.9456348  46.4617882  77.2856293   8.0572042  21.2577934   4.5094323
   8.0368948  20.6528950   3.7678690   7.3045201  21.0060730   5.0445352
  31.7566776  65.1010056  26.2200584  30.9001541  65.5195541  26.3061581
  32.2179642  65.3313293  27.0265312   9.5222397  12.8257799  79.7375793
   9.2435246  13.6366177  79.3120270   9.1882496  12.8975115  80.6317444
  55.3867989  59.1866379  58.8204994  55.5352058  58.3835907  58.3211823
  55.0423546  59.8075829  58.1786118  38.8908691  36.4742928   3.0503783
  39.2185555  37.2971878   3.4132724  38.7658081  35.9092560   3.8128252
  17.5611744  48.4123192  73.2510071  16.6357613  48.3372154  73.4838181
  17.8224945  47.5215492  73.0176239  30.0865040  29.7816544  86.0366592
  29.2957840  29.9709206  85.5315170  29.8394642  29.9600582  86.9440613
  21.3767338  47.1927299  71.0903854  20.8550644  47.8495331  71.5515823
  20.8445129  46.3978157  71.1233368  46.8456917  43.7579651  46.5932198
  46.9597473  44.3845596  47.3077812  45.9585457  43.4185677  46.7115936
  81.6189880   8.4705696   8.2309322  81.0043640   9.1662188   7.9974103
  81.1066208   7.6650267   8.1615734  25.9215240  22.8134537  84.8441620
  26.3245888  22.0585957  84.4152527  26.2487888  22.7811394  85.7430954
  42.6950493  32.1080551  21.7806358  42.4085159  31.4574699  21.1396465
  41.8886185  32.5435333  22.0567932  49.1455956  41.6396370  59.4092331
  49.3918915  42.1579895  60.1753159  48.4583588  42.1525002  58.9838982
  23.0227013  19.9019337  70.4102631  22.2625065  19.6091938  70.9128952
  22.6511097  20.2891731  69.6176682   1.2485307  39.4544029  37.3589401
   1.7303230  38.7468719  36.9305611   1.4959372  40.2411079  36.8730202
  37.3557320  63.1591911  46.6673203  36.7625885  62.5273132  46.2609329
  36.9979362  64.0134277  46.4254646  18.5986118  15.0109634  62.2560349
  18.7166309  15.5354204  63.0480232  18.5126457  15.6548386  61.5529938
  85.3663864  23.8790112  40.1458130  86.1742249  24.3909531  40.1066055
  85.1249313  23.7420330  39.2297516  42.4054298  63.1174355   3.4369636
  41.4954758  62.9696388   3.6945910  42.9203873  62.6799774   4.1149631
  13.5421581  35.1568642  10.2837420  12.8564558  34.5215187  10.0778847
  13.4800520  35.2777405  11.2312460  15.3012094  40.5356941  59.0278549
  14.7883673  40.9747620  59.7064133  15.2253170  41.1065445  58.2632599
   3.8264503  20.0330734  30.7874680   3.3367023  19.4989796  30.1620712
   3.4875681  20.9195004  30.6624165  54.3299980  43.9305229  82.5817871
  55.2809563  43.8805618  82.6787872  53.9869881  43.6097107  83.4158478
  82.5429916  35.9615707  65.3778229  82.5817261  35.1911964  64.8110275
  82.0754089  36.6167641  64.8598328  29.0270538  67.2583389  47.9713516
  28.9617271  67.7750397  48.7744637  29.9447632  67.3360138  47.7105598
  71.0699463  69.0254135  85.3994293  70.2181091  68.6187592  85.2405930
  71.3852234  69.2687607  84.5290222   7.8985581   8.5359888  88.4013138
   8.7630806   8.2148819  88.1449509   7.3527637   7.7505388  88.4388428
  28.3218918  56.7184258  25.1232548  28.3382854  55.9259796  24.5866032
  29.2086296  57.0723457  25.0549297  53.5771523  23.1795368  51.9905815
  53.3995094  22.9846992  52.9107513  53.7356987  24.1233292  51.9718781
  44.7754707   7.7034073  37.7854385  44.1882629   7.0010080  38.0648270
  45.6220779   7.2736526  37.6637878  86.8647614  34.6109238  88.2844772
  86.1140442  34.7098236  87.6989136  86.5678482  33.9927254  88.9522400
  49.8283958  50.9679985  82.1415482  48.8847504  51.0951233  82.0435333
  49.9829178  51.0379028  83.0836029  76.6294632  14.6778193  51.9966164
  76.7426987  14.4437771  52.9178314  75.9717712  15.3732290  52.0052719
   5.1036558   2.6104460   4.8400583   5.6870456   2.3757033   5.5617123
   4.7267470   1.7776337   4.5561652  73.4352570  31.7830715  56.0103645
  72.9422455  31.5888901  56.8075256  72.7701721  32.0535812  55.3773384
  69.3104935  34.6190567   1.7955921  68.4114456  34.5942192   1.4679844
  69.8407364  34.8217697   1.0248902  50.5893021  64.6781540  21.4632816
  51.0845413  64.6101761  20.6469803  51.2572250  64.7862930  22.1403484
  14.1197920  35.2027168  76.4689713  14.4648151  35.0627174  77.3507767
  13.8590279  36.1236382  76.4572220  67.5954285  70.8381119  63.5417709
  67.2820663  71.5742874  64.0672073  68.5456238  70.9504929  63.5146599
  79.7183151  63.8346405  42.3187714  79.7966766  63.1478081  41.6566925
  79.3355789  64.5764160  41.8502426  20.6513081   1.7954347  34.1598625
  20.9263210   1.8569497  35.0746384  21.1055870   2.5165741  33.7241783
  11.8126526  31.5245094   0.9735718  12.6496258  31.4062328   1.4227033
  11.1867161  31.7007370   1.6759819  53.4132042   4.4299521  10.2449713
  52.7577934   3.9571173   9.7320433  53.1929245   4.2325993  11.1553335
  29.6052818   5.0045557  13.4203901  30.4601955   5.3535933  13.6724339
  29.7051373   4.0549226  13.4871607  34.5471573  11.4526300  87.8613586
  35.4652672  11.3277407  87.6211395  34.0831337  10.7486153  87.4082794
  67.3664017   6.7179117  83.0569305  66.7772369   6.1549263  83.5590973
  66.8091354   7.1072235  82.3830414  74.5711441  41.4320068  72.2032471
  74.0053940  41.1467323  72.9207230  75.2955170  40.8062973  72.2061005
  42.1935310   6.1229901  88.8848572  42.6527939   5.3176560  89.1230774
  42.6920662   6.4736528  88.1468048  54.0980568  65.8361359   4.1808653
  54.1713486  66.7410278   3.8774972  53.1562767  65.6874619   4.2655873
  69.9034119   3.9146059  20.3140278  69.2656784   4.3754559  19.7689171
  70.6344681   4.5269074  20.3969917  27.4197807  63.5371552  22.4935474
  27.9854832  62.7729683  22.6041508  26.5341930  63.2018051  22.6332150
  80.3800278   5.6382160  31.3241863  80.3364563   4.9457989  30.6647224
  80.5809097   5.1796589  32.1400337  66.7233734  52.3695869  11.9737759
  67.1605225  52.1850929  12.8050985  66.6371155  51.5139389  11.5534649
   4.2590485  47.0443611  70.1295700   4.3553915  47.4785538  70.9771652
   3.3405635  47.1775055  69.8952789  24.8598213  45.3254089  66.0226517
  25.1405659  44.9427032  65.1914139  25.6197872  45.8216629  66.3266525
  52.7624283  18.9525223   5.2252507  52.5355797  18.1755600   4.7142706
  53.5215530  18.6851807   5.7434072  31.0708942  14.3565578   6.0143099
  30.6675911  15.0446558   5.4850655  31.8191853  14.0624552   5.4948912
   5.4995036  54.2199707  26.6450787   6.1461916  53.5145874  26.6235542
   5.2066140  54.3041573  25.7376881   3.6977575  44.1936226  30.0537815
   3.9484766  44.6379433  30.8636894   3.5034473  43.2959480  30.3233337
  82.0869904  21.9893780  65.0787811  82.4616928  21.1092358  65.0444946
  81.7536240  22.1423779  64.1946411  51.7674713   3.5835898  68.7767868
  51.1405373   4.0054970  68.1892624  51.3268394   2.7833135  69.0625000
  52.1629333  40.0102692  19.7443581  52.8823929  40.4852791  20.1602631
  51.3857002  40.2732391  20.2372952  21.8676758  15.8818541  53.3409462
  22.7121334  15.8521929  52.8912315  22.0920792  15.9934559  54.2647514
  55.1306915  46.4448967  32.4735909  55.2378159  47.3193665  32.8478355
  56.0176659  46.0861282  32.4454041  72.3506546  14.9261456  45.1125755
  72.2809830  14.9089355  44.1580696  73.2923813  14.9293489  45.2839661
  45.3473625  65.4917755  73.9525528  46.2352486  65.3273773  74.2701416
  44.8158684  65.5496368  74.7465286  57.5100250  11.0775881   5.0464487
  58.2084961  11.7243481   5.1468172  57.3321953  10.7768660   5.9376130
  39.2027435  23.1691818  64.3526688  39.1748238  24.0248890  63.9246330
  40.0750885  23.1256084  64.7442703  49.2847862  31.3306141  72.1854019
  49.0940247  31.1761971  73.1106033  50.2400436  31.3729630  72.1416321
  27.2227879   2.4880996  72.7847214  26.3233376   2.3135865  72.5076523
  27.2023277   3.3872936  73.1122284  73.2078171  64.4841309  67.6439362
  73.6390457  64.8531418  68.4147186  72.6334915  63.8030167  67.9938889
  66.5029984  12.1107807  24.8581867  65.9001999  12.6141491  25.4054394
  66.9343262  12.7669544  24.3108082  21.5625591   9.3716230  66.8538589
  20.7067814   9.0179644  67.0963440  22.1829548   8.6834660  67.0942307
   1.4009956  14.3709841   6.5407677   0.9770744  14.8465443   5.8263698
   1.4046249  14.9895153   7.2712727  24.5699921  49.3441200  82.1200714
  23.7266026  49.4750557  82.5534058  25.2189846  49.5131264  82.8030624
  58.2340088   1.1007437  67.3429794  58.3501015   0.3283969  67.8963623
  57.5278473   1.5921206  67.7626419  54.5870895  18.0643101  83.9553757
  54.7297325  17.1910725  84.3205338  55.3807755  18.5501976  84.1794434
  33.0638924  15.8179722  78.2842636  33.6814728  16.5265923  78.1034775
  33.2136192  15.5985556  79.2038651  50.4099655   2.5747952  62.3144951
  50.7170029   3.3998990  61.9387779  49.7334404   2.8336232  62.9402390
  86.0681152   8.9690447  23.7065887  86.1959076   9.5194340  24.4792309
  85.1209106   8.8396749  23.6586838  23.5211887  23.5457439  13.5080652
  23.9691696  23.5321331  12.6622753  22.7852039  24.1441383  13.3796759
  75.1991806  59.3270302  21.5337563  75.2834778  59.8288231  20.7229977
  75.4217834  58.4300575  21.2845192  33.5411797  54.4533272  67.0378571
  33.9122086  54.0717049  66.2422867  33.2349472  55.3191109  66.7679062
  61.8080711  20.0616169   7.6862459  61.1097679  20.0373859   8.3404799
  62.1891518  20.9351978   7.7749252  14.3225670  48.1323166  50.9059715
  14.4128904  47.8259926  50.0036201  13.5631323  48.7146454  50.8863411
  50.2411156  12.5686913  36.4275398  50.4741745  12.5589466  35.4991989
  51.0773849  12.6637297  36.8834457  72.6544266   8.9646254  30.5339661
  73.5613632   9.2539015  30.4338799  72.6739731   8.3703461  31.2840881
  24.6763821  30.1020317  83.7950363  25.1565590  30.9051342  83.5933228
  23.7817059  30.3949738  83.9681549  67.3643951  12.3008766  74.4598923
  66.8016663  13.0498524  74.6563797  67.8941193  12.1858177  75.2488098
   5.0877547  43.5012093  54.7706528   5.8864036  43.6719589  55.2698860
   4.6956716  42.7402382  55.1989326  36.8638535  15.0848627  76.4634094
  37.7038422  15.3208609  76.0697632  36.9649696  15.3000689  77.3906021
  52.1910744  19.4603119  83.8160400  52.4271622  20.2860966  83.3934631
  53.0293541  19.0329552  83.9917831  16.2541561  56.5446205  88.9229507
  16.4445724  56.0014076  88.1581726  15.8686247  57.3421516  88.5602646
   9.4620123  52.0185661  35.4641724   8.8451796  52.7031517  35.7231865
  10.3188782  52.3579025  35.7227478  29.3717461  56.7859154  82.9119644
  28.6429634  56.2632637  82.5773849  28.9800777  57.3368759  83.5896606
   8.4343233  50.8008041  51.2286339   8.2505465  49.8652916  51.3139191
   8.7764502  50.8976402  50.3399239  84.6249619  55.8560562  66.6227112
  84.8740845  54.9914169  66.9491653  85.3460083  56.4281502  66.8854523
   1.0600053  45.7619934  10.9071798   1.3327347  44.8799973  11.1600304
   0.1601961  45.6552467  10.5986671  82.7077103  47.4980927  87.8375854
  83.2093658  47.4068832  87.0274887  83.0040817  46.7716370  88.3859100
  35.4050865  64.9634018  81.1259613  34.9759445  64.5141068  80.3978119
  35.6643944  64.2604980  81.7217102  28.0276642  47.9914551  54.9453812
  28.5194988  47.7939796  55.7424622  28.2014294  47.2491150  54.3666191
  24.7544556   8.9211082  68.9543762  25.0129147   8.6070566  69.8208694
  24.1705723   9.6586838  69.1312866  75.6363525  10.5061855  52.8106995
  74.7483978  10.7502680  53.0718346  75.7298355  10.8552761  51.9243431
  15.9829350  11.6347885  27.9516125  16.5972557  11.5888157  27.2189941
  16.4006176  11.1262341  28.6466980  65.6443024  13.4189072  21.1394253
  65.9015121  13.9145031  21.9168968  64.9241486  13.9234304  20.7611866
  64.1939545  24.7888489   9.8316250  63.3653793  25.0914707  10.2032557
  64.7671890  24.6706581  10.5890322  37.5101700  14.3916998   4.5816493
  37.4516220  15.3410625   4.4743462  38.4185562  14.1817331   4.3649101
  46.5950050  44.7419662  43.9852791  46.7807617  44.3183823  44.8233147
  45.6526985  44.9090080  44.0050087  59.7232552   5.7133493  40.9883575
  59.0241356   5.9445529  41.5999184  59.8870163   4.7845373  41.1518288
  51.5690727  54.7824478  15.5699158  52.2844200  54.3258286  16.0126438
  50.8462410  54.1549644  15.5728378  76.3603439  58.0812645  40.5768166
  75.6466751  57.4439812  40.5488548  76.6678238  58.1363754  39.6720238
  63.6561012  13.9555817   6.8956385  64.2675323  13.3999453   7.3790135
  64.2152405  14.5100393   6.3514233   5.8383312  65.0253067  30.6751423
   5.6163192  65.2555237  29.7729568   6.7828431  65.1692429  30.7335625
  65.9409866  40.2990990   1.4509192  66.5102692  39.6802368   0.9935813
  65.3121185  39.7473488   1.9160360  84.5009003  45.4724197  53.5930023
  84.3307648  44.8825645  52.8585892  85.0793610  44.9747467  54.1708794
  29.7400913   0.9483600   5.3510828  29.2016335   1.5791025   5.8290563
  30.1067696   0.3828471   6.0307703  57.7622604  22.9935665   9.8760767
  56.8499184  23.2774582   9.9332123  58.0625496  23.3216286   9.0284729
  66.1562881  43.7489357  53.3319244  66.2435760  44.6927109  53.4657211
  65.6474075  43.6674309  52.5253105   1.7883165  46.1527519  56.8312035
   2.0596321  46.8615723  56.2479401   1.0470262  46.5133743  57.3176918
  19.6043205  53.6489525  61.0107613  19.2643547  53.7153053  61.9030914
  19.4408665  54.5107002  60.6274834  33.9216118  39.3213120  64.5876083
  33.5457954  38.4419632  64.6293564  33.2583618  39.8844337  64.9866333
  86.0770340  53.8816032  13.4362783  85.4752274  54.3798866  13.9892530
  86.9322128  54.2828865  13.5907774  68.0504608  59.4328461  73.5387344
  67.1546555  59.0956612  73.5306778  68.5331116  58.8443604  72.9582443
  56.3820381   0.8221512  24.2566414  55.5356255   0.7116386  24.6897697
  56.7819443  -0.0469761  24.2870617  78.6774673  55.3388100  74.3037872
  78.4364548  55.8585052  73.5369339  79.0632401  54.5413971  73.9411011
  62.4897957  58.5824127  62.4530907  61.7781410  58.8355598  61.8651314
  62.2008705  58.8733978  63.3180084  25.7803726   7.8198881  16.5054874
  26.0583668   8.6848345  16.2041264  26.5689640   7.2806230  16.4459248
  39.7817764  67.4835892  68.3421173  39.3710518  67.9818039  69.0487442
  40.6993637  67.7555618  68.3592606  34.3946037  14.4378958  14.8913774
  33.7412491  14.5222406  15.5858145  33.8811226  14.3121920  14.0934010
  66.4788513  25.0513382  14.6796341  66.8417053  25.7953682  15.1602440
  67.1720505  24.7991886  14.0696077  73.4247818   3.5008473  14.9185734
  72.7191010   4.0759711  14.6228094  73.0047226   2.6493950  15.0402813
  85.2808685  41.1586647  48.8655319  85.0206528  41.9684753  48.4265213
  84.4633560  40.8002090  49.2111015  66.7098846  -0.0317507  58.1592827
  67.1274796  -0.4943421  58.8858185  66.9759293   0.8808175  58.2718544
  21.5405617  65.6972046  78.9325256  22.3841896  65.5429535  79.3576508
  21.5101700  66.6443024  78.7971878  18.7982082  56.6573029   1.2475557
  17.8634911  56.7888374   1.0887026  18.9286175  55.7148056   1.1430285
  21.7252979  62.7647095  37.0794754  22.0857258  61.9767723  37.4862633
  22.3035297  63.4700890  37.3698540  45.4399910  19.6185551  71.7331543
  45.2731667  19.5564594  70.7926559  44.9521713  20.3933773  72.0122910
  11.1821671  33.5246887  76.7866440  11.2393990  34.4292336  76.4788132
  12.0186710  33.1328964  76.5356598  30.2977600  56.4380684  47.1093407
  30.1100464  57.2182388  47.6311874  30.5882187  55.7869110  47.7479820
  20.0511799  46.1064529   8.3476744  20.8923988  45.7559853   8.0548334
  20.1574821  46.2273445   9.2912397  37.3434219  66.8067169  77.7604752
  37.1556168  65.8720932  77.6741867  36.5220184  67.1884995  78.0699387
   2.4030671  39.4348679  69.1154480   2.4640269  40.2389755  68.5997696
   1.8514566  38.8549042  68.5904770  76.2766647  17.2669315  85.5782242
  75.5832138  17.3623886  84.9253464  76.7202759  18.1151199  85.5822144
  63.0196495  22.3287010  61.6773186  62.2276497  21.8052673  61.5549088
  62.9702072  22.6292953  62.5847511  30.8430424  48.0990791  88.2137299
  30.5539074  48.4364128  89.0615768  31.4621830  48.7550735  87.8934708
  57.0633316  63.4308472  28.0183430  57.8536911  63.3120537  27.4916077
  57.2046967  64.2578049  28.4792023  50.6472893  50.1000977  47.1566238
  50.0844765  50.5901680  46.5572014  51.4463005  50.6237144  47.2169685
  22.3471928   2.0852661  63.1034393  22.6944561   2.4986835  62.3130455
  21.3973522   2.1697025  63.0203476  42.4801331  37.5910187  79.4201813
  43.2307968  37.6219101  80.0132980  42.8616905  37.4166222  78.5598145
  72.4997559  34.6222153  80.8120651  72.1970673  34.3817291  79.9364090
  71.7031937  34.8710289  81.2808990  59.3541374  14.0663462  64.8856888
  58.6306076  14.4395571  64.3822479  59.8873405  13.6088305  64.2356110
  86.2859650  59.9201469  27.7842064  87.2378845  59.8962631  27.8817215
  86.1384888  59.8073730  26.8451824  12.5594711   0.8081866  34.7778130
  11.8034019   0.4239690  34.3339996  13.2989206   0.6157697  34.2012520
  65.2331238  29.7718315  30.3161049  65.3812714  29.7474041  29.3707542
  64.5314865  30.4125195  30.4321079  83.4085388  62.0882378  50.7875061
  82.9137115  62.8791847  50.5735550  83.5126343  61.6369171  49.9498291
  28.6629200  68.9554367  68.2499771  29.3484230  68.3053131  68.0961761
  28.8224144  69.2653580  69.1414642  58.4683495  35.8950691  73.5715714
  58.5260048  36.8489609  73.5168152  57.5896950  35.7273903  73.9122849
  84.6890793  15.2235937  87.6612549  85.5312195  15.1348295  87.2149963
  84.0819168  14.7062845  87.1321259  69.4179001  19.2121849  27.1855068
  68.9631042  19.6195908  27.9226685  70.3469391  19.3042965  27.3967762
  78.8652039  44.9112091   6.8556399  79.2165451  44.5249367   6.0534019
  77.9158859  44.8278122   6.7658119  65.8657303   0.3959894  25.9074097
  65.8066940   0.4728087  24.9551239  65.2144775   1.0144876  26.2384224
  68.8242111  40.3913536  67.4039993  69.0179596  41.3147659  67.2427368
  69.1608658  39.9375229  66.6313858  69.0304108  43.8102570   5.2520890
  68.5237808  44.2953949   4.6007805  69.8739853  43.6504936   4.8289051
  56.8689499  68.6447144  51.6549034  57.6039467  69.2548218  51.5934677
  56.9342918  68.1105194  50.8633232  79.6977158  17.4384689  33.7186775
  80.4397202  17.1372166  34.2429962  80.0902481  17.9935665  33.0448647
  83.7701645  47.6669922  66.5682831  83.5162888  46.8784065  67.0477753
  83.4811478  48.3895988  67.1255417  12.5097694   0.4629445  60.7679062
  13.2394304  -0.1050459  60.5204926  11.8344965  -0.1380160  61.0826836
  41.7613411  66.0436325  53.8221359  41.5521317  65.8295364  52.9129448
  41.8751297  65.1940536  54.2481728  84.3635330  22.8350430  11.2252769
  84.9288330  23.5304832  11.5614662  83.4774170  23.1143894  11.4554882
   5.8896747  33.3613853  20.8522587   5.4002295  33.7210884  21.5920486
   5.4748578  32.5163612  20.6787872   6.3723798  17.3947029  34.2587280
   6.6743135  16.7537479  34.9023476   6.9714832  17.2920914  33.5192833
   1.2664460  24.1503334  81.6073532   0.7631531  23.7405491  82.3109207
   1.3196121  23.4781094  80.9280014  76.8056717  27.2036095  88.6921921
  76.8832932  27.7005444  87.8777847  77.4806824  27.5714951  89.2625046
  13.7238846  64.6331635  75.6168365  13.9845448  64.3046188  76.4772720
  13.3983974  65.5171814  75.7865448  52.1576424  28.9850979  57.2466583
  51.3418732  28.4986362  57.1278915  52.6347198  28.4931831  57.9149742
  84.5116730  37.3842850  87.1171646  85.2021179  37.8722115  87.5659943
  83.7092133  37.8664627  87.3166428  54.6560516  26.6795158  15.7516470
  54.3152809  26.2158489  14.9867163  55.2073097  26.0354977  16.1961555
   3.8889582  57.3511505  30.3570499   3.0545316  57.5406227  29.9280224
   4.2541728  56.6203003  29.8583412  70.3800659  66.1702805  51.8413086
  71.1560516  66.6442947  51.5423355  70.6254196  65.8268509  52.7004318
   4.7528658   2.2958903  28.5451298   4.5758286   2.7327869  29.3782043
   4.0186715   2.5444870  27.9835339  85.1241608  52.2815742  58.3212128
  85.9944305  51.9711800  58.0711861  84.8934250  52.9182167  57.6446915
  11.4800892  64.8328171  63.2078476  11.7666540  63.9235497  63.2935410
  11.9841986  65.1742172  62.4692307  62.4772682   3.2837138  33.2004051
  62.4994965   3.4480305  34.1431351  62.5176620   4.1542768  32.8045273
  17.3083019  25.6982441  11.5341234  16.8946953  25.8156796  12.3893261
  16.6937866  25.1521492  11.0438337  21.2749805   3.8242226   9.6658545
  21.1238747   4.6372814  10.1478653  21.4099884   4.1040740   8.7604885
  81.1462860  71.3357697  29.3480034  81.2326508  70.5576553  28.7972641
  80.3557053  71.7697067  29.0272121   4.6139960  59.8367767  64.6544800
   5.1006255  59.2517929  65.2351837   4.5849543  60.6704788  65.1238632
  82.4540787  55.5811806  46.0977631  81.7279968  56.0818825  45.7258301
  82.6223297  55.9958382  46.9439201  13.5467157  38.1163445  27.5502415
  12.9121275  37.4341431  27.7696247  13.4050922  38.2845573  26.6186409
   8.6669960  51.8050537  43.8176956   8.2948093  52.6746101  43.9646072
   8.1919479  51.2357903  44.4230843  48.9312592  13.7808208  60.1558762
  48.2499733  13.1397877  59.9529991  48.5196686  14.6287336  59.9889297
  46.9098587  67.2276611  41.0508652  46.2265701  66.6141434  40.7807732
  47.3828697  67.4298935  40.2436523  47.1052933  62.6562920  31.4630966
  46.5906105  62.1084404  30.8704834  47.7063293  63.1310883  30.8890266
  79.1250381  47.8388062  39.6901169  78.7418900  46.9927635  39.9217339
  78.4895706  48.2342033  39.0933914  36.7761879  16.5999680   1.3040305
  35.8583832  16.3511906   1.4134638  36.8041611  17.5253201   1.5472802
   8.6728191  28.2971020   8.5606060   7.8648992  28.7025986   8.8753586
   8.8898926  27.6461792   9.2279978  48.8576965  41.9012794  46.3559494
  48.8734169  41.2668190  45.6394005  48.0492439  42.3955460  46.2205200
  22.8080158  29.2104702  16.9090614  22.6173897  29.7029839  16.1107349
  22.8014526  28.2941227  16.6324806  38.8170242  41.0258102  13.5458317
  39.5007095  40.9884605  14.2147188  39.2501106  41.4062080  12.7816563
  21.8580322  58.6678123  35.2211418  22.3576946  58.1624069  35.8623352
  22.4985046  59.2657738  34.8358192  33.8758965  50.9683304  82.0824814
  34.0213280  50.2642097  81.4505844  34.7524910  51.2990723  82.2784958
  51.6430550  60.2555847   4.7621408  51.5753632  59.3417053   5.0386782
  50.7462387  60.5869370   4.8086014  30.8809624  26.4643955  78.9130249
  30.7123108  26.9311390  79.7315216  30.1372776  25.8691235  78.8191376
  73.2309952  28.2397099  30.6295567  73.7190704  29.0391521  30.4323063
  72.4881439  28.2575817  30.0261650  20.0479965  40.2995911  60.6659584
  20.6387634  40.3700829  59.9161186  19.4343681  39.6062660  60.4230728
  15.6350298  66.2283173  82.0403748  15.9615650  66.7895737  82.7436523
  14.7351217  66.5217972  81.8980026  34.0854454  47.7924805  69.2626419
  35.0023804  47.8220940  69.5357361  33.7920265  46.9138031  69.5036087
  80.3204498  38.9084625  32.8738365  80.6828079  38.2879982  32.2414169
  81.0238190  39.0408897  33.5094261  44.6171303  35.6696434  28.6174450
  44.4240952  35.7271233  29.5532150  44.2660675  36.4808884  28.2501984
  38.0256424  48.3364220   9.0371809  37.5956650  49.1828041   8.9147663
  38.7526627  48.5209007   9.6318617  86.6093216  40.9122925  22.3484669
  86.1826859  41.4486885  21.6802692  85.9491577  40.8145981  23.0346622
  43.0740204  69.0922089  41.2414665  43.1927109  69.1831284  40.2960167
  42.2131271  69.4740524  41.4126015   1.5520314  10.4063263  43.3103256
   0.6458992  10.1254835  43.4379349   1.7062520  10.2986202  42.3717918
   2.9291558  17.6752357  64.4877090   3.1250770  18.0731010  63.6394463
   2.7175498  18.4155769  65.0563507  40.5191765  22.1924171  67.2004471
  40.0319977  22.9902859  67.4060974  39.8540421  21.5043926  67.1792984
  84.6221237  13.4612207  43.9782753  84.8332443  12.5819721  43.6642952
  84.8426132  13.4423571  44.9095421  44.0942688  32.3418655  66.7188797
  43.6934166  32.5361557  65.8716431  43.6495628  32.9253693  67.3336945
   0.7580799  54.9114037  55.5741577   1.0168519  55.7395515  55.9784355
   0.6029149  55.1314583  54.6556091  82.5398941  11.4892769  10.8933544
  81.7781906  12.0264921  10.6755352  82.2144241  10.5895548  10.8650036
  80.1313629  15.8207436  86.9941483  79.6093140  15.6348362  86.2136765
  80.3242111  16.7565098  86.9360046  29.1568260  69.1709671   8.5113964
  28.9814949  68.2421646   8.6624889  28.4058018  69.4768448   8.0028372
  10.3556843   4.0861015  42.3532333  10.8925734   3.3974090  41.9612083
  10.4221678   3.9341924  43.2959633  47.5939217  70.6757965  50.3284645
  47.4935608  70.2732468  49.4658432  48.2975464  71.3146286  50.2142601
  10.0100279  15.8244390  82.2779007  10.3586416  15.9550781  83.1597366
  10.6986990  16.1488304  81.6976089  28.4897346  46.8564873  87.4205780
  29.2270966  47.4175797  87.6607971  28.5484161  46.1135826  88.0213089
  48.2618294  13.6092987  83.6437073  48.6244583  14.4192638  83.2849808
  47.4717865  13.4510899  83.1269608  62.9438210  31.2143631  80.6271362
  62.4856949  31.7733078  79.9994965  63.1090164  31.7835827  81.3787537
  61.4504547  56.9052162  34.6715584  60.9703674  56.6789055  33.8749809
  61.2141266  56.2197990  35.2965240  19.1902294  68.0139694  30.7855453
  19.8368454  68.2271347  30.1127300  18.7171669  67.2602768  30.4328594
  52.9484787  61.8700066  15.2833967  52.1735077  62.4273682  15.2127161
  52.7389412  61.1002464  14.7544365  86.3868103  17.9760666  19.6464500
  87.0842361  18.0147457  18.9919834  85.6307755  17.6320438  19.1707497
  53.7491379   1.2710820  15.7606573  53.0428925   1.1102405  15.1348972
  53.7387466   2.2187250  15.8951807  11.8257980  56.6264534  37.3405838
  12.6546059  56.2118416  37.1009865  11.8208036  56.6163139  38.2977180
  78.1240387  65.5963135  54.2344208  78.0533600  64.6843948  53.9522095
  78.4231720  66.0655594  53.4556007  57.5220337  59.6997070   0.8613183
  57.1759605  59.2553406   0.0873640  57.4252129  60.6316948   0.6657314
  70.1138535  42.5415955  58.6101990  69.5002441  41.9747543  58.1428642
  70.4604874  43.1263885  57.9363327  25.4781342   9.5442934   3.5614371
  24.7883606   9.6329327   2.9037218  25.3840103   8.6495056   3.8881299
  74.4152985   2.6238875  79.2238998  74.9813995   2.0617239  79.7528000
  74.2994385   2.1436751  78.4040222   1.1491010  56.8611412  57.3376122
   0.6699043  57.6877594  57.2800903   2.0638893  57.1215897  57.4451408
  14.9727097  50.1228600  83.2882156  14.0880032  49.9724846  82.9551773
  15.4627562  49.3432732  83.0268173   9.4918833  53.8197517  51.3813324
   8.5720263  53.6606598  51.5929565   9.9445782  53.0272903  51.6699524
   8.3032637  63.9447136   7.8117437   8.9561319  63.6793213   8.4594784
   7.5190806  63.4476242   8.0445280  61.7336044  15.8729601  20.4807339
  60.8745804  15.4792051  20.6332626  61.9533806  16.2970581  21.3102341
  53.8458900  23.4942112  85.5386200  54.3873405  24.1259766  86.0118332
  53.5070000  22.9122524  86.2188492  17.3903770   2.4828069  70.7705841
  16.5721283   2.9328353  70.9807663  17.8606052   2.4394860  71.6031952
   2.5666215  38.5230942  16.2373714   2.9884973  37.6823769  16.4147053
   2.6891391  39.0269814  17.0419331  12.5907145  70.0130157  74.9430695
  13.5218639  70.1563110  74.7737808  12.2139168  70.8925400  74.9692917
  40.3208389  41.8648224  31.8667450  40.1692276  41.1488991  32.4837532
  39.4957161  42.3498726  31.8552418  72.0143967  67.3280258  74.9553452
  71.1786423  67.5948639  74.5725403  72.6455002  67.9650192  74.6204224
   1.0511364  44.2820549  54.1692619   1.3995005  44.8993034  54.8125992
   1.2148403  44.6996078  53.3236389  82.0835190  59.9836540  71.4832840
  82.3935547  59.8150978  70.5935135  82.2530670  60.9152184  71.6235504
  63.0981827  29.4248066  16.9230804  62.5254669  29.2172775  17.6614285
  63.3312683  28.5729599  16.5539455  42.1488571  28.6389732  87.1221619
  42.0370407  28.9641094  86.2288437  41.2714806  28.6780376  87.5028381
  41.0546303  66.5403214  25.8810024  41.8958817  66.3076096  25.4880962
  40.4220619  66.4397278  25.1696892  59.5431519   7.6658731  20.5743065
  58.6372986   7.9424806  20.7126827  59.5413742   7.2663684  19.7044659
  33.5527534  69.2653351  -0.3041336  33.5494003  68.9325790   0.5933598
  32.9496307  70.0084152  -0.2863299  79.1200180  69.8028717  15.8942518
  78.6850052  69.0013351  16.1850071  78.9701004  69.8274384  14.9491835
  52.5065727  49.5026588  38.4782028  52.4141884  49.6866341  37.5434036
  52.9017830  50.2956352  38.8404617  11.5803766  42.4097481  84.5674973
  12.4026966  42.1982918  85.0094376  11.7686281  43.2135544  84.0830536
  56.7842064  58.8219376  20.0782127  56.5744171  58.1343651  20.7102451
  57.3832512  59.4032326  20.5466938  73.7492981  35.5956383  50.2687035
  74.0959396  34.9503136  50.8848419  74.4890518  36.1755142  50.0877686
   9.8754807  56.7387009  16.4598007   9.5883455  57.6211014  16.2249508
   9.1794806  56.4027100  17.0245342  68.2441025   4.0663681  26.0618629
  68.0592728   3.4253294  25.3754673  68.6418533   3.5548980  26.7664375
  60.8939133  64.3535004  11.7415228  60.5534554  65.2480774  11.7335072
  61.2572517  64.2276535  10.8649511  33.0444260  57.1103363  66.2348175
  33.0811386  57.5118713  67.1029434  33.4858246  57.7374611  65.6620026
   0.9998304  16.5915661  39.3917160   1.6213537  16.1546764  38.8094215
   1.0012523  17.5039864  39.1023750  78.2826080  34.7050705  15.1228781
  78.2784348  33.7489090  15.0784712  78.5872650  34.9023781  16.0085926
  41.2449379  10.5542316  80.2533722  41.4804344  11.1957741  80.9235916
  40.3430939  10.7730188  80.0187607  81.3411331  23.5712280   3.6491556
  82.1219101  23.1219711   3.3254528  81.1209564  24.1964493   2.9586096
  23.1544971  56.5458031  55.7752876  23.4586487  57.1146469  55.0680847
  22.9262238  55.7242050  55.3404350  67.2692566  38.9732323  40.9133301
  66.5214310  38.8435020  40.3300972  67.4312057  39.9163170  40.8889923
  73.4515076  51.0482864  72.6910324  74.2812119  50.7719727  72.3018494
  73.7014923  51.6833153  73.3622055  43.7915535  56.6068459  36.6276512
  43.2065735  57.2153244  37.0790710  43.9408073  57.0085526  35.7717361
  79.7373123  54.4820404  47.2935829  78.8519440  54.1947289  47.0704079
  80.3004913  54.0357094  46.6612434  12.7581263  12.1382475  72.5067139
  12.8208818  12.7394037  73.2489395  13.0940866  12.6393461  71.7635727
  30.9440880  61.8901558  66.2408829  31.5007725  62.4595642  65.7097473
  31.1443996  62.1345139  67.1444321  51.5471802  13.1676102  54.1126595
  51.7542305  12.5655422  53.3979034  51.6210670  14.0381279  53.7215462
  80.6287003  22.5201073  75.0646210  80.7564316  23.0915489  74.3074112
  80.9973526  23.0102882  75.7994995  28.7214565   2.5909126  60.0832100
  29.5537415   2.2925851  59.7164230  28.6242390   3.4863899  59.7593269
  48.5280151  34.4866905  20.8537521  48.3801537  35.3540421  20.4768314
  49.4524307  34.4878922  21.1021233  57.0653114   0.8761211  40.3841705
  57.5198936   0.8933559  41.2263680  57.6087646   0.3158751  39.8300858
  48.9179840  63.0448875  19.6488323  49.1811028  63.5664673  20.4070892
  49.2662354  62.1711884  19.8266220  37.5216255  44.0027580  54.1523819
  38.4654694  43.8434372  54.1551323  37.3768806  44.5711899  53.3959656
  57.9373055  66.3018188   5.0563412  58.6091232  66.6161270   4.4512749
  57.2809525  65.8914261   4.4933023  85.0821609   1.8185291  37.3855171
  85.6176300   1.3279679  38.0091019  85.7162476   2.2739909  36.8316879
  74.4314651   1.8407936  39.7315598  74.0564346   2.3986259  39.0500870
  75.3060455   2.2000651  39.8807602   8.2673302  31.6406288   0.6598827
   8.2383375  32.5948982   0.7288914   7.4926486  31.3423786   1.1364833
  82.4847031  24.5499592  48.8937225  81.8806915  25.2011051  48.5367661
  82.3794403  23.7879486  48.3240814  75.0081635  57.1446800  44.4547234
  74.5892792  57.9931030  44.5994606  74.2895126  56.5611992  44.2111588
  60.2619820  48.9274445  29.5784435  60.1334648  49.8235817  29.2675476
  60.1618500  48.9868698  30.5285358  49.3276978  50.5034370  16.1253204
  49.0117569  50.7881546  16.9828472  48.8241653  49.7118759  15.9352674
  73.3983231  22.4887428   1.8690610  73.1763763  23.1101170   1.1756177
  74.3187561  22.6655197   2.0634758   1.3411360  29.3393593  87.7239380
   1.3224975  29.0488415  86.8120804   2.2401955  29.6374550  87.8620071
   8.0737438  22.7670250  74.7114334   8.7574596  22.9234333  74.0600510
   8.5473976  22.4761524  75.4907150  32.0204048   3.4240005   4.0015063
  31.5511227   3.2532604   4.8181162  32.9187698   3.6085074   4.2756042
  12.0486832   1.1554481  75.4235458  11.9840879   1.0026215  76.3662567
  12.5971918   1.9359068  75.3444595  23.1128502  34.1134529  49.0446815
  22.7013836  34.2159462  49.9028320  22.5700378  33.4661636  48.5945663
  49.9110794  18.3834782  25.4244213  50.4123268  18.5720406  26.2177868
  50.5704498  18.1261597  24.7800198   5.5992241  27.4737148  57.9816513
   5.5369329  27.9273300  57.1410637   6.1456919  26.7088490  57.8011398
  55.0243225  23.1765766  62.9675179  55.2837219  23.9068050  62.4056396
  55.8514061  22.8023129  63.2709808  35.1923256  22.4093952  72.5062943
  35.9955254  22.5524769  73.0069275  35.3757706  22.7870655  71.6460953
  34.1618156  67.3998413  18.5675755  34.7948380  68.0159683  18.1989174
  34.3085289  66.5872803  18.0833740  69.6093369  26.2986012   2.5288370
  68.9990311  26.9363689   2.8989859  69.0591965  25.7175961   2.0034666
  62.7905197  41.6217384  67.2356644  62.7522240  40.8182335  66.7168808
  63.0700569  41.3328590  68.1043701  29.1118870  48.4777260   8.8724909
  28.4731579  48.2195053   8.2079763  29.8374691  48.8535995   8.3740120
  77.6067886   7.6269827   4.2465572  77.9473953   6.8584251   3.7888048
  76.7736053   7.3355155   4.6168046  31.8394070  62.0806503  29.5889835
  30.9994335  62.5269852  29.4819355  31.8195438  61.3746681  28.9428959
  47.7330894  46.8046494  84.9179535  47.5799751  47.3186493  85.7107925
  47.2008591  46.0178795  85.0360718  63.0723724   9.1252298  48.5194168
  63.5969467   8.9270515  49.2951584  62.6254311   9.9437103  48.7352104
  58.2055817  14.0556250  80.3929214  58.7602425  14.7306843  80.7839203
  58.7974586  13.3195057  80.2378693  71.5988235  41.1483536  31.0857277
  71.0226212  41.9126968  31.0847301  71.5859909  40.8375511  30.1804810
  33.1974564  69.4777222  77.1191101  32.5919189  68.7512665  76.9713669
  32.9630547  70.1241302  76.4531937  86.5099258  20.3395023  61.5924644
  86.7644424  19.5136032  61.1809502  86.9214630  21.0134583  61.0514908
  22.1989307  64.5949707  30.3766079  21.3490334  64.5939102  30.8169556
  22.7866344  65.0342255  30.9913349  39.7632256   7.5306754   1.2773517
  40.5860748   7.1272650   1.5537734  39.9003868   8.4688311   1.4088119
  22.5702591  69.7330933  55.5265160  22.5703106  69.3314972  56.3953972
  23.3068085  70.3441391  55.5450401  34.4294052   0.9870477  20.2010555
  34.4619675   1.8184451  19.7278233  33.6310310   0.5632564  19.8860435
  45.9963188   7.6583753   0.5340381  45.9363365   7.8526611   1.4693919
  45.7541771   6.7348695   0.4652287  49.6204185  19.6782970  86.6564484
  50.3299713  19.0372314  86.6139908  49.1938171  19.6203671  85.8015289
  32.7521820  71.6893387  78.4796219  32.8718300  70.7602997  78.2826385
  31.8162251  71.7773666  78.6598129  79.6506348  54.2366180  25.5957394
  79.6834030  55.1897736  25.5142059  79.3515625  54.0830307  26.4919548
  69.9672470  67.8925171  56.9548035  70.1614075  68.0060883  56.0244102
  69.0787735  67.5367889  56.9723778  44.7050514  47.1143799  37.6575356
  44.1295853  46.7020912  37.0132599  44.3083267  47.9701958  37.8200722
  57.0566826  41.4527817  17.8156872  56.6311951  40.8249435  18.3996506
  56.4132729  41.6115685  17.1250076  82.7677383   7.5926118  82.1276474
  83.3941422   8.2476416  81.8197632  83.0215225   7.4266686  83.0355530
  59.7418518  17.3682823  52.9250221  58.9680328  16.8315544  52.7536621
  59.4167137  18.0941563  53.4575844  23.0864601  20.9937744  28.5167522
  22.6597691  20.4833775  27.8285198  23.0058784  20.4519024  29.3016815
  21.1548691  38.6532936  88.8878937  21.6062565  38.9294891  88.0902710
  21.2254868  39.4054184  89.4757309   3.2974875  65.3739853  14.9530087
   2.7535815  65.9646759  14.4319696   3.2874575  64.5488129  14.4680080
   4.5552826  26.5544758  11.8691349   3.7373443  26.1238060  12.1175966
   4.2832036  27.2774239  11.3038483   3.2944534  35.5350723  88.0098877
   3.6237147  36.0311623  88.7593613   4.0654211  35.3896866  87.4615250
   7.3600588  33.9903030  55.6784821   6.4914641  34.3510933  55.5007095
   7.9080334  34.3241043  54.9681816  65.3802185  43.7784119  43.9716148
  65.4020309  42.9213867  44.3973656  64.5127106  43.8241539  43.5696526
  53.8909798  20.0039310  54.7282867  53.1339188  19.4472351  54.5461349
  54.5130234  19.7981548  54.0304642  26.8620529  52.8723755  12.6048555
  26.2024651  52.8814468  13.2984638  26.7698975  52.0108833  12.1979523
  36.2731400  66.2300720  39.6032715  37.0796890  65.7414551  39.7674637
  35.6477966  65.5680084  39.3085670  27.9158707  71.2720108  39.8548508
  27.3355427  71.8557892  39.3663292  27.4130955  71.0304260  40.6327248
  41.7020340  64.4831467  72.1864624  41.4815826  65.4089508  72.2890930
  40.8553772  64.0386810  72.1434479  66.7537155  19.6543007  15.7706757
  67.1646271  20.2132874  15.1111956  67.4873428  19.2314129  16.2169819
  74.8163528   0.5655607  85.4917755  75.1184464   0.9410964  86.3187790
  75.5552750   0.0414987  85.1826096  55.5022240  59.7434158  64.1410828
  55.0763054  59.8188019  63.2871819  54.9018822  59.2099876  64.6619186
  39.7949333   8.3300419  77.8013916  39.6618958   7.4249182  78.0829697
  39.3105469   8.8532124  78.4400635  17.2705975  25.1697102  17.5640221
  17.1325340  25.4767857  16.6679897  16.9233494  25.8719368  18.1140480
  80.7661743  41.0830383  80.7184219  80.3209457  40.7991714  81.5168076
  80.9461365  42.0121460  80.8619766  52.4671478  46.2110023   8.9270592
  53.3130951  46.4283905   8.5354586  51.8224869  46.5088806   8.2852545
  67.2789307  22.3096676  31.5761395  67.2225189  21.5974903  32.2132034
  66.4026566  22.6947937  31.5692005  75.1670837   9.0925770  86.1926956
  75.0403519   9.9663429  86.5624313  75.8086777   8.6789026  86.7701569
  80.0895004  31.2153912  27.7267704  79.4924622  31.4865036  27.0294361
  79.5265121  31.0981750  28.4919758  21.0897083   2.7897987  66.8806915
  21.8672543   2.9225478  66.3384476  21.3418369   3.1154730  67.7447510
   6.0990090   8.4302845  77.8885803   6.6983786   9.1645594  78.0221024
   5.3841405   8.5895147  78.5048904  44.2324715  51.9515686  64.7532806
  43.4162941  52.4484711  64.8096390  43.9843483  51.1309204  64.3276062
  49.5743942   4.8888435  24.9056549  48.6289482   4.9924912  24.7978477
  49.8504829   5.6787643  25.3704472  79.0206223  55.6891823  11.6831360
  79.5372009  56.3745232  11.2592440  79.5436096  55.4295959  12.4416399
  12.9967813  43.8287964  60.1581230  12.6733570  43.5698166  61.0210037
  13.7761803  44.3531799  60.3419533  78.5173645  69.7530899  26.5842648
  78.2242279  69.0112381  26.0551510  77.8174133  70.4002762  26.4979420
  80.6431580  62.0012856  13.2604122  80.6731033  61.9400482  14.2151823
  80.4271774  61.1150742  12.9702253  24.9580956   5.6146202  87.1527786
  24.2767658   5.6619143  87.8234406  24.4776402   5.5547810  86.3270569
  52.1925697  15.6101246  11.3063917  52.4780197  15.1459532  10.5194378
  51.6451073  14.9779139  11.7720375  54.3103943  59.1909904  45.5781326
  53.5209694  58.7067184  45.8200417  54.2815323  59.9810295  46.1177979
  41.2464752  57.4993973  26.9301186  42.0454521  57.1486320  27.3236027
  41.4581070  57.5931473  26.0013256  55.3764954  52.3520546  68.2001877
  56.0044060  52.5414429  68.8973923  55.2405281  53.1937790  67.7651672
  82.3200912  45.0294991  84.0968552  81.4854050  44.5725174  83.9934540
  82.7588654  44.5680542  84.8115387  26.6162281  34.1205215  77.9861603
  26.1284027  34.8369789  78.3922958  26.7777481  34.4180412  77.0908279
  66.6966476  18.5575199  52.3137856  65.9748764  18.4214096  52.9275818
  67.4447708  18.1233635  52.7237282   8.6143036  64.5552368  62.6458702
   8.5496845  63.6197701  62.4536362   9.5539169  64.7186432  62.7274704
  41.7613220  52.6885643  50.1426659  41.1986923  53.3927498  50.4648476
  41.5266151  51.9305496  50.6779785  60.2873154  54.7024918  44.7578239
  59.5742416  55.2159500  44.3781929  59.8545380  53.9422798  45.1464310
  12.5797720  40.6396408  21.7510624  12.0956736  39.9154053  22.1477528
  12.8819790  41.1613922  22.4944878  51.2471962  58.0632744  21.4159927
  50.7167206  57.5012589  21.9807663  52.0630531  58.1882591  21.9007473
  76.0715942  56.7815132  69.7409058  76.4954605  57.3878365  69.1334991
  75.3492126  56.4049263  69.2383347   5.6441264  64.7455063  36.2552452
   5.2162900  65.3073654  35.6091003   6.3143868  65.3027496  36.6508064
  31.7775307  67.3574829   6.6158776  32.2523651  67.6201782   5.8273635
  30.8602600  67.3267670   6.3440256  85.2305145  39.1550903  36.6539154
  86.0898743  38.8163261  36.4029808  85.2810745  40.0937653  36.4734612
  52.7381897  63.9568558  27.6467018  52.7854080  63.1207962  27.1830158
  53.0727158  63.7641830  28.5226021  70.3474045  44.5595436  87.4964752
  70.4832535  44.1307449  86.6515427  71.2088928  44.9044037  87.7313004
  39.2943115  39.6935081  33.5950813  39.2914581  39.0413933  34.2957687
  38.5306053  39.4746895  33.0611267  71.8683014  18.1726856  58.8447456
  71.1543732  17.8615417  59.4012756  72.4976578  18.5570107  59.4550209
  74.5400620  64.0405273  70.4869766  74.1415558  63.4128113  71.0898056
  73.9319000  64.7795868  70.4742126   0.6291164  32.9183617  42.7336273
   0.6585038  32.7432671  41.7930374  -0.1145261  32.4051895  43.0496635
  72.9887161  65.6690063   2.2187808  72.6645508  65.5463638   3.1110322
  72.4671707  65.0656738   1.6894277  77.0994492  24.5106068  60.0974197
  77.7116928  24.9741459  60.6688385  77.6584015  24.0026321  59.5093956
   6.0455494  63.5999069   1.8446310   6.1575313  62.7204666   2.2055700
   5.6070242  63.4602928   1.0053248  27.8789825  14.2752895  88.7322083
  28.5372963  14.6891165  89.2904205  28.3830910  13.7139463  88.1431427
  84.7348328  63.2498970  81.4272003  85.5272598  63.7753067  81.3166046
  84.6119003  62.8207092  80.5804901  76.0304413  48.5023079  33.5946693
  76.4698410  48.4514084  34.4435349  75.6835632  47.6217613  33.4513474
  41.4934044  33.7433357  18.4303780  41.3579292  33.3541222  19.2943172
  40.7546959  33.4304543  17.9082184   3.2235434   6.7637758   1.0651892
   2.4516633   7.0194788   0.5601657   3.7359469   6.2244072   0.4628971
  13.6588669  54.9944496  26.2571774  14.2059040  55.1043015  27.0349407
  14.2810631  54.9490471  25.5312004  51.9335022   8.8005877  68.6271591
  52.3725052   8.2465572  69.2725677  52.6469498   9.1989040  68.1285858
  83.1848679   1.3166748  74.3924255  82.3485565   0.8972507  74.5946655
  83.8390045   0.6367247  74.5536880  73.3389816  67.7746429  67.6411819
  72.8227463  68.5807037  67.6390839  73.0694046  67.3196411  68.4390106
  66.5862808  13.1035376  70.9123230  67.3934250  13.5698738  71.1297455
  66.1219635  13.6927576  70.3178024  22.8006992   3.6225238  43.0203362
  22.1055260   4.2744584  42.9311829  23.3381710   3.9430318  43.7446518
   4.0190058  26.1628399   2.0370502   3.1211843  26.2710361   1.7232965
   4.4108367  25.5349960   1.4299985  33.4397507  68.6933823  11.6800804
  34.2232933  68.6468735  12.2279215  32.9428253  67.9069595  11.9055586
  18.4884357  68.7934494  52.2163010  17.8614635  69.4644699  51.9463425
  19.2012863  69.2829666  52.6267242  50.4727821  14.9403419  38.6963921
  49.8902855  14.2720747  38.3353539  50.5783920  14.6947918  39.6155128
  27.4904861  11.6397886   3.1107428  26.9618683  10.8539591   3.2495449
  28.1229515  11.3872690   2.4380963  45.2041321  47.0788040  71.5231628
  44.9280663  46.3059845  72.0158768  46.1509628  46.9761047  71.4272842
  79.9055176  33.4060287  25.4282494  79.0655365  32.9574814  25.5255585
  80.1671371  33.2310982  24.5242672  69.4930420  51.4926567  81.2018204
  69.3986359  50.5408821  81.2397690  68.5988693  51.8253212  81.2794647
  15.7493486  43.6558304  58.2199821  16.5593395  43.2044601  57.9824753
  15.8179379  43.7894058  59.1653328  83.9053345  33.1118164  50.8119659
  83.6847076  33.9588928  51.1992874  83.0737915  32.7789383  50.4743881
  41.7057228  58.0578156  33.1979942  42.5718117  57.6543961  33.2560921
  41.6622276  58.4043922  32.3068047  68.2919464  34.7545738  75.9284058
  69.0928116  35.1090279  75.5421371  67.7031326  35.5066261  75.9912262
  12.5638103  39.8134651  46.1664467  12.8029003  40.0578232  47.0605125
  12.7941246  40.5785370  45.6393318  11.4394999  67.7396774  25.9933529
  10.7019253  67.5259399  26.5647812  11.7579279  66.8910294  25.6857262
  11.5458536  47.3854179   3.3524976  12.4406261  47.5051575   3.6707366
  11.2891226  48.2489433   3.0290143  66.1447906  16.2969818  26.0663872
  67.0032883  16.3794575  25.6511669  65.5828323  16.8967609  25.5757732
   0.8732239   8.4962730   7.9590054   1.1670406   9.0778704   8.6601810
   0.3840090   9.0654545   7.3649235  32.9403267  38.9617538  22.7547150
  32.1670609  38.6405220  22.2909222  32.7226868  39.8645859  22.9865742
   3.5985491  48.2489395  29.6191330   3.8516443  47.8402863  30.4468880
   4.4157076  48.6007690  29.2660065  84.0649490  58.3067093  76.5733795
  84.8073730  58.0845032  76.0115433  84.4641266  58.6328239  77.3799362
  54.0929718  17.2505322  15.7722654  53.8026772  17.6313019  14.9434242
  54.0718117  17.9801655  16.3914738  12.6819830  53.0671539  13.9731312
  13.6255941  53.1060867  14.1290607  12.4356842  53.9691200  13.7681293
  46.1987534  56.7262001  50.3040085  46.8140793  56.5805473  51.0226135
  46.7479744  56.7553482  49.5205956  14.8313150  49.7993813  47.2106361
  13.9521990  50.1367111  47.3826675  15.3776608  50.5817680  47.1357536
  20.3475609  65.0567017  46.3246155  20.2363434  64.1762161  45.9660110
  20.0818100  65.6401367  45.6138306  27.6844959  48.3958206   6.0521178
  26.9514675  48.7770653   6.5353928  27.3879223  47.5151291   5.8226438
  84.1300201  37.5158920  22.4488468  84.5106277  37.4390221  23.3237514
  83.2843552  37.9408531  22.5920277  51.1921844  49.9797249   5.9024453
  52.1452217  49.9056892   5.9520893  50.9713554  50.6601639   6.5384221
  62.7482872  69.9720688  24.3488979  62.4032860  69.8133240  23.4702568
  63.1158752  69.1300964  24.6176014  74.2865295   7.1389456  52.8955154
  73.7160416   7.6945839  52.3644409  74.0705566   7.3684645  53.7993431
  50.5134392  61.1173973  36.8785172  49.6270828  61.1336479  36.5174942
  50.9268684  60.3598747  36.4644279  86.5144272  38.1869774  77.0622025
  86.1904221  38.0342865  76.1745453  86.4239426  39.1311302  77.1911011
  19.2444172  62.5336685   4.8252854  20.0258942  62.8869705   5.2503781
  18.5199776  63.0319328   5.2036362  48.7406998  58.4273720  60.3577614
  49.3083534  57.9384232  59.7619972  47.8545609  58.2557335  60.0391197
  55.7382126  37.2375107   1.6902983  56.2055550  36.9272766   0.9146833
  55.3118439  38.0458527   1.4056513  40.2674599  26.5829239  65.2391281
  39.9458046  26.1986389  64.4235916  40.7200584  27.3808308  64.9657516
  48.0806618   3.3839338  73.0000763  48.7642975   3.2418380  72.3453369
  47.5375977   2.5970478  72.9539795  51.8253288  36.4969482  78.5816269
  50.9694290  36.8057098  78.8788376  51.7854118  35.5459900  78.6832123
  42.6910019  19.4001484  56.8990059  43.2645683  19.2951355  57.6581001
  41.8505898  19.6699677  57.2693214  82.3153992  47.7028503  55.8584862
  81.9658508  47.8383102  54.9777489  82.4280701  48.5860481  56.2099113
   5.4273019  56.5173569  17.9740105   4.6493320  56.0463600  18.2725983
   5.0886393  57.1862411  17.3789177  82.1558228  48.0676689  79.0353851
  83.0491943  48.1471329  78.7010117  81.7493134  47.4046478  78.4773636
   0.9950961  32.5677147  28.3301983   0.4361416  33.1402245  27.8048115
   1.6733910  33.1474571  28.6766739  24.4167767  66.5910492  73.3527069
  23.4953899  66.8492889  73.3769836  24.4028225  65.6814957  73.0547867
  84.7171097   8.9436598   9.7494392  85.2115936   9.7583389   9.6599159
  84.3099823   9.0043240  10.6136131  18.8140373  49.4155235  80.8491211
  19.2629013  48.6240997  81.1464462  18.6531906  49.9147835  81.6498032
  68.3362732  37.2955360  45.5670853  68.1519241  37.5472450  44.6621590
  69.1706848  36.8288231  45.5206299  22.1645470  63.2121735  67.9542770
  22.2420616  62.2689514  67.8109055  21.2583466  63.4159279  67.7229385
  79.0785751  59.5672417  41.2026711  79.8252945  59.2226830  40.7128525
  78.3148956  59.1628685  40.7909584  66.6167068  56.8048782  85.1895523
  66.5708771  57.4458427  84.4801178  67.0799179  56.0587997  84.8087158
  33.2659760  61.1455154   0.8902828  33.3531303  62.0834885   0.7204589
  33.6425209  61.0239105   1.7618675  11.7342148  68.1917953  30.9955444
  12.1717615  68.5044403  31.7874012  11.9947271  68.8139954  30.3164082
   7.2743688  36.2278519  22.4663219   6.4881258  35.8650513  22.8742790
   7.3080368  37.1334343  22.7745762   9.9223356  62.7388115   9.6254578
   9.5348072  61.9159508   9.9237089  10.8564167  62.6453133   9.8124952
  22.3053493  20.2015991  61.1730804  21.3810310  20.4344063  61.0855064
  22.3301964  19.2573032  61.0184288   4.5354748  69.4272156  52.2255173
   4.0789127  68.8335037  51.6294556   4.7804232  68.8776169  52.9699478
  78.2879181  70.5926819   3.6012950  78.9163513  70.3731308   2.9134717
  77.5547791  69.9947510   3.4556286  69.8524399  33.4483070  34.3081360
  70.6728821  33.8049202  33.9676476  69.7295303  33.8903008  35.1482353
  47.4764061  70.6135712  41.1476936  47.0560951  71.4316635  41.4128342
  48.2872429  70.8886108  40.7197571  18.3773079  17.3457260   4.8354535
  18.0406685  16.4809628   4.6007404  18.9769077  17.5705299   4.1239920
   3.0986161  42.3758392  20.6449280   2.6386502  42.4768944  19.8115902
   3.7555847  41.7006111  20.4755402  59.9651527   5.3105597   5.1194091
  60.2693863   6.1504250   4.7754583  59.0490189   5.2579217   4.8470883
  14.3976011   1.4405910  56.6362648  14.7429714   1.9954058  57.3356438
  13.7421350   0.8921020  57.0672569  18.6477451  10.6447277  82.0366516
  18.3592358  10.8660641  81.1512146  17.8785572  10.2500916  82.4475555
  43.9712677  65.6067276  15.9387226  43.7227669  64.7026215  15.7462006
  44.0212364  65.6431732  16.8939228  59.4453697  11.4220629  28.9357586
  58.6942635  11.6158981  28.3749542  59.8575859  12.2727041  29.0864868
  37.9670868  64.2516861  55.7435875  38.7348213  64.3494873  56.3068314
  38.3246613  63.9940071  54.8938980  69.2780914  20.9179573  -0.2060798
  69.5863266  20.6312065   0.6535702  68.6988449  21.6565933  -0.0186908
   0.7045007  38.0624237  80.3839035  -0.0897879  37.6815834  80.0093384
   0.7428179  37.7100105  81.2730408  52.2606201  65.3638535  65.1191330
  52.3115692  64.5433960  64.6287460  53.1703682  65.6492233  65.2037201
   0.0747127  22.1549797  63.9444923  -0.0314760  21.5961227  63.1746635
   0.0792079  23.0460186  63.5948296  16.6500511   3.1865268   5.7874618
  17.4070759   2.8928041   5.2806354  16.1321239   2.3935242   5.9257741
  66.0075302  53.5301132   7.6235933  66.5519104  53.8499413   8.3430338
  66.5415878  52.8584938   7.1993947  12.9656248  30.9702568  87.7837982
  12.6822777  31.1982250  86.8983688  12.3789434  31.4632320  88.3573914
  69.8268661   0.6306279  84.7718353  69.8382797   0.3816194  85.6960068
  70.6403427   0.2719665  84.4170837  29.6967373  63.3964157   8.4107599
  29.5286636  63.0474777   9.2861023  30.6450577  63.5231476   8.3814545
  59.2720108  21.7489357  65.3249359  60.0357285  21.2869263  64.9792252
  59.6366158  22.3962383  65.9284973   4.5355935  17.5730953  19.0192051
   5.3446989  17.0741997  18.9065895   4.8057551  18.3663597  19.4817810
  26.3421211  62.0900688   5.5831189  27.1116085  62.0136108   5.0189581
  26.1053772  63.0165749   5.5410204  78.9982758  31.7506599  38.1995354
  79.2610474  32.1321259  37.3618774  78.5695572  30.9278755  37.9640465
  10.3588953  46.1845131  13.1787443   9.6875086  45.5968628  13.5253553
  10.0014906  47.0622559  13.3131504  31.7782059  45.4736061  59.0657692
  31.6896629  44.8392639  59.7771111  31.9341125  44.9396896  58.2867584
  86.7118530  23.9172421  19.6342773  86.1078262  24.4759235  19.1451359
  87.4241028  23.7391911  19.0200825  32.6427231  67.5566254  84.9919662
  33.1072731  68.3654022  85.2071533  33.1839218  67.1408844  84.3207703
  28.9939270  64.2996521   5.9943461  28.3068371  64.6832428   6.5393205
  29.6392803  63.9697037   6.6195526  17.5548973  19.4737244  88.1257172
  18.3339024  19.1214027  87.6953125  16.9057617  19.5442047  87.4258041
  53.6110077  54.4829102  70.9387817  54.5465736  54.6310043  71.0766678
  53.2129021  55.3462601  71.0499878  53.4634171  56.0095901  35.3445740
  54.1028748  55.3132515  35.4943504  53.9309654  56.6538544  34.8130188
  34.4467773  53.2472343  64.5759125  33.7351379  53.0038834  63.9838104
  34.9921112  53.8433990  64.0626602  29.5156975  44.7873192  67.3468475
  29.5734386  45.6325340  67.7923889  28.9978046  44.2401924  67.9373245
  52.7756767  50.9817123  65.7990723  53.4552650  51.6283150  65.9895935
  51.9561577  51.4222069  66.0239792  71.5701370  63.1667786  17.5536919
  70.8207397  62.9795418  18.1189976  71.8270721  62.3128128  17.2059002
  50.1627121  33.8365211  26.3476162  50.8286285  33.2948875  26.7711945
  50.0007515  33.4047203  25.5088387  17.9681816  51.3308525   5.7267675
  17.7900352  51.1360817   6.6468544  17.1345997  51.6537399   5.3845477
  77.7173538  41.5956917  44.8401184  77.3485260  42.1844292  44.1816483
  78.2219391  40.9578476  44.3353615  58.2184792  37.7339516   9.6837740
  58.9089775  37.3642426   9.1335392  58.4150200  37.4118843  10.5634766
  36.1281586  63.6723709  71.4365311  36.8368797  64.1655121  71.0233002
  35.7587700  63.1448936  70.7283249  72.7365341  69.0545502  13.5495634
  72.6204300  68.7096100  12.6642561  72.9944229  69.9670792  13.4191570
  12.1864719  49.3989677  59.7297935  11.2353096  49.4635429  59.6440506
  12.4636497  48.9059868  58.9575424  14.2257528  61.5092316  51.3305626
  15.0294533  61.4877434  50.8111038  13.8014584  62.3303070  51.0814819
  37.3990631  39.2436180  78.5004578  37.3048248  40.1861153  78.6384506
  38.2036705  39.0128403  78.9647598  20.1611938  50.8188667  70.9661331
  20.4188328  51.6360970  71.3927307  20.5158863  50.1319084  71.5305023
  71.8027573  25.1738148   3.5544767  71.0079575  25.4074554   3.0749695
  72.2879944  25.9955635   3.6286902  42.9397621   2.2493932  67.3197708
  43.4421196   2.3125541  68.1321030  43.1624985   3.0458813  66.8378754
  86.5336990  35.8929901  39.1684914  86.7771912  35.0513420  38.7830353
  86.6768494  36.5281410  38.4668350  36.1934166  53.2129440  24.1566830
  35.5037766  52.7288971  24.6109123  36.3168907  54.0035629  24.6819515
  65.6191635  49.5522614  17.9847527  65.6173325  50.3344803  17.4330616
  64.7682343  49.5661926  18.4228821  70.3880005  16.5289249  10.9727278
  70.8082581  17.1190948  10.3471766  70.3481216  17.0313835  11.7864704
  61.8795204  50.7261658  84.9612656  61.0170135  50.5736275  84.5752029
  61.6935501  51.0914497  85.8262634  55.9053841  37.4107971  64.6121140
  55.8419266  36.7516861  63.9208984  55.0255356  37.4501839  64.9870071
  71.9922562  60.3398476  74.7321320  71.4079514  59.8271370  75.2906494
  72.4997711  59.6855545  74.2519608  66.2012939  38.6875648   8.1632690
  66.6470566  38.5061684   7.3358502  66.5893326  39.5071678   8.4697151
   0.7937716  28.1950378  34.1698875   1.2413535  28.4395466  34.9798965
   1.4724890  27.7810669  33.6367798  51.0265770  14.4940805  84.3877945
  50.7145424  15.3989496  84.3966599  50.5203247  14.0594177  85.0740891
   4.6358414  56.3049355  65.9890060   3.7758186  56.1400795  65.6024628
   5.0085359  55.4337349  66.1244583  37.5736008  44.4289932  42.2357063
  37.6519241  45.3695068  42.3954811  38.4019775  44.1865463  41.8218880
  61.5289268   5.7711120  22.1482735  61.2664223   6.6623788  21.9181290
  61.0315437   5.2130198  21.5504646  11.0048895  62.9953423  15.5400486
  10.7564869  63.5884209  14.8309755  11.5965023  63.5113602  16.0877247
  59.1576576  45.5630341   1.4219426  59.7003136  44.7745209   1.4227570
  58.5650291  45.4451714   0.6795612  55.0769310   1.2660755  55.5715828
  54.8851662   0.3528939  55.7850266  54.2381973   1.6257749  55.2828407
  54.5826836  64.0584335   7.0076537  54.6801529  64.4263916   6.1293950
  53.7689133  63.5560112   6.9678860  73.9839249  14.7349834  56.5548439
  74.2470551  15.1525545  57.3749847  74.0138474  15.4391594  55.9071770
  45.8534279  60.2780418  66.2657394  45.6344032  60.7191734  67.0865097
  46.7485962  59.9642448  66.3939438  62.2739754  30.5588017  68.5805359
  63.1201057  31.0019188  68.6433182  61.7067451  31.1877327  68.1345215
  79.4834061  33.9015617  47.1848755  79.1383743  33.5799789  46.3519478
  80.1387329  34.5536957  46.9368782   4.4650745  30.4839268  59.0016670
   4.9197741  30.3178215  59.8274345   3.8723738  29.7391319  58.9005814
  48.6640511  17.1133556   5.3886790  48.9756851  17.6722450   6.1005497
  47.7123871  17.2150974   5.4033585  67.1846619  18.4090176  12.0243387
  67.0582047  17.5865593  11.5512600  66.3954086  18.5022430  12.5578451
  51.4631271  34.6295204   4.7266946  51.1738892  35.0792122   3.9327469
  52.4181175  34.6203575   4.6623549  15.1508255  66.2325668  78.9267807
  14.3224306  66.4175491  79.3692474  15.6746244  65.7715759  79.5820312
  28.8092957  58.1284676  72.2046280  29.3857594  58.8502693  71.9537811
  29.3667488  57.5442657  72.7186127  23.8880539  32.3628616  75.5697021
  23.5050945  31.5683384  75.9415970  23.9020157  32.9850845  76.2969360
  60.6989899  64.9951096   2.8477774  61.6547775  64.9728317   2.8947637
  60.4209785  65.2272491   3.7338102  65.1826706  60.9515228  14.9747200
  64.2477188  61.0959740  15.1204376  65.4879608  61.7585106  14.5602322
  38.0819588   1.0510291  37.6312904  37.6315842   1.8240811  37.9715576
  38.7340546   1.4014609  37.0244904  75.0551224  67.7513428  16.6839752
  74.6457367  66.8936081  16.7976551  75.8351212  67.7197723  17.2379074
  21.5474739  60.9087029  61.8978233  22.0110855  60.6340828  62.6889496
  22.2263355  60.9490356  61.2242126  44.3853569   5.7566319  35.4613190
  44.1515923   5.9456019  36.3700943  43.8837204   6.3901720  34.9482689
  47.0875244  49.8932533  47.7538109  46.4097481  49.2453499  47.5612717
  47.8774986  49.3750305  47.9075165  84.5126572  44.8002243  71.1131516
  84.8510208  45.1362152  71.9431152  85.2677917  44.8102417  70.5250092
  62.1116943  28.1251869  32.4779930  62.3961411  27.2311859  32.2880363
  61.9680252  28.1348476  33.4243011  48.9089546   9.3752289  32.2802620
  48.4435692   9.9247675  31.6496620  48.6399612   8.4823618  32.0642471
  39.1851768  24.2290516  68.1130371  39.6754723  25.0331249  67.9418488
  38.6787453  24.4207802  68.9023438   2.4643724  15.8344650  41.6356964
   2.9870310  16.4712772  41.1483269   1.7258086  15.6392221  41.0589523
  55.8047295  27.7992668  25.4647007  56.1020432  27.2763081  24.7201538
  54.9631615  28.1587639  25.1840572  68.6861877   0.9233693  46.3813820
  69.6034164   1.0459375  46.6261063  68.2515564   1.7251561  46.6720123
  71.4123001  19.4028625  30.0712814  70.7682266  18.7441006  29.8116093
  71.8340759  19.0328178  30.8467846  74.6356201  51.1752853  84.5279465
  74.3630753  51.2977219  85.4373169  75.0856094  51.9891052  84.3011322
   7.3034735  16.1433601   5.5596714   6.9057622  15.5005665   4.9724121
   7.1019917  15.8218269   6.4384508  85.3856888  11.2884722  53.2127037
  85.3642197  10.7463627  52.4241028  85.5414352  10.6686287  53.9252815
  35.9243660  44.4412270  82.0353851  35.0878563  44.7766457  82.3578339
  35.7769432  44.2871170  81.1022415  16.7637901   5.4452806  18.8653736
  17.3848457   4.7169843  18.8549690  15.9144726   5.0382581  18.6944237
  24.6010723  28.1610985  22.1642284  24.3579407  27.2511120  22.3346443
  24.2337074  28.3494625  21.3006344  54.3872604  44.0699539  64.9223251
  55.0871620  44.3670769  64.3408661  53.7022057  44.7321281  64.8303757
  61.9452553  71.1394348  35.6949730  62.2430801  70.2324448  35.7648964
  62.7219658  71.6259613  35.4188499  81.5783157   4.3896041  62.7617912
  82.1833267   4.1397386  63.4601936  80.9628906   3.6586647  62.7051468
  76.1453552   1.9979333  75.1048355  75.4212265   2.5972166  75.2857513
  76.7020111   2.0535221  75.8815460  17.1848888  62.5394325  18.9943676
  17.3133698  61.6079369  19.1733551  17.2825050  62.6166534  18.0452938
  55.8064804  20.3186703  11.8254662  56.5385208  19.7162666  11.6933413
  56.1439857  20.9759045  12.4340410  60.6869278  34.0780830  54.9235725
  60.6180153  33.2472153  54.4533119  60.2021866  34.7008209  54.3818550
  32.6984062  38.4974785  17.5920639  33.3279648  38.5389023  16.8722229
  31.8473949  38.6280785  17.1737900  58.4005737  12.1633978  47.0360565
  57.9713173  12.5174980  46.2572212  59.3355103  12.2093687  46.8360291
  21.4266319  51.0002289  44.6724854  21.9037437  51.5212708  45.3183250
  20.8558064  50.4361801  45.1942482  16.3067646  50.0977440  52.0078773
  15.7222490  49.5472336  51.4868088  17.0903568  50.1944275  51.4667053
  55.4290314  24.0512638  80.4715118  55.5174866  23.2633705  81.0078278
  55.7842979  24.7532425  81.0167160   8.9381485  68.7163162  22.4477119
   9.8883801  68.7602539  22.5543003   8.8110037  68.4722977  21.5309124
  73.9380722  30.0369740  17.0279770  73.0478592  30.3798923  17.1064472
  73.8214645  29.0964584  16.8935699  53.8194809  54.6722527  24.8200722
  53.2255974  55.4091148  24.9634819  54.2116470  54.5102043  25.6780815
  21.5166168  56.1909218  70.8226089  21.9725113  55.9358940  71.6247025
  20.9005203  55.4766617  70.6598587  17.1379204  34.8416519  10.4246550
  17.4468498  35.6511879  10.0179014  16.6403961  34.4019012   9.7352190
  48.1028519  27.0621853  40.3588066  47.5361023  26.9805393  39.5917587
  47.6965942  27.7512474  40.8845253  75.9970322  56.0764656  55.0786819
  76.5499039  56.8359070  54.8947906  75.3536606  56.0713501  54.3699608
  76.5475006  51.6927109  65.0044022  77.2719345  51.9513054  64.4347000
  76.0357513  52.4933929  65.1195297  74.8748093  46.2345009  51.9053879
  75.5881882  46.3209305  51.2730446  74.9139175  45.3205452  52.1871414
  13.1583691  71.0217590  13.8864670  13.6555462  70.4093094  14.4286423
  12.8792610  71.7070541  14.4936752  80.0417023  54.4266930  38.5466270
  79.6166534  54.4337463  39.4042511  79.6134644  55.1318626  38.0612640
  59.7816048  62.3172112  32.5449028  60.4401207  61.7043686  32.2177734
  60.2893448  63.0265961  32.9388618  26.2023621   6.3159256  42.9823952
  26.4784145   7.2324519  42.9799843  26.0567455   6.1120725  43.9062309
   4.1457577  49.0823250  79.5840225   4.2307887  49.1773415  80.5326920
   4.7723761  49.7096252  79.2233658  57.0308571   7.8481522  53.1434364
  57.7242088   7.6260991  52.5219955  57.4655380   7.8512197  53.9962425
  12.8305941   7.3238974  22.7798195  12.0983419   6.7152305  22.8776054
  13.5353708   6.9360170  23.2985382   9.0291433  62.7140732  85.3808365
   8.7004356  62.4963722  84.5086060   8.2496462  62.7184410  85.9363480
  83.6965103  43.6348991   2.2808294  83.0360641  44.3153954   2.4110858
  83.3635330  42.8814964   2.7684186  65.2862091  11.0593023  81.4571991
  65.4421005  10.6831293  82.3234634  64.3332901  11.0663691  81.3670959
   0.2018960  40.0831337  71.1140518   0.9954425  39.8437004  70.6353149
   0.5214677  40.5037422  71.9122925  85.9012375  10.6080770  83.5566101
  86.3041458  11.3283463  84.0414886  86.4038010   9.8352270  83.8142166
  66.5345993  50.8907776  23.4185123  65.7486115  50.3444824  23.4142933
  66.4152145  51.4764366  24.1661625  39.1897697   3.0825441  33.4249878
  39.1305923   2.1362109  33.2939034  38.5687637   3.4507022  32.7964630
  22.9355354  57.3087425  79.6176682  23.5032749  57.7676048  80.2368164
  22.4424496  58.0049210  79.1835785  21.2471390  59.0272980  75.3947144
  21.4600964  58.7244339  74.5120163  21.7455997  59.8381042  75.4964981
  71.9667282  63.1253281  48.8971786  72.4397736  62.3470497  49.1916924
  71.0476151  62.8581238  48.8889198  67.6970367   8.0976429  78.0715866
  67.9835968   7.2326770  78.3647537  68.4950867   8.6261683  78.0688629
  13.2191095  67.4523239  48.4725266  13.0332432  67.0359726  49.3141518
  13.4412422  66.7260742  47.8899040  51.8545456  70.8077087  27.2041264
  51.3674736  70.7475815  26.3823109  51.6231766  71.6667328  27.5573692
  62.6081924  12.7410841  13.0837841  62.7145920  13.6654396  13.3084564
  63.2483292  12.2863255  13.6311893  17.5497074  53.1614456   9.1218863
  17.1378040  53.9640388   9.4419012  18.0713215  52.8487663   9.8610630
  80.0906525   7.5733380  81.4532852  80.9617767   7.2336178  81.6581268
  80.2114105   8.5209112  81.3920135  82.1436691   5.1745172  49.7589798
  82.1688232   4.2285480  49.6149635  82.2659302   5.2764235  50.7028542
  19.8980885  41.7855072  65.8954773  20.0986996  41.1089821  65.2487183
  19.5934963  42.5300293  65.3766937  68.5472794   6.1286249  24.3114243
  68.5539932   5.4900360  25.0244389  67.8842468   6.7689171  24.5695896
  77.3134308  55.9891281  81.2317200  76.9646759  55.2312584  80.7624283
  76.8479462  56.7373276  80.8578873  45.2470055  25.8736248  66.2975693
  45.3222008  26.4060192  65.5056458  46.1506348  25.7428532  66.5849533
  53.6161842  47.4169044  74.5274048  53.1919327  47.4824409  75.3829422
  53.2441902  48.1380882  74.0197220  51.0421333  65.4704590  29.2987080
  51.6452408  65.4986572  30.0414734  51.6077919  65.3556671  28.5351086
  42.7064133  69.7689056  31.0795555  43.4929352  70.3077164  31.1649685
  42.3669777  69.9768829  30.2090626   1.8187889  15.5307369  21.3930721
   1.7441545  16.4764729  21.5205307   2.6600494  15.3014879  21.7879868
   8.5102110  66.7452316   8.2584763   7.7954383  66.7682800   8.8947163
   8.5510273  65.8312302   7.9771047  50.9841843  12.0804634  87.8327179
  50.5028152  11.8799858  88.6354141  50.7574844  12.9898787  87.6382828
  18.5611877  43.8996544  63.2420921  19.1199169  43.1227417  63.2206802
  19.0930920  44.5882683  62.8431931  79.5682907  62.3898354  64.6326904
  79.5890427  61.5322571  65.0573730  79.7033463  62.2006073  63.7041473
   3.1541450  52.1159210  82.6481476   4.0239887  52.3225441  82.9900742
   3.1440363  51.1611824  82.5803070  65.9478760  70.3961258  67.8094482
  65.3143768  71.0766907  68.0369110  66.7938156  70.7588806  68.0721893
  31.6110229   7.9175353  14.8401871  32.2886353   8.1448803  14.2034893
  30.8712101   8.4813147  14.6142168  81.9218292  21.8773975   8.6046467
  82.0619736  22.7503948   8.9713440  82.0381546  21.9922676   7.6615114
  68.1681442  29.9482384   4.7195706  68.3782196  30.6767654   4.1353207
  67.9815140  29.2160816   4.1319079  52.5022469  54.1454697  53.1626129
  52.5116119  54.1614494  52.2055931  52.4599800  53.2157211  53.3862343
  43.9417763  30.2553158  71.2775497  44.6524086  30.3461437  71.9123611
  44.0768318  29.3910713  70.8888702  26.1094742  50.0154953  76.6336975
  26.6524677  50.5917892  77.1715469  26.5126286  50.0475121  75.7661362
  69.2591934  56.0577431  45.8453293  69.2633667  55.9390335  44.8955307
  70.0199814  56.6114845  46.0208359  38.7161407  35.5396347  14.5392599
  38.4543800  34.6651382  14.2512112  39.3616524  35.8219986  13.8913260
  23.8170605  71.6894608  15.2491713  23.9364281  70.7397308  15.2502022
  23.9445057  71.9458847  14.3358049  69.1315994  37.9629440  65.6367722
  68.4561996  37.3386879  65.3714981  69.9193954  37.4306946  65.7477493
  61.6379356  70.8203125  30.2159557  60.7201157  70.6055145  30.0495186
  61.8067436  71.5887680  29.6707859  31.0444527   3.0038507  15.7775803
  30.6425495   2.8052521  14.9318466  30.9859619   3.9562967  15.8527975
  79.8661880  29.3072739  70.1675491  80.4903259  29.7786808  69.6157684
  79.7945480  28.4426003  69.7632751  68.4162903  14.4403086  50.5505333
  68.7803497  15.1648693  51.0591660  69.1709213  14.0608339  50.1002350
  36.2666931  -0.2640294  76.3017807  36.1948700  -0.3643287  77.2509995
  36.2229767   0.6811192  76.1568222  81.5633163  19.3864098  61.8605461
  81.8957138  18.5023594  62.0160904  82.3321457  19.8866863  61.5869598
   5.3997555  62.1325569  21.2347546   5.5747218  61.2700653  20.8582878
   4.8701243  62.5792122  20.5742855  79.4712906  22.2383213  51.5956841
  79.8538666  22.4110508  52.4559364  79.1580505  23.0920982  51.2970581
  75.1218872  60.4809608   2.8633687  75.0505676  60.2310257   1.9421326
  75.9645538  60.1239281   3.1438577  62.2047348  27.1150837  87.7626190
  62.6623573  27.3011341  88.5825043  62.6699638  27.6331024  87.1057739
  39.5190239  51.9651756  38.4516754  39.1904526  52.7979240  38.7904930
  40.2659111  52.2073250  37.9041748  32.6351318  40.6263809  76.8603058
  32.0278778  41.3573036  76.7453308  33.2712021  40.9421349  77.5021362
  13.4796209  60.4752083  48.2357826  13.9325304  60.7520218  49.0323219
  14.0294580  59.7784081  47.8774796  83.6470490  58.3792915  85.7394638
  84.4833450  58.2822151  86.1949005  83.3059540  57.4874535  85.6723099
  20.8577099   9.6268444  49.6684227  21.8042393   9.7491045  49.7416878
  20.4850502  10.2855825  50.2544403  28.2574215  37.4131966  75.0743027
  29.2001781  37.4509850  75.2355957  27.9015083  38.1581154  75.5587158
  48.1431580  34.6305885   6.3749199  47.8691177  34.5561600   5.4608116
  47.6840630  33.9190979   6.8212848   6.7744527  51.1307297  37.4164391
   7.2221160  51.6345444  38.0961418   6.8586626  51.6656837  36.6271591
  29.7571735  51.3682175  35.7581444  29.4581623  51.9378319  35.0493698
  28.9542465  51.1006241  36.2052841  57.1319923  55.1681366  23.8256054
  57.3902931  55.0948334  22.9068356  57.8830566  54.8300171  24.3132648
  60.1134148   9.9540062  53.2619286  59.9840431  10.0179358  54.2081871
  59.5960770  10.6736040  52.9003029  43.7867317   4.1986003  65.6453476
  42.9241753   4.0577722  65.2549667  44.2097549   4.8346272  65.0684967
  40.9337692  49.9355545   3.4451919  41.0882263  50.7527580   3.9190669
  41.3051987  50.0886154   2.5763741  81.4254837  64.6991806  20.6665230
  81.8763275  65.5435486  20.6706619  80.6226807  64.8538742  21.1643314
  52.9088097  30.8782539  65.6046219  53.6652641  31.4576111  65.5132294
  52.6967087  30.6180668  64.7082138  86.8760452  68.8651505   0.1589424
  85.9706268  68.6898193   0.4153004  87.3307419  68.0352478   0.3029885
  73.0894241  26.8731060  39.1029091  72.6882095  27.4913673  39.7136536
  74.0142212  27.1194763  39.0856552  74.0299759  12.0095434  85.8566055
  73.1457520  11.7416401  86.1068268  74.1992340  12.7939854  86.3783646
  50.7171059  50.6519012  58.0923767  49.8847046  50.3625183  57.7187424
  51.3442192  50.5676117  57.3741455  34.2338715  35.6314201  78.9542847
  34.3529167  35.1368370  79.7651138  34.8051872  36.3931465  79.0522842
  15.4148159  43.8718681  14.9131012  14.5021315  44.1183281  14.7631178
  15.4045248  43.4155617  15.7544746  45.2483139  42.9097748  88.4990616
  44.3557053  43.2314110  88.3724670  45.2803726  42.6481285  89.4192505
   9.2623129  70.0838394  69.5399094   8.8424425  69.2546310  69.7687378
   8.6365767  70.7534180  69.8162231  67.7286682  38.4774132   6.1031094
  67.5486832  39.2801399   5.6137528  68.2510910  38.7653160   6.8517208
  10.4031172   5.7312908  17.2860146   9.7755966   5.0123115  17.2117329
  10.9424324   5.5012779  18.0426292  70.9934845  39.4626999  12.8448076
  71.3567276  38.6818123  12.4270706  71.6395645  39.7011986  13.5095901
  47.3296204  46.0864677  68.1135941  47.6607780  45.7530823  67.2796783
  46.3832474  46.1526947  67.9862213   3.4799018  10.6079979  74.8546371
   3.0538957  10.2245264  74.0880203   3.0018392  10.2456970  75.6005783
  10.3803596  47.9965897  27.0668926  10.7777758  48.5742416  26.4152718
  10.6614170  48.3557014  27.9084854   3.4205043  32.8510704  42.6014977
   3.4301689  32.2731590  43.3644867   2.6259034  33.3741837  42.7073059
  59.0133018  14.1019382   3.1423292  58.5972939  14.6567717   3.8021224
  59.9418488  14.3296995   3.1887896  80.8455734  36.5997963  74.1923141
  80.2429047  35.9199448  73.8909454  81.6647949  36.4142761  73.7333069
  57.8587151  22.9258442  78.9236069  57.4772415  22.0576973  78.7930984
  57.1111641  23.4877052  79.1278305  43.8775330  52.5759468  56.2932854
  43.0870667  52.1638756  56.6419830  43.6763649  53.5117378  56.2856483
  53.1488571  31.1292496  14.3191423  52.4136047  31.3180141  14.9022388
  53.7676430  30.6426792  14.8637390  47.6950302  50.1996346  71.3937302
  48.6066055  50.0549774  71.1400909  47.5710373  49.6483765  72.1663742
  36.5541878   1.4629039  25.8983231  37.2954979   0.8931273  25.6932621
  36.3894081   1.3156959  26.8296700  43.4056015  59.6219635   9.0686235
  43.8206673  60.4718399   9.2157993  44.1345978  59.0028305   9.0302076
  12.7720337  50.6592255  77.1523056  12.4368496  50.6415062  78.0487289
  12.2527962  50.0016937  76.6894073  -0.1181287  10.5730247  25.9889889
   0.7786363  10.3230858  26.2116432  -0.1241959  11.5278835  26.0556240
  15.1971407  56.7312012   8.2431126  14.4153910  57.2612114   8.0875826
  14.9580088  55.8562202   7.9374070  23.2452888  19.5985966   8.1396694
  24.1407795  19.8838673   7.9581475  22.7299938  19.9506779   7.4138999
   8.4833260   2.8078253   1.9590173   7.6844606   3.2406693   2.2601683
   9.1597767   3.4820163   2.0231471  34.7727127  64.5265427  76.5909500
  35.2713089  65.2386475  76.1902771  34.5664711  63.9396667  75.8634415
  25.0609474  63.9971695  66.7555161  25.3555412  63.1114769  66.9676361
  24.1493587  64.0224686  67.0463791  68.7353745  31.1850815  25.5331993
  68.1649094  31.6336288  24.9090118  68.3928909  31.4333038  26.3918743
  56.8157959  42.2870255  41.0746574  56.3280525  42.7109680  41.7807808
  56.1433601  41.8706551  40.5354919  28.0163994   3.7482154  77.3911972
  28.0886955   2.8080602  77.2265396  27.3623295   3.8200183  78.0863724
   0.8316716  61.5828857  56.1461945  -0.0510322  61.9169464  55.9866028
   0.7237765  60.9511795  56.8572083  22.0204582  62.7916832  25.2230740
  22.4838543  63.2308693  24.5099030  22.7085342  62.5511246  25.8434906
  48.3562660   7.9201784   8.2632227  47.4366722   7.9348645   8.5284834
  48.6116295   8.8421974   8.2331743  86.4059830  14.2407074  16.3438950
  86.1380234  14.7827263  15.6018410  85.9884415  14.6493521  17.1021156
  33.2614098  45.0430260  86.5570908  32.8722687  44.3489456  86.0250626
  33.3654060  45.7781410  85.9529190  75.4345551  39.9030342  83.4924393
  74.6145935  39.5881004  83.8728485  75.3725357  39.6727371  82.5654297
   0.7974690  11.0878448   1.2364143   0.8030252  10.3064499   1.7892472
   1.2671207  11.7465553   1.7480383  64.5785141   4.7919755  38.3419571
  63.7147255   5.0726695  38.6441269  64.6111374   3.8571069  38.5449066
  87.0671539  56.2689133   9.0050030  86.7223663  55.9121628   9.8235874
  86.3046265  56.3277664   8.4294033  58.5714531   6.6097794  31.3710041
  58.0039558   6.4479012  32.1246452  58.4941216   5.8181233  30.8385258
  21.4529419  59.4940872  20.3725777  22.2880917  59.1880264  20.0189056
  21.1429100  60.1356926  19.7334747  47.6345978  45.9411316  65.0147400
  47.3541412  45.5484161  64.1880951  47.5023575  46.8809700  64.8904572
  82.3102570  51.0815544  25.5660305  82.4620285  50.3390541  26.1507454
  83.1657791  51.2564278  25.1739407  65.0465240  62.5651321   4.8916855
  65.2530289  61.7306061   4.4707918  64.9836044  62.3544273   5.8232856
  73.6241074  38.8358383   4.7844973  72.8283844  38.3108368   4.8706841
  73.8233032  39.1172066   5.6774616  47.4334755  65.6069870   9.2991943
  48.2800140  65.2696991   9.5921774  46.7994118  65.2192993   9.9024334
  13.1976194  29.3352852  65.7912903  13.7092094  29.6620197  65.0511932
  12.7937927  30.1174774  66.1672363   6.2381692  58.1059761  27.6125965
   5.8230205  57.5123634  28.2383003   5.5534110  58.2947540  26.9709549
  69.7571182  67.2917099  63.5924683  69.4725571  66.7116013  62.8862610
  70.3198166  66.7442474  64.1400833   4.2760491   8.3811331  29.4992790
   4.7340093   8.6569176  30.2932854   4.8703079   8.6154432  28.7864056
   7.6713619  36.3971252  70.3858261   7.9183125  36.3649597  71.3100586
   7.1406808  35.6117859  70.2522354  59.2932968  38.3294067  26.4204884
  59.3779411  37.8320732  25.6070232  59.7338295  39.1599121  26.2404060
  68.2336121  41.2961426  15.6269331  68.5816269  40.4578514  15.9308796
  68.5470200  41.9326935  16.2694359  25.5618896   3.5360644  22.7515392
  26.4034176   3.1849842  23.0427570  24.9202309   3.1402702  23.3413277
  23.5395126  56.4916458  28.5287075  22.6469822  56.1484566  28.5716114
  23.6201324  57.0469589  29.3041801  12.9446230  15.7415752  15.4790449
  12.9853029  16.2177143  14.6496658  13.4065828  14.9210558  15.3070755
  71.7289810  49.9455261  43.3023109  71.5250702  50.5042229  44.0523224
  72.6031723  49.6033440  43.4892082  26.7108345  50.2424583  54.3453445
  26.5834503  49.7432175  53.5386467  27.4418659  49.8069000  54.7836571
   8.1194105  25.4313183   2.3509722   7.5159855  25.9155960   2.9145191
   8.5328665  24.7946320   2.9339972  51.4104919   5.8532748  14.4666748
  52.1394463   6.4736400  14.4670696  51.1909904   5.7410493  15.3915844
   6.0810881  24.4595833  68.0928726   6.4006977  23.6182251  68.4187546
   6.6007004  24.6247330  67.3061295  77.0923843  15.1201572  18.7235985
  77.0375366  15.5763903  19.5632858  78.0286331  14.9691191  18.5937881
  54.3892822  12.4718637  47.0504456  54.7445412  12.8531008  47.8533669
  54.3179741  13.2104549  46.4457703  44.5034981  57.4990120  46.3793793
  44.5558777  58.3302078  46.8511887  45.3755188  57.3822746  46.0023117
  31.1183586  26.7311420  75.4317780  30.4427261  27.4081726  75.3945923
  30.7734814  26.0820293  76.0449219  52.1833191  28.9556580  12.3437996
  52.5996361  29.6423626  12.8647118  51.6292953  29.4286842  11.7228851
  43.4358101  50.1104431  84.0449600  43.9352036  50.2523537  84.8491364
  44.0789070  49.7767982  83.4193878  22.8272762  49.4197121  69.7986603
  23.1715622  49.7548561  70.6265335  22.5153675  48.5392723  70.0078659
  82.4392776  56.8892632   2.6855342  82.3236313  57.3674164   3.5066488
  83.2739716  57.2054482   2.3397653  78.3257294  21.8882389   6.5059519
  78.9492950  21.1620502   6.5130472  78.5966187  22.4436951   7.2369213
  21.6117630  15.0782900  18.0689754  21.6259651  15.6736832  17.3196182
  20.6834850  14.8910971  18.2085934  77.5407181   9.0556965  36.4840012
  77.2986069   9.0050163  37.4086876  76.8681870   8.5461111  36.0320473
  82.4800949  50.4998779  56.6134949  81.7595825  50.9616089  56.1846542
  82.2720490  50.5454407  57.5466995  85.9005585  39.0389328  45.2739944
  85.9857101  39.0879669  46.2261391  86.2004166  38.1574860  45.0517921
  66.0278549   2.4863622  11.6341057  66.9104233   2.4710493  11.2638741
  65.5458298   1.8297092  11.1314268  63.1856384   9.4308968  33.1603775
  63.6663666   9.4597654  32.3331528  62.4026146   8.9163609  32.9645233
  47.4729691  40.0461617  36.2904510  47.5760612  39.8317833  37.2176208
  47.6603203  40.9834404  36.2390633   7.5057154   0.8985928  69.7655334
   6.5788579   1.1305784  69.7076569   7.8867407   1.2297605  68.9522781
  17.3240433  55.3360558  35.4920197  17.5415249  55.9634018  36.1814919
  16.7790451  54.6807556  35.9276695  46.2269974  21.3914032   8.6753817
  45.6480904  21.4255638   7.9138479  46.4758072  20.4698048   8.7459526
  69.0070114  65.4036255  87.0126343  69.8600388  65.1436615  86.6647949
  68.8582687  64.8112640  87.7496719  22.5381203  36.9547806   7.6586146
  22.8540325  36.3165436   8.2982149  22.3560982  37.7404976   8.1741180
   5.3740244  42.9181671  51.8206100   6.2785716  42.6757469  51.6224709
   5.4097447  43.2702446  52.7099915  45.9329338  39.1870003  74.4440155
  45.0781631  38.8220177  74.6728973  45.7309074  39.9400940  73.8887939
  77.4200363   3.0138857  21.7424622  77.3778763   3.1046641  20.7905102
  78.0688248   2.3255196  21.8889198  82.4935379  26.1962776  80.4582443
  81.9903183  25.7510662  79.7764969  83.4016190  25.9464016  80.2874222
   3.5805883  28.4671574   3.8731165   4.0715423  27.9834843   4.5373874
   3.9565256  28.1799412   3.0410049  30.4841442  48.7311478  48.0297813
  31.2780838  48.8332405  48.5546303  30.8027534  48.5951309  47.1374702
  71.0961914  15.8101559  56.4899406  70.5419312  15.0400476  56.3635941
  70.6678085  16.3011284  57.1911278  23.4405193   7.9307280  10.1836433
  23.3344040   8.8064833   9.8121281  22.5677681   7.5410829  10.1315289
  69.8985596  19.7632370   8.4344368  70.5715637  20.0578461   7.8208380
  70.3854828  19.3208122   9.1297073  43.1520958  60.1980629  78.2287903
  43.4672813  61.0803528  78.0326920  43.8267899  59.6185532  77.8749619
  27.5782757  71.2237015  10.7626905  27.4302807  72.1080704  11.0976906
  26.7156849  70.8096848  10.7902222  36.9645195  58.6062012  44.3935051
  36.2879715  59.2608070  44.2202835  36.5325356  57.9561348  44.9476089
  80.4352646  61.7244453   7.9738646  79.9572296  62.0754471   7.2225213
  79.8535767  61.8743515   8.7191181   3.1268959  67.3458099  16.7700882
   4.0346079  67.4062805  17.0678024   3.1292720  66.6261673  16.1389484
  48.7222748  32.1211891  86.5349579  49.1412506  31.2740135  86.3833542
  48.5476151  32.1370392  87.4759521  28.1628647   3.1239798  23.7681656
  28.8526020   2.4839811  23.5923882  28.5156651   3.9519417  23.4422169
  71.4960785  55.6759758  84.9459305  71.6706619  54.9497681  84.3472824
  71.6172638  55.3015327  85.8184738  55.0859375  26.5338612  89.0336456
  55.3034592  27.3978176  88.6836472  55.4174881  25.9196644  88.3786087
  11.0999603  40.1682205  80.4613647  10.3499393  39.9288597  79.9169312
  10.7356682  40.2666588  81.3410416  73.8302917  23.3891392  53.9798050
  73.1654205  22.7865334  53.6465759  74.0220871  23.0702915  54.8617249
  17.1709957  39.3229446  67.1370773  17.0465221  38.5065651  67.6210785
  17.0708084  39.0742722  66.2181931  85.0844498  32.1488113   9.9680204
  84.5245132  31.4404888  10.2857981  85.0595551  32.8047218  10.6647234
  49.1452179   1.2494453  49.0143700  49.3524132   2.0799730  49.4427719
  49.5117645   1.3358799  48.1343689  58.7461357  40.5463371  46.9825592
  57.8402901  40.6439018  47.2760849  58.6744576  40.3227997  46.0545921
  82.9076538  52.6067963  14.0079060  82.1738968  52.3063469  14.5441494
  83.0804138  51.8799438  13.4095135  39.2183037   5.6257782  75.2071762
  38.7790909   5.1986690  74.4717102  39.6764832   4.9161277  75.6573944
  34.0134964  27.9597130  11.1305752  33.9688568  28.2828045  12.0304928
  34.7758293  28.4005127  10.7553759  23.2244892   7.2683115  49.7185974
  24.0731754   6.8351932  49.8100967  23.4397964   8.1914940  49.5858955
  57.2771339  59.5896988  26.3694000  56.5401611  59.3696327  25.7995987
  57.7260513  58.7565651  26.5128975  45.7386742  16.2077122  24.9457359
  46.5652161  16.0936699  25.4148312  45.6559944  15.4182758  24.4107704
   9.5876856  11.0177069  87.0628738   8.7352552  11.2380686  87.4384232
   9.5223665  11.2863913  86.1464844  57.0870781  25.9324207  36.5526810
  56.8347893  25.0359936  36.7740402  56.4958191  26.1789417  35.8414307
   5.1943536  32.8846092   8.4845114   5.7481279  33.6429176   8.6703577
   5.5340214  32.5362511   7.6601911  48.0008965   1.1674070  32.6565514
  47.1153450   1.4252650  32.9125671  48.4023514   0.8528125  33.4665489
   9.9493246   6.5113983  87.9811020   9.1345701   6.0174236  87.8894806
  10.6038055   5.8528419  88.2138901  74.6086731  40.2376938  59.6131744
  74.8562851  39.7551041  58.8244820  74.0107117  40.9166756  59.3006744
  61.2721901  60.9238510  27.2552299  61.9858971  60.3011513  27.3934212
  61.4927330  61.3624382  26.4335041  77.7167587  48.6037178  16.4427452
  78.1046753  47.9216576  15.8945255  78.0899811  48.4539452  17.3113670
  15.9900761  60.8396034   2.0101109  15.9579144  60.3681793   2.8425515
  16.6916580  61.4805870   2.1248078  67.4241333  64.6379318  12.3653479
  67.9742355  65.3848877  12.1293831  66.5293884  64.9415054  12.2119999
  57.0419312  36.2535477  38.1824074  56.3787003  35.5771980  38.0449028
  56.8550377  36.5982552  39.0556068  25.5254288  38.6808929  85.9494553
  24.9869537  38.8361549  86.7254562  25.0241814  39.0639305  85.2295532
  62.2894745  68.5903015  64.0481491  63.0780487  68.3779068  64.5474167
  62.6169014  68.9815750  63.2382545  82.0432816  22.2014484  59.4984360
  82.4276505  21.6440277  60.1750259  81.8863602  23.0374260  59.9374695
  66.6976471  26.4486046  38.9297485  66.0977402  27.1845970  39.0508308
  66.8727264  26.1339073  39.8166237  16.8928528  16.6620674  22.7694664
  15.9806776  16.3731384  22.7957191  17.2320786  16.4638939  23.6423264
  25.6077385  24.0615845  71.8598938  25.6073761  23.1357975  71.6166916
  25.5783329  24.5285988  71.0248718   6.0372634   1.8249860  18.9018669
   5.3978596   1.9384183  18.1986408   6.2332902   2.7154281  19.1932755
  67.7590103  47.2625046  10.9455013  67.1957703  46.6116066  11.3642244
  67.3081055  48.0951195  11.0857487  17.1217899  18.2272072  61.8441238
  17.3215122  17.6553631  61.1029510  16.1813431  18.3909931  61.7736549
  75.9960709  58.9531250   7.2460170  76.3122101  59.0235939   8.1467514
  76.7035828  58.5098763   6.7778459  10.7133160  64.4759903  47.0806007
  10.9733400  63.8109703  46.4431267   9.9708214  64.0872040  47.5429611
  11.4602413   8.1420698  12.9924812  11.7521076   7.6084843  13.7316236
  11.5799026   7.5784082  12.2281532   5.8436189  42.2698517  68.4250870
   6.6053157  42.4745407  67.8827286   5.4792609  43.1237068  68.6583405
  14.1279221   7.8831873  30.0664558  13.5304060   8.1610746  30.7607059
  14.8105669   8.5540829  30.0552158  70.4046707  25.7679577  12.7570820
  71.0580368  25.0866871  12.5982685  70.6684647  26.1638336  13.5877008
  51.4383736  56.9362183  52.5059090  51.3634491  56.2252922  53.1424675
  50.8219376  56.7023277  51.8119812  37.4670105  64.7873459  63.5105820
  37.9262428  64.4898529  62.7251930  37.8848610  65.6196976  63.7315331
  60.7711105  55.5534706  16.3061008  60.8157387  54.8760948  15.6312656
  60.2822685  56.2674522  15.8968344  14.7726679  21.1282330  78.2284698
  13.9058104  20.7334347  78.3229446  14.9282608  21.1413231  77.2840958
  44.1449203   3.0195818  69.9457245  43.7858696   3.1798441  70.8184357
  44.6015091   3.8305600  69.7219467  59.2860718  33.5909195  81.3035507
  58.7607765  33.9669876  82.0098572  59.8179092  34.3206558  80.9859619
  74.8458862  26.7343044  65.4071579  75.2667389  26.2323189  64.7092133
  73.9601288  26.8983879  65.0835114  85.7128906  48.4429092   5.5947709
  85.0727768  49.0654716   5.2499514  85.6487122  48.5351639   6.5453506
  58.0777969  21.9460373  14.1880388  58.9282837  21.5299301  14.3286171
  58.2857323  22.7789803  13.7647142  53.0207520  40.5244560  34.6746178
  52.6143684  40.2249680  33.8613548  52.3328705  41.0216637  35.1171494
  36.7864456  10.2028713   2.6667914  37.6624298  10.5563183   2.5120206
  36.3690681  10.8416996   3.2446575  67.2031860  63.2373657  74.3564529
  67.1340561  63.4068947  73.4169235  66.5059814  62.6071663  74.5380554
  84.5708389  70.8422318  68.7914963  85.0361252  71.6197891  69.0999680
  84.2610626  71.0795059  67.9174423  23.6107063  50.8099632  72.0329819
  23.7869415  51.6882362  72.3703384  22.8641434  50.5014801  72.5465088
  27.0217400  62.0409851  52.8844070  27.2310123  62.9721413  52.9578285
  27.1140175  61.8475952  51.9514999  65.8482895  12.5631170  64.7370682
  66.1689148  12.0234880  65.4597244  64.9944153  12.1892405  64.5194778
  28.8382854  38.1573753  83.2824707  27.8930931  38.1083107  83.1395111
  28.9463940  38.0097961  84.2220230  28.7096138  53.3389854  55.9051437
  29.3331642  53.5241814  55.2029190  29.2563992  53.1116104  56.6571808
  52.7701912   7.5935311  74.4524307  52.5468979   7.0556412  73.6927948
  52.5761833   8.4894447  74.1768799  11.2089710   1.8614675  45.8260422
  11.2651949   1.8125933  46.7803383  10.7553940   1.0579480  45.5713730
  80.0792007  37.4370918  49.4133759  79.7037430  37.2480850  48.5534134
  80.9556808  37.7718277  49.2237320  22.5637932  49.7626991  60.9542923
  23.4597969  49.9752769  60.6931038  22.2318153  50.5688934  61.3493538
  79.4438171  63.2124748  71.5318527  79.2658997  64.1144104  71.7984695
  80.2066269  63.2785721  70.9574127  35.5321884  47.4337921   6.8513627
  35.1072388  47.9615173   7.5274992  35.9980431  46.7527924   7.3365936
  39.0802574  43.7373466  66.8522568  39.8431435  43.2630959  66.5216064
  38.3684998  43.4862747  66.2635269  55.8149147  61.5713654  23.2631149
  55.2230339  61.9717789  22.6262646  56.3085327  62.3065338  23.6265717
  60.1181221  31.4376431  29.0934124  59.8592682  31.6293144  28.1920319
  60.5996170  30.6124973  29.0340214  81.1056213   7.4431629  74.7585373
  81.6622849   7.9546452  75.3456879  80.5830841   8.0969048  74.2939835
  59.4747009   6.6951742  79.5055771  58.5279999   6.8292246  79.4606781
  59.7794380   7.3481069  80.1356964  59.7352524  11.7492867  15.0972357
  60.2950668  12.5123510  15.2406597  60.2590141  11.0076237  15.4002886
  64.4806519  52.8148994  25.9488869  64.2525177  53.1838608  25.0956249
  64.4589081  53.5622597  26.5465584  18.6505718  63.1648827  40.7800865
  18.2521610  63.9768448  40.4666901  19.2833252  63.4478111  41.4402428
  36.3728142  55.2836342  14.3178806  36.7740250  55.6786766  13.5437975
  35.5860176  55.8062553  14.4729605  37.9228554   1.9586957  83.1678696
  37.2931747   1.2453951  83.2724304  37.4438019   2.6322281  82.6850739
  58.8513260  19.9913521  48.8222656  58.1666641  19.8332462  48.1722870
  58.6819687  19.3474827  49.5100021   9.3121452  32.3989563  83.1032639
   8.7682371  33.0511131  83.5449524   9.5794497  31.7988548  83.7994308
  13.4138861  57.1285362   3.8963070  13.6905289  56.7331924   3.0696247
  14.2276707  57.2612686   4.3824840  49.2503128  38.4513092  32.0857124
  50.1374435  38.8027039  32.1615753  48.8833733  38.5352478  32.9657898
  36.2056999   3.1308625  38.1119728  35.9198189   3.4805140  37.2680244
  35.3979683   2.8454826  38.5390053  29.5784359  53.6717567  31.8600311
  29.2518749  53.6318474  32.7589188  29.9989643  54.5292320  31.7958279
  25.4637909  48.6741409  49.0310707  25.2053757  48.8271255  48.1221962
  26.4102364  48.8170433  49.0382729  35.6172791  61.5015640  45.2291641
  35.7216377  61.4674759  44.2782822  34.9989090  60.7983780  45.4276085
   1.4502174  62.5691147  14.2932739   2.2425535  62.8949928  13.8663807
   0.7319818  62.9517326  13.7893171  15.8877525  67.4430542  50.4364700
  15.6837053  68.1503906  49.8246918  16.5981312  66.9593506  50.0150185
  61.1139336  64.7548676  75.9781876  61.0066566  64.6372910  75.0343170
  60.2273331  64.6801529  76.3311539  46.1237488  10.2482252  15.9157820
  46.8149185   9.5890999  15.8519754  45.8522682  10.3990211  15.0103588
  41.8942871   2.1369367  27.7766037  41.2348518   2.8091271  27.9484673
  42.7133179   2.6233625  27.6827202  77.3695221  21.0036678  50.2656174
  76.5981979  20.8876724  50.8204498  78.0923996  21.1212883  50.8819389
  79.5673828  65.9649277  79.4612579  79.6489563  65.8270493  78.5175629
  80.4699707  65.9845657  79.7793503  52.3098412  41.0131912  68.1084518
  52.0549850  40.0905952  68.1183624  53.2481422  41.0045204  68.2975235
  12.6144695  55.5520668  -0.1735449  12.6575117  54.6099892  -0.0096306
  13.3441257  55.9159966   0.3278404  55.2710342  55.5668182  15.0070143
  55.0643578  56.4929733  15.1325054  54.7317581  55.1113358  15.6535044
  61.0437126  59.3119659  76.0792923  61.2083626  60.0671806  75.5146866
  60.6709633  58.6523399  75.4943237  85.2888489  34.5949478  30.2514153
  85.9820786  33.9412842  30.1598206  84.7658310  34.2872696  30.9916973
  18.1650429  26.6496525  75.8860703  17.4482059  26.2778950  76.4000473
  18.1771946  26.1308765  75.0817337  51.9984512  13.3472099  73.0737915
  51.7406120  13.3224630  73.9952774  51.7416000  14.2200890  72.7765732
  82.6654129  33.7216530  63.5375557  83.3304749  33.1113243  63.8560219
  81.8418350  33.2399254  63.6143456  56.3688965  16.7153015  30.2683125
  57.0249786  16.5445900  30.9440689  56.6474533  17.5382080  29.8664875
   1.8791517  23.5799618   8.6111403   1.1083909  24.0821304   8.3465891
   1.9353052  22.8716927   7.9697108  66.7459259  44.4933014   3.7438948
  66.6388550  43.7943115   4.3890171  66.5860672  44.0681419   2.9013290
  78.3716812  18.3093567  22.7892704  78.7456970  18.9324303  23.4122658
  78.9558487  17.5520706  22.8279457  72.8351822  70.1837997  60.1266060
  73.4321136  69.7015991  60.6987801  73.3021088  70.9938049  59.9214134
  66.8385162  38.1267319  32.0457306  67.3175812  38.5685349  32.7468300
  65.9706192  37.9631805  32.4148293  15.8427401  70.7038498  19.1394672
  14.9905777  71.1181412  19.0037689  15.6444674  69.8999557  19.6197453
  86.0951385  57.9814682  87.0570450  86.5697403  58.2672577  87.8376312
  86.6275253  58.2936249  86.3253708  73.4914627  70.7128143  88.8952179
  74.4146500  70.9249573  88.7575455  73.4239731  69.7835159  88.6759415
  12.4824829  47.4775391  20.5265789  12.6558895  46.5365677  20.5537682
  12.2776346  47.7096024  21.4323463   2.0040479  11.8654375  37.3095207
   1.0581206  12.0007076  37.2533493   2.2810130  12.4125729  38.0444794
  57.5153046  44.8976898  73.0729752  57.1531639  44.1104012  73.4794998
  56.9125633  45.0960999  72.3563385  52.4804878   4.2992272  79.3985214
  53.2313690   4.4493966  79.9728546  52.8453255   4.3306866  78.5141296
  20.0390205  21.8208580   9.0854921  19.9045238  21.0399380   8.5485497
  19.5793934  22.5166836   8.6155996  33.4036217  32.3840828  86.8017197
  32.9987411  32.9119568  86.1134949  32.9349709  32.6301231  87.5992508
  70.5121231  70.3123627  71.9569550  71.0719299  70.8734589  72.4936218
  70.9745255  70.2411499  71.1218796  73.8078918   1.7679164  62.2087708
  73.6858978   1.6726899  61.2641640  74.6181259   1.2933676  62.3946724
  83.3671188   5.3175611  69.2127380  82.7043152   4.6787057  69.4749985
  82.9430466   5.8355241  68.5285568  72.6465302  36.4602242  54.1910820
  73.4093246  36.9109917  54.5532837  72.9840622  35.6122246  53.9026299
  74.8642120   6.6959071   0.4436745  75.0559540   5.8923984  -0.0398971
  74.0933762   7.0595064   0.0079695   2.3516986  37.7114716  51.8745461
   1.8911048  38.4631195  52.2475204   1.7233397  36.9918556  51.9341164
  78.7916565  66.6824570  62.0651627  78.3230515  67.4117508  62.4710884
  78.8467865  66.9188766  61.1392593  18.9551678  21.1649780  85.3853912
  18.0237350  21.3855190  85.3802490  19.1777000  21.0437584  84.4623489
  27.2428303  52.4924355  52.5217209  27.0605469  51.9659653  53.3000717
  26.9440575  53.3721161  52.7522163  31.9694366  29.3625813   7.2783237
  31.1109715  29.3478966   6.8551736  31.7839813  29.1943665   8.2021971
  58.1394920  13.3654671  32.1774712  57.2170334  13.3359871  32.4313126
  58.2331047  14.1960287  31.7109547  74.0158386   5.5884933  60.4394875
  73.9184723   5.0881338  61.2496681  74.8780060   5.3395934  60.1064072
  28.1192093  16.0684586  11.0460787  28.7802315  16.4509411  11.6231308
  27.2841301  16.3587303  11.4129801  47.1171761  43.3581009  58.5206833
  46.6619339  42.6768684  58.0257950  46.4387321  43.7470245  59.0726662
  68.2171631  41.3313560  39.3308296  67.9985962  42.2252884  39.0674973
  68.6879959  41.4336548  40.1579247  43.1114388  20.3228569  13.6728449
  43.0485725  19.8882675  14.5233812  42.2685356  20.7637501  13.5662718
   6.9450617  61.9559975   5.4322476   7.8572640  61.6674156   5.4032574
   6.9716392  62.8645897   5.1322718  64.3795624  56.0320473  31.6051483
  63.5968018  56.5389214  31.3892822  64.3140945  55.2470512  31.0613403
  75.1764069  57.6448097  26.3061066  75.1948090  58.3168335  25.6247292
  76.0769119  57.3232269  26.3497295  24.9135399  13.0616016  60.9443512
  24.2553253  12.4713287  61.3111801  25.7263355  12.5564604  60.9649658
   3.7782934  67.2280960  76.1104965   4.1503983  68.1098022  76.1293564
   2.8345416  67.3645782  76.1937714  66.8169250  50.5764465  41.3651237
  66.6963272  51.2039299  42.0778313  66.3636169  49.7872353  41.6615791
  38.9249420  69.6413803  84.7540665  37.9883461  69.6191254  84.9503479
  39.0841446  68.8403244  84.2548828  53.4185562  62.8650551  73.7641525
  53.1920433  62.6108093  72.8695679  54.1851120  63.4298134  73.6658249
   3.2303066  66.6320724  37.4789543   2.8179324  66.7757950  36.6271782
   3.0845354  65.7039337  37.6620789   1.9473398  67.4494400  39.6675873
   2.2613103  67.3829651  38.7657928   2.7329943  67.3403702  40.2033882
  49.2814865  12.6459217   8.9795322  49.8796158  13.3664494   8.7812634
  49.3856659  12.0394897   8.2463074   7.0661664   7.8183670  61.7818375
   6.8898120   7.1356649  62.4291763   6.3649840   7.7239814  61.1371155
  11.4886103   4.2335029  45.0493736  11.7245789   3.3291609  45.2560539
  12.1465521   4.5132289  44.4128990  79.0923843  26.7948818  78.2385941
  78.3427124  26.7692699  78.8332062  79.0653534  27.6721973  77.8567352
  47.7588806  60.4591637  36.0726089  47.3114433  61.1519394  36.5585022
  47.4590988  60.5676346  35.1700630   0.0597292  56.0647621  25.0636806
  -0.3679544  55.2153320  25.1722317   0.8816558  55.9826355  25.5473366
  65.6841125  20.5792274  27.6581421  65.2176743  20.7405720  28.4782848
  66.3371735  21.2775669  27.6126366  33.7359734  10.2645168  18.2555561
  34.0277939   9.3983269  17.9713249  33.2914429  10.6303616  17.4908466
  54.3975792  40.6001549   3.5366771  53.5305901  40.9519501   3.7386715
  54.4694099  39.8143654   4.0785279  74.2322540   9.5776243  35.2258415
  74.3276138   9.8899860  36.1256027  74.0371552  10.3653536  34.7182503
  13.3903236   4.4328084  71.7435074  12.6932182   4.3581910  71.0918121
  13.1749763   5.2255278  72.2348862  29.4884052  47.7005463  60.0586166
  29.3319550  48.4387207  59.4696732  29.1516285  47.9940186  60.9051895
  17.4343262  65.4180374  65.8519669  16.8150654  65.8175583  66.4628067
  16.9594612  64.6738281  65.4819870  46.9329567  31.9628468  62.7338219
  46.1850052  31.4651432  63.0641098  47.5047836  32.0686874  63.4941139
  21.9896793  48.9532356   7.6499953  21.9911880  49.8432159   8.0023670
  21.4789982  49.0160751   6.8428473  77.2436295  65.6637497   9.1980047
  77.2516022  66.1523895   8.3749666  77.0782013  66.3265686   9.8684788
  16.6892948  15.8751698   0.6153659  16.5867519  16.7888184   0.8817531
  17.4363937  15.5598145   1.1239209  66.6038589  40.7073135  57.4657211
  66.3148880  41.0126038  58.3256760  65.9996033  41.1209106  56.8492470
  41.4391785  23.0312386  82.4284897  40.9140625  23.2427330  81.6566391
  40.8031502  22.7218132  83.0734406  46.5015602   7.7206292  77.8560867
  46.9652214   7.9845233  77.0613480  45.7350578   8.2931013  77.8874664
  79.1710358   8.0307484  65.5210571  79.6551819   8.7519970  65.1190186
  78.5020752   8.4594688  66.0548401  41.8333092   7.2656269  73.0594482
  41.2811890   7.5077691  73.8029251  41.3152084   6.6222229  72.5758820
  68.2654800  48.9549255  22.6362381  67.9415741  49.0070152  21.7370129
  67.6785126  49.5227585  23.1355095  62.4934196  41.3979416  77.2352982
  63.3136330  41.8624763  77.4017105  61.8767357  41.7667351  77.8676910
  65.2239914  46.2316933  34.2865791  65.5374527  47.0266457  33.8552780
  64.9593811  45.6576500  33.5677681  28.2748928  41.2360725  66.1981430
  27.4266319  40.8191681  66.3493881  28.6341801  40.7790642  65.4376907
  62.9030380  38.6588211  35.0865631  62.3640099  39.3079338  34.6345291
  62.5053711  38.5791969  35.9535980  77.5279083  33.9175301  42.9595757
  78.4151382  33.9033356  43.3185387  77.5094604  33.1900635  42.3377342
  64.6023865  29.0607510  33.5738564  64.1843338  28.3508701  34.0612335
  64.4192810  28.8612137  32.6557655  77.5730209  29.4884834  22.5443439
  77.4886093  30.3976021  22.2569256  77.4845963  29.5291443  23.4965839
  11.3122520   0.6722118  15.2738237  10.7845497   0.8798294  16.0449657
  10.6924162   0.6997870  14.5449381   8.1763754  58.0543633  43.9883003
   8.9299049  57.4941864  44.1743851   8.0089912  58.5121307  44.8121071
  43.3886185  62.3232803  85.3449936  43.3422585  62.8929672  86.1128159
  44.2860680  61.9904099  85.3475723  31.0570946  51.4199753  60.3204269
  31.7709961  51.6888428  60.8986015  31.2216301  50.4921494  60.1522102
  25.4806461  32.7883987   7.0635934  25.7106476  31.8776264   7.2475057
  26.1168594  33.3014030   7.5618787  66.9673462  21.1889000  39.3303299
  66.2048721  20.6179161  39.2363129  67.0286026  21.6466675  38.4919205
  67.5227127  24.4628181  44.4026985  68.3407974  24.4184875  43.9077225
  67.4314270  23.5935192  44.7928505  19.4354172  19.4678116  60.3619690
  19.2660999  19.1643887  61.2538757  19.7622299  18.6936512  59.9035988
  52.1543503  70.0254974   2.9744444  52.7007523  69.2770996   3.2143719
  51.2823906  69.6531143   2.8431003  28.4090710  50.6207199  59.6530914
  27.9741440  51.0169411  58.8980560  29.2697620  51.0386963  59.6802864
  40.7247772  48.3281097  85.3788223  39.7780571  48.4660873  85.3486023
  40.8270035  47.3773537  85.4217758  61.2392502  59.4047279  21.2431736
  60.3936501  59.8401413  21.1354256  61.0740929  58.7170677  21.8882160
  80.6063766  33.1806679  89.0308304  81.1520996  33.7523766  88.4908600
  81.1529388  32.9739876  89.7889709  52.2877655  40.3633957  86.3804474
  52.1740303  40.9648743  87.1163330  52.8277664  40.8480988  85.7561874
   4.1641426  62.1871414  72.3688202   4.0893111  61.3742332  71.8690109
   3.4827473  62.7540474  72.0074997  16.1063251  63.3688087  64.7568283
  15.5899897  63.7964325  64.0736237  16.3631573  62.5302048  64.3734055
  20.7772789  60.1215248  54.4288559  21.5177517  59.5278473  54.3044281
  20.5700417  60.0538673  55.3608971  80.6533279  71.5456314  75.2916870
  80.1419449  70.7585602  75.4794235  80.1814117  72.2496414  75.7365494
  40.7023277  50.0064735  87.5312347  39.7974396  49.9374504  87.8356171
  40.7249756  49.4870262  86.7275620  76.1516266  43.1035042  68.4037552
  76.2013550  42.1785011  68.1626511  75.2708054  43.2104034  68.7628555
  68.8448105  43.0784416  73.5509338  68.7469482  43.6484108  72.7881851
  68.1490326  43.3548775  74.1473389  55.2912292  48.5525169  11.8544712
  54.9808311  49.0631065  12.6022568  54.5702744  47.9547005  11.6568155
  73.9333725  37.0375710  20.4185638  74.0460968  37.6426811  21.1516171
  74.8174591  36.7231560  20.2294140  44.7120056  38.1188545  12.9472256
  45.0621643  38.9672890  12.6755972  44.6503296  38.1792946  13.9005222
  52.6624107  70.4419708  54.6465759  53.5737915  70.4691467  54.9379120
  52.1527252  70.4171295  55.4564133  58.2164612   4.7196879  62.1832199
  58.2829704   4.3758082  63.0740395  59.0436516   4.4736800  61.7691345
  63.7144623  31.8997726  25.9514866  63.0684853  31.3429432  25.5168781
  63.2839012  32.7512321  26.0280590  40.4586105  67.6351547  47.8248291
  40.1766930  67.7650299  48.7303047  41.3961563  67.8278122  47.8359032
  36.6339569  18.2823639  11.4216585  36.2633743  19.1620770  11.4923897
  36.0781708  17.7424450  11.9836416   6.3758836   3.0642469  57.8742599
   6.7570305   2.4318590  57.2651253   6.8836751   3.8641222  57.7379532
  15.7990189  64.1834641  31.0825100  15.3937454  63.4765930  31.5848217
  16.6668110  63.8491516  30.8557873  59.6386490  48.5409698   2.0058322
  59.3694954  47.6533546   1.7693443  58.9198608  49.0972176   1.7055629
  67.5297775  60.4249153  82.3977127  67.9257278  61.2257385  82.7414246
  67.1766510  60.6791534  81.5451355  87.0032196  47.2254639  46.7175255
  87.0677567  46.2704620  46.7236404  86.1114120  47.4033508  46.4187622
  69.6509781  28.8407021  42.4649582  69.4094391  29.7667770  42.4815292
  70.0588913  28.6842937  43.3166504  77.5805740  54.9816818   6.3292909
  77.9601669  55.6183929   6.9348855  76.8007278  54.6578217   6.7800407
  66.7942505  60.1860809  56.2687607  67.1163254  61.0813332  56.1637917
  67.5689087  59.6800423  56.5138435  13.0213261  55.6200867  17.0970383
  13.5217342  55.9858437  16.3676243  12.8950214  56.3572998  17.6943626
  67.0168839  28.5159187  75.7813721  67.3561859  28.9842682  76.5440979
  66.7530518  29.2069492  75.1738358  57.4060097  20.9254932  24.4678459
  57.0218010  20.0498886  24.4238892  56.6690178  21.5181313  24.3200073
  34.4972801  65.7420959  60.2413216  34.5969925  66.0879974  61.1282501
  33.6698380  65.2613907  60.2633324  68.5426254  41.0140457  81.8878937
  68.6348419  40.1018181  81.6129913  68.1799088  41.4594421  81.1221924
  47.7397537  21.1548176  39.1804352  47.5718117  22.0771446  38.9871941
  46.8697205  20.7599030  39.2380486  50.8994942  39.2901993  37.1880455
  51.6146049  38.7015991  37.4296989  50.5520973  38.9237785  36.3748550
  32.4181213  13.5980453  72.0852432  32.8810501  12.9718008  71.5286942
  33.0727768  14.2654591  72.2907181  43.4909477  21.1664448  41.0640411
  43.2561035  20.6075993  41.8048325  43.9892616  20.5940399  40.4807167
   8.5892668  59.5097961  27.7457199   8.5891685  59.3884430  28.6951962
   7.7400527  59.1721420  27.4610157  55.1940308   8.2596283   3.9033830
  56.0526047   8.6180439   3.6783841  54.9377098   7.7510381   3.1340549
   2.4400826  58.1432457  81.7149506   2.0956368  58.8099937  81.1207809
   1.7341077  57.9954643  82.3442307  66.5860138  43.3046913  16.9427509
  66.4179230  42.4512024  16.5433350  66.4534988  43.1609001  17.8797646
  85.3572464   3.5703354  84.1961212  84.5572357   3.4000309  84.6933289
  86.0319519   3.0623538  84.6466293  45.9408150  70.6366730  61.3425598
  45.8144913  71.4830856  61.7713547  46.5275192  70.8245239  60.6099434
   3.6675448  41.7149773  13.9131432   3.9567764  41.5072937  13.0246353
   3.5463672  40.8623734  14.3310146  33.3916359  60.1958122  26.1541290
  33.1969490  59.8638611  25.2776947  34.3027077  59.9458160  26.3080177
  48.3105392  17.6948261  40.6868057  47.7391510  18.1116867  41.3317680
  48.4198685  16.7993984  41.0069466  16.4622002  69.2095490  32.9360237
  16.6131172  68.4561462  32.3651962  15.8971672  68.8735199  33.6317673
  84.0412064  31.1423302  71.2652893  84.4488678  30.3633041  71.6436539
  84.6000290  31.8662853  71.5478363  60.4318047  35.9622841  85.3746490
  59.6605453  35.8897018  84.8124008  60.1315155  35.6632576  86.2329330
  77.4251480  64.7331161  11.9340591  76.7220840  64.5380707  11.3144722
  77.0636368  64.4974976  12.7884741  14.1075411  44.1636696  51.7073898
  14.9448900  44.2018089  52.1695862  14.2933226  44.5334663  50.8442726
  19.3253040  37.7869415  20.6208286  19.0890636  37.1144562  21.2597237
  18.4867535  38.1404686  20.3240395  74.3242264  10.7608118  37.6888542
  74.6246414  11.0283575  38.5574188  74.5983353  11.4727964  37.1107788
  41.0689011  70.3302078  86.7863312  40.4533195  71.0441437  86.6202469
  40.8189850  69.6484909  86.1625977  62.0967216  60.2290001  57.7452621
  62.9249115  60.4721260  58.1590538  62.0384827  59.2810707  57.8647385
  48.0392418  36.3071518  48.8064041  48.8699570  35.8360443  48.7416115
  47.5703583  36.0773392  48.0041809  50.0282822  11.0452623   1.0111107
  49.4249344  11.4494610   1.6346725  50.4560585  10.3485670   1.5089602
  10.3953781  20.0841122  74.1139908  11.1151981  20.6675663  74.3541336
  10.6247463  19.7678738  73.2401352  56.3854599  23.8681278   5.6233172
  56.6619530  24.3402348   6.4087453  56.1893959  22.9835796   5.9321303
  60.8951111   9.8770790  31.3117886  60.4104118   9.3027534  30.7189579
  61.3167191  10.5149031  30.7358894  69.4035339  30.4282856  22.9325581
  69.5877762  31.2797642  23.3291302  68.8893661  30.6339226  22.1518040
  67.2487259  60.6180611  17.4241314  66.3790665  60.8958817  17.7117634
  67.1107178  60.2748680  16.5412922  41.1615448  67.9406357  75.3401566
  41.7200623  68.6859818  75.5609589  41.3444214  67.7697067  74.4162674
  82.1610260  35.5853424  39.6225128  83.0775604  35.4774704  39.8765907
  82.1035995  36.4885406  39.3107948  52.7270279  22.8480339  64.4724731
  53.4350471  22.5251141  63.9151001  51.9262161  22.5793228  64.0222244
  85.1815491  45.5121956  48.4759941  85.4185181  46.1464500  49.1526031
  85.8707047  44.8491821  48.5172997  17.0553036  69.7358246  65.6396408
  17.6121178  69.5560455  66.3971863  17.4558258  70.4992905  65.2237930
  27.9102268  49.9048767  37.2638321  28.6415920  49.7936592  37.8712578
  27.2556324  49.2717667  37.5586357  23.5593967   8.4748869  88.5264511
  23.3026485   7.7243981  89.0622482  22.9853153   9.1838045  88.8164520
  64.5409088  67.8887024  66.8592911  65.0960236  68.6364975  67.0803757
  65.1531982  67.2150803  66.5633850  76.6573639  58.1577454  37.9880371
  77.2646942  58.3681374  37.2787361  76.0044632  58.8571358  37.9596710
  38.7387581  45.5415611  21.5990162  39.1884995  46.3796043  21.4911022
  37.8935509  45.6659889  21.1673031   9.9685316  26.5046177  79.4694519
   9.5258389  27.2554512  79.8650589  10.3233814  26.0168819  80.2126999
  55.5009995  62.2627144  35.7410011  55.6599350  61.5383911  35.1357498
  56.3654213  62.4744606  36.0933762  41.9319267  64.4997482  38.3139801
  41.6598778  65.2100220  37.7328377  42.0235176  64.9140625  39.1719894
  33.1413879   8.6057100  67.6124725  33.0754280   7.8281531  67.0581360
  34.0060844   8.9666481  67.4168777  66.1561050  52.4516525  46.2517548
  65.5010071  52.0399284  46.8152809  66.7427673  52.9043541  46.8576622
   5.7271442  26.7673187  31.0415230   6.4942241  26.6386375  30.4836140
   5.4654436  25.8826504  31.2966824  76.5503311  45.8702888  43.4416656
  75.9131088  46.4225922  43.8945885  76.7996979  45.2114487  44.0897255
  39.6126251  57.5294151  19.5261135  39.4697723  58.3875237  19.9254608
  38.8240776  57.0310745  19.7407761  82.9969025  12.4528904  68.7518539
  82.4478455  11.7140150  69.0142136  83.8211212  12.0524588  68.4751892
  15.1099062  68.1653137  64.7205353  15.9398947  68.5740128  64.9661331
  14.7419996  68.7497864  64.0577621  53.8546333   3.3265650  64.1933517
  53.3662949   3.1181128  64.9897842  54.6720009   2.8357041  64.2781906
  68.5599136  57.9447098  54.1521149  68.9779205  58.8025513  54.2270432
  68.2048340  57.9281082  53.2633629  12.8016710   9.6890011  27.8167534
  12.6978350  10.5443115  27.3997478  13.4155617   9.2199574  27.2516270
  59.0223122  57.3580132  18.9722633  58.2274437  57.8818245  19.0724640
  59.7102547  57.9987259  18.7921181  31.7351704  43.5870361  61.0316238
  32.4654083  43.0183487  61.2757072  31.5335445  44.0741692  61.8305473
  23.5100136  10.9210138  61.9247437  22.7645931  10.5373831  62.3867073
  24.2123184  10.2789640  62.0285263  74.2692566  41.4876251   3.0911632
  73.4455795  41.9359665   3.2829449  74.0994110  40.5711136   3.3088608
  76.6127167  32.7293282  59.3095093  76.1389771  33.2964668  59.9179077
  76.5264435  33.1634712  58.4608002  61.4709396   8.2883453  65.9519730
  60.5305481   8.1534605  66.0690231  61.5872040   8.3550224  65.0042038
   1.2036407  69.7090759   9.0327616   0.9194305  70.6106339   9.1832514
   1.2346466  69.6236115   8.0798893  20.2645569  22.2890453  80.7888870
  19.6376858  22.2709541  80.0657425  21.1160488  22.3967190  80.3650970
   0.9463843  51.7524567  24.7522545   1.5855590  51.0467682  24.8506947
   0.0982195  51.3263588  24.8759003   6.0408006  69.4310608  14.2593441
   5.1467228  69.7107925  14.0628548   5.9739637  68.4841309  14.3821650
  80.4902954  45.3285980   8.9190531  79.8342819  45.1257477   8.2521677
  80.0777817  45.9979134   9.4650249  21.1250534  40.0630302   2.1672409
  20.9496803  40.6238213   2.9228797  21.5872841  39.3080750   2.5314028
  81.6952744  38.7730827  23.1323833  81.6545639  38.6615219  24.0821896
  81.1059113  39.5053787  22.9517612  77.2181168   1.3144567  49.4397964
  77.7876053   1.7733986  48.8223114  77.1158371   1.9245811  50.1702194
  76.3633652  10.7318382  22.7318726  75.7097244  10.7513628  23.4308739
  76.3478470   9.8288813  22.4146042  19.4599705  20.9248505  14.4975834
  19.2658939  20.8748856  13.5615978  20.0810089  20.2129688  14.6517534
  48.3975067  63.7540817  84.5211105  47.6454620  63.4338264  85.0192032
  48.6976852  62.9927864  84.0245743  76.5370178  66.9875488   6.7720571
  75.9110107  66.2685013   6.6865358  77.2088623  66.7994156   6.1167188
  59.3768692   2.8101969  85.3070221  59.3020706   2.2661595  86.0910187
  59.7444038   3.6357801  85.6225510  74.4678497  52.0239143  21.1918869
  74.7308807  52.1789093  20.2846813  74.0312576  51.1722984  21.1725159
  47.9467239  16.7656078   9.6471586  47.8267899  15.8199368   9.5602484
  48.8785667  16.8722935   9.8382587  83.3471146  55.6512794  74.6620407
  84.2516937  55.6942139  74.3520126  83.4072876  55.8258324  75.6012650
  53.0288849  16.3736973   3.9733205  52.8878822  15.9378777   4.8138037
  52.6229477  15.7918558   3.3307426  20.0862331  66.9847488  37.7190475
  20.9663067  66.6091461  37.6940346  19.9573765  67.3514557  36.8443184
  56.6295853   7.9470143  35.8962898  56.8397293   7.4177461  36.6656685
  55.7562828   7.6544356  35.6355667   9.8832693  53.3112068  65.8718719
  10.7120857  53.0675583  65.4596405   9.2660151  53.3840752  65.1439133
  71.9757538   8.8630142  27.9348297  72.0847397   8.8023386  28.8838673
  71.2718201   8.2460623  27.7346497  22.1852646  23.0655899  78.8266449
  22.4245930  23.9616070  78.5897751  22.6747017  22.5169601  78.2137070
  59.4876213  62.6735153  74.2281799  60.2523994  62.1045685  74.1407089
  58.9490738  62.4701271  73.4634399  79.6785355  32.4435158  75.8271027
  78.9988785  33.0845642  76.0353241  80.4893570  32.9518776  75.8075790
  55.2852859  57.2370377  87.7288742  55.0880127  57.4236488  88.6467514
  55.9713898  57.8637123  87.4991531  26.9919758  33.4391365   9.2222853
  26.5582600  33.8036270   9.9938221  27.0694675  32.5038376   9.4105520
  78.5371246  71.0849991  19.5059795  78.2563095  71.9201126  19.1318722
  78.1772690  70.4243393  18.9141483  73.2831345  54.2472191   5.8564630
  73.4045868  53.3021088   5.9472890  72.5819778  54.4589119   6.4727373
  73.3054810  30.1147232  47.7591515  73.9490509  30.5654297  48.3058815
  72.4777679  30.2185516  48.2285500  29.4417744  60.1785774  18.2173080
  28.8407211  60.5366554  18.8705654  29.5567570  59.2635536  18.4737148
  26.6771545   2.1854734  43.0900459  25.8231754   1.8431306  42.8259392
  27.0625496   1.4863464  43.6181755  72.2581558  12.8946180  88.6445236
  71.3158493  12.8897543  88.4764099  72.5668945  12.0558252  88.3019791
  68.2963486  61.1408920  68.8954849  68.7220535  61.6948624  69.5498047
  68.4417496  61.5953903  68.0657120  58.6706772  66.3606720   0.0376830
  58.8522758  65.5467300   0.5075238  59.5047340  66.5927124  -0.3706551
  35.4646606  41.9905396  76.0783844  36.2511940  41.9419937  75.5350342
  34.9062843  42.6291695  75.6349869  26.4987125   5.8869581  64.7278061
  25.9261284   6.6513996  64.7911224  26.9194527   5.9730515  63.8723526
  42.2020912   6.8837228  14.6776724  41.7916679   6.1343927  15.1092844
  42.6967697   7.3187418  15.3721380   7.1218657  59.2951317  87.7159348
   7.9410510  58.9232597  87.3890076   7.0710955  60.1591644  87.3071594
  21.4275455  55.2882004  24.6506042  21.7455711  56.1527481  24.9106960
  20.4920082  55.3064919  24.8522587  61.7168846  38.3638229  82.3066559
  62.1132011  38.6810837  83.1181412  61.1162491  39.0615616  82.0446854
  30.0142746  47.8104019  15.6875973  30.6424103  48.3268204  15.1826305
  29.2520561  47.7325401  15.1138430  56.0629654  40.1393890  64.0985107
  56.2732964  39.2492867  64.3808441  55.3658218  40.4202309  64.6912613
  30.6744938   9.8867388  36.9272308  31.1950893   9.6927481  37.7067032
  31.2673950   9.7176437  36.1950378  26.2197037  63.4279175  39.4070587
  27.0779743  63.4441414  39.8305473  25.7086964  62.8060875  39.9251595
   9.9388590  16.8694668   6.6636195   9.0560799  16.8331337   6.2953639
  10.2591686  15.9692192   6.6071539  46.1058044  13.0307703  60.7569008
  45.8213234  13.5987816  61.4729080  45.9763451  13.5569544  59.9678497
  32.8516960  40.1663208  71.7834778  33.5676346  39.9152985  72.3671341
  32.0596542  39.8837395  72.2406921  77.9196243  29.6446304  78.7752533
  77.1577530  29.0750179  78.8816605  77.9285126  30.1830654  79.5666046
  70.5087891  43.8479042   7.9644160  70.4949493  43.1887512   8.6583624
  69.5885849  43.9681015   7.7298603  17.8461189  49.0785675  69.9164352
  18.7635498  49.3511848  69.9315872  17.4144821  49.6551285  70.5469055
  82.1935730  59.0965805  74.3794937  82.9026184  58.4826736  74.1881561
  82.0802765  59.5919914  73.5683441  13.5801687  41.5722389  50.8984299
  13.7997274  42.4770622  51.1205177  12.9238605  41.3188095  51.5474777
  15.1579628  31.8831635  11.0883923  14.3084679  31.9222794  11.5277786
  15.5540810  31.0712223  11.4047394  76.8730850  17.7649384  63.4733582
  77.0612411  16.8284645  63.5353699  77.3048706  18.1470985  64.2373886
  41.7409782  69.0548096  18.3989925  41.3909988  68.5358582  19.1231747
  42.5740395  68.6351166  18.1842670   3.6253564   0.8377484   3.1505618
   3.0650446   1.6069034   3.2539206   3.9595218   0.9033247   2.2559865
  44.1640854   5.9094343   8.4565601  43.5565720   5.9578934   7.7184453
  43.7383003   5.3198318   9.0789003  22.9654140  51.8066711  16.6101437
  22.0353737  51.7809906  16.8350849  23.2686310  50.9084015  16.7420540
  42.2874260  39.1197433  88.0198135  42.5999374  38.5250816  88.7016830
  41.3356667  39.0185165  88.0315170  57.3466911  17.4121494  26.1449585
  57.9410286  16.8473110  25.6510410  56.8119812  17.8401318  25.4762688
  55.3936996  66.0056076  60.8086205  55.4857330  65.0528488  60.8123932
  55.3745651  66.2480545  61.7344093  32.9563675   9.7237148   4.9066796
  32.8595543   8.7853403   4.7444720  32.7561340   9.8278942   5.8368869
  26.9522133  57.4804001  67.2454147  27.1189461  58.1416893  67.9170761
  27.8155746  57.2870979  66.8800735  36.3848419  62.9664497  13.2459221
  35.5259781  63.1674271  13.6176672  36.5548172  63.6830368  12.6344957
   0.2002638  27.9747639   9.8876524   0.4391328  28.7357616  10.4168558
  -0.3816126  28.3251610   9.2132082  32.9083557  14.0067205  12.4575605
  33.5176582  13.4979639  11.9226313  32.9673462  14.8957682  12.1077814
  64.4159698  58.5665855  13.9421177  63.9134293  58.1098137  14.6166840
  64.6894531  59.3835793  14.3592072  40.7517509  36.0041618  69.8387146
  40.1084251  36.6203384  70.1889801  41.4426765  36.5591125  69.4769363
  62.6895180  58.8706818  39.3752327  63.6067772  59.0359116  39.5933266
  62.6161652  57.9165001  39.3554420  25.9130802   7.8627048  71.1711731
  26.4632206   7.0872412  71.2817764  26.0599041   8.3758430  71.9657516
  67.6463547  12.8946381  52.5680733  67.7219772  13.5646935  53.2474365
  67.8807678  13.3474026  51.7579575  55.6765442  45.3515244  80.4652863
  54.9767418  44.9042091  80.9411163  56.3957329  44.7201042  80.4476013
   8.6439409  20.4145279  34.1103592   9.4746571  20.0373116  33.8207893
   7.9976072  20.0734882  33.4921532  36.4242554  21.4562206   5.6068506
  36.7851181  21.7164822   6.4543610  35.8219185  20.7412491   5.8123703
  58.7723808  60.8588104  20.4285583  58.2905846  61.4964867  20.9553146
  59.3732185  61.3872223  19.9031944  10.8672104  49.8286476  39.4105721
  11.2591105  49.1658821  39.9792442  10.4300718  50.4318314  40.0116653
  48.6773415  61.7852974  65.0815353  49.0507927  61.4583588  64.2630768
  48.4571304  60.9961014  65.5764160   9.1014023  46.2454224  55.7488213
   8.5820475  45.5422096  56.1386795   9.9875183  45.8874016  55.6954231
  56.0417595  15.0072012  18.3562908  56.2398682  14.0928860  18.1537762
  56.8923607  15.4458866  18.3398705  19.8409386  57.3475227  82.8078156
  19.8442936  56.6417274  82.1612396  20.7082729  57.3073502  83.2107468
  36.6580963   3.1949155  62.8888016  36.9642258   2.4121835  62.4307137
  35.8673553   3.4550872  62.4162903  50.3958740  42.0890274  36.1319504
  50.3575172  41.2787590  36.6401062  49.8886261  42.7178917  36.6452408
  82.3528442  60.1383324   4.8646164  83.0658951  59.6874847   4.4123735
  82.7694702  60.5420799   5.6259565  71.0968246  46.1952972  23.0840015
  70.8929749  47.0881767  23.3622894  71.7602081  45.8961754  23.7058372
  23.0897217  65.5320740  15.1309671  22.6843529  65.6768570  14.2760143
  23.0573940  64.5833359  15.2537823  65.6820831  27.1716557   0.9408337
  64.8413010  27.5984020   1.1057575  65.5627060  26.2765484   1.2582700
  12.3957205  20.6923485  62.1705513  12.4475574  21.0016098  63.0749321
  11.5146284  20.3265038  62.0926590  55.5811920   9.3523474  64.9078598
  56.1494789   9.4600687  65.6705399  55.0234261   8.6063156  65.1282349
  46.2603455  70.6778564  15.4619570  45.6084709  71.3635025  15.3164072
  45.7613983  69.8617249  15.4271603  71.1407242   8.1716604  24.2120838
  70.3215256   8.1442871  23.7177200  71.3062592   7.2599230  24.4520111
  48.4188347  46.3078194  46.0718155  48.6100235  45.7392578  46.8177490
  47.5314369  46.0654716  45.8071976  47.6926270  49.8377876  85.9990082
  47.8735008  49.5402946  86.8906403  48.4114494  50.4362946  85.7957535
  56.2751617  48.9283409  74.1706924  55.6043015  48.3141441  74.4689178
  57.0721169  48.4016495  74.1099777  30.6911049  63.1685295  83.1622925
  29.8736534  62.6938400  83.3128662  30.6521854  63.9101105  83.7662506
  13.2962656  32.5620041   4.3656111  13.7649775  33.3547974   4.6264191
  12.5793705  32.8776474   3.8154628  33.3475304  18.0329113   1.5872035
  33.9520111  18.5843582   1.0904707  33.5268555  17.1441536   1.2803078
  41.9131622  66.0391006  30.2285576  41.9878540  66.5765686  31.0170937
  41.8830986  66.6708527  29.5100689  50.3643456  22.4531593   9.6475763
  50.0792122  23.1635094  10.2223225  49.6673203  22.3779297   8.9958658
   7.8772664  50.5534058  86.6635132   7.1501765  50.0245094  86.9918976
   7.4628301  51.3484116  86.3281937  34.0867233  45.3567963  70.4274216
  34.1878777  44.4500046  70.1380539  34.8520050  45.5189743  70.9790268
  42.2740364  29.5717049  62.3546104  42.2286224  29.0016785  63.1222305
  41.3609428  29.7791157  62.1559448   6.0677037  56.7323418  77.1386719
   5.4404769  57.3378067  76.7434158   5.5788469  55.9161873  77.2442551
  48.1478310  23.5885830   8.5323219  47.5108337  23.8471985   7.8662977
  47.7249794  22.8695107   9.0017509  77.0850296  48.0433273   1.8412193
  77.6229630  48.6913223   2.2961450  77.3306656  48.1321068   0.9203443
   7.3286085  53.1380692  53.4335556   6.6985898  53.7705917  53.7788391
   7.0709567  53.0179291  52.5195465  80.7617264  43.8395691  25.9629288
  81.4325104  43.3217278  26.4080276  79.9811935  43.7396736  26.5079327
  80.3467865  50.2179451  48.1265144  80.7497101  49.6420555  47.4767113
  80.0859680  49.6319084  48.8369789  49.5376663  45.3378830  14.3208284
  48.8516960  45.4156685  14.9838743  50.3330536  45.6344223  14.7631578
  33.4417725  51.5149040  61.7167206  33.3406906  50.6448479  62.1027412
  34.1037674  51.3990860  61.0351181  83.9869385   3.7185023  39.2673874
  84.2424469   3.1361706  38.5519562  83.4093552   3.1864123  39.8146667
  48.4311600  10.6484518  12.6659040  48.8569603   9.9762049  13.1978893
  48.3441315  11.3992004  13.2532997  32.1835442  48.4519997  35.6619759
  32.4594612  48.5047188  34.7469215  31.2282963  48.5023499  35.6273804
  74.4384003  56.0328979  19.3422470  74.9299088  56.4953423  20.0210724
  75.0554657  55.3874855  18.9974136  38.7171478   0.2786349  22.0599270
  38.9116707   0.2199882  21.1245384  37.8406334  -0.0962009  22.1462460
  34.7500572  63.8195229  66.9586105  35.1967888  64.6654282  66.9253540
  34.3855782  63.7064705  66.0807724  56.2751427  65.4396286  24.9489880
  57.0301476  65.8931274  25.3238659  56.5769424  64.5409241  24.8167763
  79.1453171   3.1212165   2.9925299  79.7544708   2.4909997   2.6078365
  79.7051849   3.7395871   3.4619939   9.3235054  12.1802235  56.6393127
   8.5012903  11.7580767  56.8882828   9.9466944  11.9064245  57.3122940
  29.0536003  19.5081959  75.4149780  30.0008831  19.3831921  75.4720688
  28.9145374  20.4142609  75.6905518  43.3168793   8.4365377   6.1804051
  43.1032867   7.5034728   6.1808372  43.1412010   8.7220459   5.2838264
  11.5790920  62.7934456  44.7024345  11.9980307  61.9993820  45.0343781
  10.9179363  62.4761810  44.0872536  60.7715874  13.2913198  69.4557877
  60.6202393  12.8273325  70.2792206  60.1100044  13.9830103  69.4455261
  34.0744705  34.3484535  27.0404205  34.4936600  34.9553375  27.6505108
  33.5758400  34.9109001  26.4477558  54.9956741  18.5537109   6.6690040
  55.7120094  18.1263866   6.1994414  55.1274757  18.3056545   7.5840602
  15.8200350  56.4206505  38.8383408  16.2568779  55.6508331  39.2027359
  15.5419149  56.9231186  39.6041145  67.8278198  61.1598663  61.1386986
  67.8183136  61.9130363  60.5480385  68.0742722  61.5250206  61.9884949
  27.1779270  26.1985703  68.1566238  27.4068756  25.9875488  67.2514801
  26.3980160  25.6731148  68.3351364   5.5479650  40.2571526  85.4935684
   4.6498060  39.9421768  85.3919144   5.8231244  39.9246674  86.3479462
  64.4329453   5.6915979   5.2882652  64.7792587   6.5776305   5.1822109
  64.0812683   5.6768484   6.1783981  64.0537720  46.1170235  50.4148102
  64.4555054  45.2490997  50.3754883  63.4788284  46.0804214  51.1792259
  29.9974899  16.5401897   4.8693056  29.2783051  16.2512817   4.3075800
  30.5941734  16.9986649   4.2776961  64.2496033  32.5088081  65.2501144
  64.2717285  32.7972221  66.1625671  63.3176384  32.4318123  65.0457993
  84.7023087  37.9808540  19.8362026  84.2734528  38.8355331  19.7933502
  84.5993347  37.7066269  20.7474804  41.9446983  26.3804512  84.4018631
  42.1258163  27.2786579  84.1250000  41.1020355  26.1709614  83.9990387
  19.7511120  32.2590981  20.5239944  20.3335705  31.8270130  19.8992729
  20.3392429  32.6378708  21.1773434  29.3558826  21.7601414  71.3310852
  30.1798439  21.3949127  71.6534653  29.0345707  22.3002567  72.0530777
  77.3731079  43.0255318  15.0742159  76.4384613  43.2320366  15.0780745
  77.5269699  42.5960045  15.9156828  62.0969048  27.2841244  40.0529404
  61.2060814  27.6320572  40.0929947  61.9857292  26.3710365  39.7881012
  29.5102291   1.4735254  52.1578255  29.7702179   0.7978951  51.5315971
  30.3311176   1.7532089  52.5629807  82.2210236  32.2124405  54.3474541
  82.2725143  31.2604465  54.2620850  82.0206223  32.3595314  55.2718124
   6.7809014  45.0306129  83.6971512   6.9952087  44.3484459  84.3335114
   6.6304574  45.8135605  84.2268600  39.1924744  33.2076416  39.0991096
  39.6357117  32.9366112  39.9030457  38.7760010  32.4092979  38.7744064
  65.8789368  22.9656181  12.2278652  65.6402817  22.1277122  11.8313913
  66.8235703  22.9032555  12.3692970  80.8416138  55.7047806  71.2742233
  80.5887985  56.5090942  71.7274246  80.5845184  55.0023766  71.8715210
  78.5949707  65.9417725  72.2852859  78.2070541  66.6709518  71.8014984
  78.4477997  66.1596985  73.2056580  23.2138996  33.8860474  78.3470154
  23.4927063  33.1868782  78.9383316  22.2593517  33.8932266  78.4178619
  84.3429031  13.4902725  31.0203609  84.8124542  12.6995687  30.7547779
  83.4180832  13.2498932  30.9641609  24.2028275   7.9899859  76.8875275
  24.9822235   7.4547567  77.0368729  24.4715862   8.8767195  77.1277466
  54.7329330  12.7802801  26.0415916  55.5517426  13.2442265  25.8668327
  54.4800758  13.0633812  26.9203110  78.8316269  19.5404606  13.4424400
  78.6795578  20.4851818  13.4670820  79.7407990  19.4368019  13.7233152
  29.4486542  36.0812759  65.3788986  29.6934681  35.5642052  66.1463242
  28.6510849  36.5396729  65.6434479  60.0872459  71.6031723   8.8132305
  60.1066971  70.7011948   8.4933920  59.8746681  71.5230408   9.7430811
  39.3206253  57.6454048   1.5767965  38.6271553  58.2350426   1.8728616
  38.9826546  57.2665482   0.7653323  83.2354813  35.8540039  73.2811050
  83.5633163  36.2054138  72.4532928  84.0241241  35.6492386  73.7834473
  10.6079512  61.4160843  30.3868885  10.7907925  60.7030830  29.7749805
  10.9370079  62.1997871  29.9467030  43.6748848  71.9385910  78.1465988
  43.2040367  71.2534027  78.6210022  44.4108276  71.4838333  77.7369461
  28.2794781  46.8218765  13.3150015  28.1998692  45.8761406  13.4394140
  28.6331310  46.9182014  12.4307594  68.4341125  68.1408081  52.1319389
  69.0837097  68.8238602  52.2983856  68.9410706  67.3292923  52.1062508
  70.3812943  65.3875732  71.2198792  69.9402390  66.1305771  70.8080063
  70.1531754  65.4574585  72.1468658   7.7918229  63.5291634  17.4861355
   8.5445480  63.1174507  17.9105511   7.5507183  64.2477798  18.0706787
  73.8981476  19.5456276  43.7643204  73.2079086  20.1653366  44.0004807
  74.5134964  19.5819950  44.4966125  12.1965208  25.7333717   8.6854353
  12.0237083  26.4340687   9.3142347  12.2827253  24.9456310   9.2223387
  64.9699249  59.6038895  58.0897789  65.1710663  60.2703209  58.7467766
  65.6092529  59.7535515  57.3932915  29.7033310   1.0842457  22.8868408
  29.4764786   0.9851539  21.9622059  30.6364994   1.2973520  22.8830032
  86.1506805  31.4354267  77.1988678  86.1827393  32.1857147  77.7923889
  85.2203140  31.2193298  77.1360245  17.5437870  58.1200600  15.0875120
  18.0366802  58.8551292  15.4521561  18.1848717  57.6369362  14.5661373
  71.5776749  48.6688461  19.4640923  72.1290817  49.0684967  18.7914371
  72.1781082  48.4809647  20.1854916  58.1066284  28.2679100  19.8450890
  58.8091812  28.1837845  19.2004356  58.5399551  28.6057377  20.6288815
  57.4557304  58.8582802  30.1303844  56.7060165  58.5501633  29.6212425
  57.8293571  59.5644417  29.6031532  55.1973953  57.9067612  11.1315441
  55.4292984  58.4819679  10.4024420  55.5946426  58.3198357  11.8982220
  80.9918365  52.6892128  49.6393509  80.9888000  52.0214577  48.9535484
  81.2907715  53.4843216  49.1981392   6.5501490  53.0929604  57.4976730
   6.8114247  53.1156540  58.4182434   6.8779287  52.2530136  57.1763039
   9.3497992  33.8489456  17.0581646   8.7813501  34.0676041  17.7966003
   9.6105289  34.6963806  16.6974697  49.9090996  17.0695629  31.0596466
  49.9928589  17.9894733  31.3106003  50.5151520  16.9652672  30.3261223
  58.8251495  59.4515152  10.3628225  57.9046555  59.3444824  10.6025486
  58.9356613  60.3958893  10.2524719  52.2659950  43.1674309  76.9481430
  52.6598167  43.8540611  76.4099274  51.9305954  43.6285553  77.7169724
  34.6656075  51.0068054  48.7658501  34.8379517  51.6124001  49.4868088
  35.4820595  50.5177650  48.6634712  22.1111908  67.1969376   2.7930341
  22.1677055  67.8837738   3.4573317  22.8280773  67.3888550   2.1884925
   7.4748230  13.9256325  87.8102493   7.0143580  13.1502781  87.4892731
   7.5057950  13.8097839  88.7599106  28.2259979  58.8574257   8.5014191
  28.1657066  57.9165497   8.6667919  27.3486061  59.1904411   8.6898832
   5.0772891  29.2849216  55.3853912   5.8931470  29.7800770  55.4590759
   4.4097462  29.9479942  55.2094536  83.3006668   3.8039346   8.2722225
  83.4092255   3.0772202   8.8856812  84.0223770   4.3989129   8.4756041
  22.4561958  20.4133415   5.1684451  23.0140247  19.8965969   4.5870390
  21.6677666  19.8818722   5.2786717  56.3443108  49.7071075  38.2648430
  56.7583084  49.2652206  37.5235100  56.8152122  49.3807220  39.0316238
   4.3931327  67.2115021  31.5887890   4.6682100  66.3042831  31.7211170
   5.2003117  67.6769943  31.3696651   9.0869122  55.9694748  36.6491241
  10.0177631  56.0464516  36.8584595   8.6418123  56.4175491  37.3683929
  24.9117069   2.7289872  70.9067078  24.1662312   2.9952745  71.4448471
  25.0599670   3.4700985  70.3193359   0.6464508  66.1938324  76.5693054
   0.6128035  67.1491013  76.6200027  -0.0828896  65.9585876  75.9957657
  21.8533955  64.5912933  86.1842957  22.1433792  65.4765396  85.9641342
  20.9928284  64.7138824  86.5850830  37.9638901  53.0966873   2.9182889
  37.5533447  52.3337631   2.5113175  37.3175316  53.7961578   2.8224003
  44.2727852   8.1649475  49.4013824  44.9282188   8.4366150  50.0439034
  43.5003815   8.6902514  49.6103859  50.9002037  44.4953728   6.7250624
  50.6386299  45.4149666   6.7714539  50.1441383  44.0140533   7.0611148
  78.5908585  15.2414703  27.0931416  78.4349976  16.1695023  26.9179420
  79.4059601  15.2260208  27.5947399  83.7388992  11.7048349  73.4129257
  82.8116684  11.5110064  73.5503922  83.7488022  12.3205299  72.6800842
  53.4950676  60.2855453   8.1819887  53.1457977  60.9283066   7.5646567
  52.8966217  60.3203964   8.9282331   7.7514930  31.4068508  10.2485533
   7.9875698  32.1502533   9.6937075   7.6157703  31.7887650  11.1157055
  48.1276321  41.3845634  49.0619278  48.1795235  41.7441254  48.1763458
  47.1892700  41.3096771  49.2354202   7.9003739  19.8864746  16.2686825
   8.1510105  18.9741726  16.4140034   8.0726709  20.0370579  15.3392363
  83.4611435  47.4150009  39.1634865  82.7564392  46.7988396  38.9635620
  83.4814606  47.4535904  40.1196938   6.3961530  25.1103458  18.5882893
   6.6019244  24.5179825  17.8651047   5.7500691  24.6351070  19.1107407
  79.0076065  71.2018585  61.0694351  78.5094376  70.4588776  60.7287941
  79.8801117  70.8471375  61.2401428  76.7714767  29.6642914  47.6582146
  77.6629791  29.8976536  47.9170532  76.2124329  30.2450485  48.1743736
  34.8234558  68.2439346   6.8679786  34.9707985  67.3865814   7.2673001
  35.3350868  68.2226028   6.0592694  29.1561260   5.2293572  22.5249767
  29.5658016   6.0835972  22.3883305  28.7115936   5.0419192  21.6982422
  52.4269829  19.0030651  36.0421715  51.7780952  18.3043213  35.9589272
  52.3169098  19.3268833  36.9361839  13.2474566  47.4787445  79.2113800
  13.2743311  46.7688675  78.5698318  13.8526907  47.2026176  79.8996201
  59.2622223  37.2502975  17.1399822  59.4565086  38.1489677  16.8737488
  58.4713478  37.0215187  16.6517086  53.6895027  51.5111885   2.6422331
  53.6915550  52.4328194   2.3837280  53.5413780  51.5279655   3.5877535
  67.1643372  45.7042542  44.2528915  67.1546936  45.4961853  45.1871529
  66.3563995  45.3192482  43.9134178  19.2544918   6.0184102   0.9321432
  19.7710934   6.3671441   1.6585993  19.2659225   6.7138882   0.2745634
  82.4117279  53.2748299  74.0781937  83.1436462  53.0008430  73.5255051
  82.7197037  54.0747070  74.5043106  81.9009247  23.8806171  57.2147408
  81.6931992  23.0875549  57.7088394  82.5922241  24.3051529  57.7227859
  52.4449005   3.7434764  12.9740324  52.0721550   4.6244440  12.9395580
  51.6877937   3.1669340  13.0770941  40.3087769  44.2486305  53.2412262
  40.6561394  43.6521530  52.5780602  40.7674446  45.0740814  53.0847359
  84.2638779  11.8304901  76.2438736  84.3997269  12.7220459  76.5646667
  84.0003128  11.9421539  75.3304825  67.0255432  49.2573586  85.6405334
  66.1471024  49.4581146  85.3176270  67.5936050  49.8870354  85.1966400
  83.5446091   2.6309483   1.0226586  83.3407669   2.2983215   1.8967516
  84.3489914   2.1752629   0.7745553  83.8522644  15.2293100  56.2176170
  84.2012558  14.4168577  55.8510666  83.0664520  15.4071236  55.7007828
  15.4288855  66.8365250   0.4299935  15.0882463  67.5546722  -0.1033629
  15.0211773  66.9604645   1.2871078  49.7994728  14.1501160  29.3512497
  50.6241341  14.3912697  29.7731590  49.7244148  13.2065811  29.4938698
   6.7843208  69.4654465  82.2057190   7.3362513  70.2299194  82.0408401
   6.5887394  69.1189880  81.3351212   4.0995731   2.2247767  54.0016823
   3.7497163   1.7048981  53.2781105   4.6449852   1.6120958  54.4950180
  61.7941971  44.0829659  21.2411823  60.8886414  44.3698807  21.3589973
  61.8817291  43.9476166  20.2976532  20.0752831  26.1448135  29.8016357
  20.0278950  26.5239372  30.6792736  19.6105080  26.7698784  29.2452984
  35.3496895   3.0929911  32.7419472  36.2522507   3.2424741  32.4604073
  34.8162384   3.5303757  32.0783539  64.0746613  11.5271482  14.9322929
  64.7831421  11.9714746  15.3979864  63.4501038  11.2889423  15.6174326
  33.0994225  59.0181961  73.3130417  34.0228500  59.1666069  73.5167389
  32.8165779  58.3608322  73.9487305  67.1671524  57.3120308  68.2678146
  67.3101425  56.3813324  68.4398193  66.2350464  57.4467659  68.4388733
  63.8657303  62.1819229  10.9223166  63.5659714  61.9241295  10.0505838
  63.4444962  61.5588531  11.5144148  30.1592083  62.5611572  13.8527279
  30.6018448  62.6721878  14.6941414  29.2267666  62.5824394  14.0679722
  53.8902588  10.4469728  67.7170639  54.2626381  11.2772284  68.0141220
  54.5043335  10.1328783  67.0533752  85.4178085   0.5990663   3.6801362
  84.4835434   0.3966766   3.7293956  85.5707779   1.2026325   4.4071431
  25.5715961  54.5021057  80.8291168  25.6149654  53.8561325  80.1240845
  25.5485249  55.3466148  80.3791046  49.2535629  23.8697453  71.3513565
  49.8738518  24.0440311  70.6434784  49.4906502  24.4944267  72.0367737
  26.5614376  46.4211960  30.4335728  25.7381058  46.8512840  30.2025280
  27.2364750  46.9558449  30.0155945  47.9716682  38.5933952  50.3129082
  48.1613541  39.2480850  49.6408730  47.8595924  37.7765541  49.8266602
  71.2054825   6.9093628  18.9729004  71.4176788   6.2098937  18.3548813
  71.7181168   6.7022562  19.7542744  54.0369453  62.0288696  45.8341331
  53.8146172  61.8697243  44.9168129  54.4782867  62.8782387  45.8297348
  20.3522320  64.8346634  32.7101669  19.9546967  64.6383209  33.5584869
  20.9690113  65.5434570  32.8930016  78.5988159   8.0471840  78.4258347
  78.5423660   8.1687908  79.3735962  79.1227112   7.2535114  78.3169785
   0.1524658  36.5714912  11.2843876   0.9261175  36.3907242  10.7505159
   0.3715779  36.2240639  12.1489782   2.7014852  50.8569298  15.7245474
   1.9081728  50.6633492  16.2239590   2.4614365  50.6789627  14.8151875
  70.1595001  13.1064720   1.2291456  71.1129913  13.0309811   1.1918317
  69.9149628  12.6553431   2.0371771  38.1020584  49.8483353  39.7052078
  38.4341774  49.5123100  40.5376816  38.5656853  50.6761971  39.5790062
  55.0700035  14.4493589  66.5101700  54.1373062  14.6458282  66.4223785
  55.4896698  15.3066826  66.5816269  59.1637001  33.4794960   9.2530003
  58.3383522  33.9210968   9.4530487  59.6855431  34.1412544   8.7991419
  25.0846901  64.0769196   9.5100908  25.5463676  64.2312164  10.3342743
  25.6487141  63.4710846   9.0293932  54.7160950  12.8413477  68.5170975
  54.6892548  13.3126163  67.6843872  53.8475075  12.9754543  68.8963165
  82.2367020  27.9196568  56.0122108  81.6248703  27.2162838  56.2293549
  83.0812302  27.6128521  56.3421860  31.0391960  12.1110106  69.9738693
  30.4260769  11.4621239  69.6285248  31.5957985  11.6177101  70.5764313
  14.6067266  61.7821884  29.2991428  15.0238857  61.6517868  30.1507339
  15.2611923  61.4901619  28.6646156  36.4967537  37.8333397  13.7307711
  36.3541069  36.8876190  13.6921682  37.0713425  38.0194054  12.9881668
  50.7566528   9.7573919  80.5805664  50.3660355  10.5486269  80.9515076
  50.3353615   9.6600103  79.7265930  30.8982239  69.8021545  72.8134003
  30.3082447  70.1214523  72.1306076  30.3175011  69.4281845  73.4760742
  23.2213688  71.3510895  64.0115967  22.5744896  71.9925079  63.7177238
  23.2219410  70.6810532  63.3280106  71.9387360  61.5652809  43.9235802
  71.9741745  61.6184998  42.9685173  71.7609406  62.4621048  44.2070045
  71.4986267   3.5482080  83.6737366  71.3587036   4.4918175  83.7528229
  71.5551300   3.3926384  82.7309570  37.5217476  26.6080627  13.5635662
  36.8526001  27.1788864  13.9412317  37.0593071  25.7927818  13.3694172
  23.1950455  52.9313812  51.7449760  23.5628777  52.1594734  52.1751976
  22.7593231  52.5863953  50.9656410  34.0043488   1.2129529  88.0919266
  33.1563606   1.1255250  88.5272522  34.3557777   2.0420890  88.4163742
  66.3771820  46.2497063   0.8365759  66.8325272  45.4930916   0.4672085
  66.8990021  46.4935265   1.6010941  52.2055893   0.7746373  83.3256836
  52.4767303   0.2421277  84.0734482  51.4617424   1.2821645  83.6502380
  21.6291161   6.8444648  77.4954910  22.5214691   7.0735760  77.2357941
  21.1760845   6.6725883  76.6699905  78.9375534  21.5766239  19.1460152
  78.6318207  20.6899033  18.9550114  78.4750595  21.8220348  19.9473286
  41.2554703  41.1815109  19.9893799  42.0013657  41.0435867  19.4055576
  40.5747795  40.6005821  19.6496544  15.7351961  33.3310699  81.6567307
  15.8450298  32.3803444  81.6735764  15.1708632  33.5202942  82.4063721
  42.4148941  28.5257511  65.0395966  43.2929382  28.8386612  65.2572250
  41.9322357  28.5735130  65.8648148  84.6018600  54.3388214  83.2137222
  84.9261932  53.5926208  82.7095184  85.0581970  54.2773857  84.0528946
  64.4925461   5.1221008  71.1975327  63.9150238   5.6315536  70.6290665
  64.3970032   5.5261526  72.0599976   8.8441000  48.6463699  14.7286253
   9.5073338  49.2764168  14.4468641   8.0306053  49.1501694  14.7539778
  44.1840019  22.7268143  75.2843933  44.1048584  23.4583683  75.8965988
  44.0387344  21.9480705  75.8216858  24.2952957  66.2965851  79.5756073
  24.3093052  67.2523880  79.6254349  24.8426437  66.0105743  80.3069305
  70.4776459   1.4968705  59.2903976  70.4545135   0.7030863  58.7559776
  69.5642242   1.6491989  59.5326691  85.7434540  10.3157349  17.1824055
  85.1734009   9.6831465  17.6195564  85.3519211  10.4328260  16.3168297
  32.0480347  28.9729214  78.3319702  31.2936096  29.5389366  78.1685562
  31.6794014  28.0909672  78.3819504  38.8401108  58.1387596  55.5224228
  38.6096001  58.9697609  55.1070557  38.2398148  58.0673103  56.2645645
  16.4649696   8.4922361  57.9159431  16.6825180   9.3934164  57.6776619
  16.1918030   8.0862551  57.0932693  77.0882874   1.1557505  37.2492447
  76.5577011   1.1558330  36.4525528  76.8793030   1.9865354  37.6762733
  77.4426804  51.6836929  77.1381149  77.3465042  51.6442413  76.1865768
  78.1418304  52.3214493  77.2819443  60.8772850  21.8630810  49.0552826
  60.1883545  21.1992168  49.0254593  61.6279945  21.4484692  48.6301193
  24.4869919  49.0717087  46.2598572  23.6617184  49.3078156  46.6834221
  24.7984505  49.8885918  45.8700829  39.4535675  34.8954430  65.2261658
  39.4189186  34.4151917  66.0534439  38.9932785  34.3330002  64.6032486
  10.7686148   0.5655403  73.1472549  11.2278948   0.9970503  73.8677368
  11.4353466   0.0189486  72.7313995  78.2285919  14.3098249  54.4134903
  78.8830872  14.9584379  54.6726494  78.7394638  13.5841894  54.0547523
  83.8788834  12.3891163  21.3578606  84.1639023  12.2822008  22.2653656
  84.6680984  12.2335587  20.8390427  55.6779175   0.4185812  45.7487183
  56.5452766   0.5881761  46.1163483  55.1730347   1.2056799  45.9531746
   6.5423031  23.1168537  16.7777004   6.0161819  22.3276386  16.9064274
   6.7398353  23.1229019  15.8411245   8.6420135  53.0829086  11.4304695
   7.9499311  52.7109833  11.9772120   8.5010071  54.0285721  11.4759483
  80.9415436  28.2346916  43.7998428  80.0438004  27.9375839  43.6514854
  81.0908203  28.8937874  43.1219482  33.1843338  20.4071274  78.1581039
  32.2686729  20.1900921  78.3332825  33.6470375  19.5726414  78.2340622
  74.7990265  26.7406769  32.3311615  74.8494644  26.8032284  33.2849808
  73.9067535  27.0154285  32.1199684  58.9894028   4.8819780  14.4778719
  58.8471298   5.8234715  14.3799896  59.5273895   4.6413507  13.7236166
  51.6228561   0.4169984  11.2599049  51.5803108   0.1166307  10.3520498
  51.1360016   1.2411317  11.2625828   0.9416953  51.1197853  54.0176811
   0.2781852  50.9033775  53.3625832   0.9392187  50.3732491  54.6167717
   5.8409562  52.6238365  41.6822433   5.5808892  51.7539368  41.9853554
   5.1108289  53.1915855  41.9288292  24.0688534  61.4530449  17.4078598
  24.6288929  62.0201683  17.9379177  24.5600777  60.6350594  17.3315125
  60.2113342   8.6440544  28.4709110  59.5944138   8.1219435  27.9580364
  59.8186607   9.5164452  28.5021515  76.5084152  38.2436409  80.8716431
  75.6452713  37.9565735  80.5736389  76.6040421  39.1262550  80.5137558
   1.7178289  37.5106888  86.7472000   2.0658345  36.9136620  87.4095383
   1.1182989  36.9721870  86.2306671  64.7274933  66.8610153  80.3505173
  63.8036919  66.6228943  80.4287109  65.0387115  66.3672943  79.5918274
  18.0725193  18.7412052  24.7630100  18.2861557  18.2289371  23.9831581
  18.7997189  19.3573074  24.8514977   3.5370030  20.1780434  83.2575607
   4.4508977  20.4623775  83.2710495   3.0389526  20.9614830  83.4907913
  84.4195175  35.7464333  62.1451111  84.0185852  34.8784561  62.1909714
  83.6813507  36.3540077  62.1919556  77.0935135  55.4691238   3.6922960
  77.1199951  55.3470154   4.6413059  77.7010269  56.1900101   3.5265222
  54.3191833  39.7545815  26.0194473  54.0119324  38.8520470  26.1046524
  53.5542946  40.2397766  25.7099895  70.1832657  -0.0573810  65.9887314
  70.7697983   0.1421832  65.2590866  69.6019669   0.7011472  66.0431213
  48.9497604   3.6810148  58.5233154  48.5703545   4.5567784  58.5962524
  48.3542900   3.1198828  59.0200844   4.3707347  38.4065399  81.6669998
   4.2589636  37.5572472  81.2398758   4.1455359  38.2453156  82.5832596
  19.9197960  26.2514706   5.4302626  19.2487583  26.2661400   4.7478228
  19.4268341  26.2283478   6.2504358  74.4080734  68.3868408  61.7598000
  73.9909286  67.7097931  62.2925453  74.4949036  69.1358871  62.3493958
  49.9834595  15.0681601  74.7472763  50.3685150  15.6864185  75.3683395
  49.6036758  15.6203833  74.0638733  30.5033302  19.7089558   7.7055111
  30.0173092  20.4191475   8.1246080  29.8534985  19.0183277   7.5751920
  60.5986595  28.2180958  36.6166153  61.5468407  28.3481407  36.6331863
  60.4307098  27.5901642  37.3192711  44.4152908  48.8627090   3.7788486
  44.4529915  48.8994408   2.8230970  44.4619141  47.9290619   3.9846787
  29.6623039  56.4374733  32.3988762  29.2287750  56.9065819  31.6859818
  29.3418236  56.8619728  33.1946945  35.8281364  41.4941368   6.7329168
  36.4883804  41.9553909   7.2501726  35.0800858  41.4055595   7.3235154
  41.1684494  50.7392120  51.9015503  40.3680229  51.0916443  52.2905769
  41.8257790  50.8185577  52.5928192  55.3093224  49.6609955  53.3683395
  54.6949844  49.0912590  52.9054985  56.1506424  49.2091522  53.3031807
  34.0006180  38.0698891   1.6791996  34.7154694  38.3852463   1.1262358
  34.3784027  37.3357544   2.1635091  65.7007370  41.2065773  42.4115105
  65.2826996  40.3593788  42.2574883  65.9708862  41.1770248  43.3293228
   6.3935962  17.3202667  63.1220245   7.1360059  17.4328403  62.5284042
   5.8544827  18.0986443  62.9816055  44.8304482  33.4144249  22.7997246
  44.0854988  33.0480118  22.3232536  45.5146790  32.7495270  22.7224293
  31.1835499   7.0690665  74.2166290  31.4679642   7.3452525  73.3453903
  31.9971313   6.9327488  74.7021484  85.6291428   4.3477621  73.0208664
  86.2002411   3.7446241  73.4965744  84.7493286   3.9909880  73.1428223
  35.9994431  49.7363625  86.2348938  35.2743034  50.2133598  85.8313141
  35.5834770  49.1819229  86.8950424  62.7936745  51.7107925  58.5171509
  63.5246468  51.3526039  58.0135498  62.6882591  51.1046906  59.2504730
  50.0841408  46.7587471  74.3119431  50.7856674  46.1084023  74.2781372
  49.4937973  46.4390030  74.9942093  26.3197880  16.7635517  71.9143448
  27.2216740  16.7485886  71.5940170  26.3932972  17.0539665  72.8234558
   8.7504740  57.8719826  34.2980576   9.0674009  58.6510773  34.7550087
   8.1730423  57.4424515  34.9291725  48.3793716  37.6051331  71.6019135
  48.7400894  38.4569626  71.8478928  48.9151230  36.9713745  72.0789413
   6.1522779  70.8061371  50.9268265   5.6203294  70.2126007  51.4569016
   5.5633864  71.0991211  50.2314148  44.2739220   7.8640695  74.3181686
  43.7883339   7.4003568  73.6359634  44.2737885   7.2628422  75.0629883
  10.8805265  46.5899734  66.9864731  10.3280592  46.3880997  67.7416306
  11.7708588  46.4034424  67.2843781  62.2508202  62.0238724  41.0135918
  62.4950218  62.2030334  40.1055717  63.0603638  62.1496735  41.5086136
  62.6161423  34.4386559  18.1494656  63.0156593  33.7700310  17.5930862
  63.2304230  35.1721992  18.1210918  52.5939217  15.4823275  60.3238029
  53.2466240  15.1991997  59.6834526  52.8823967  16.3553867  60.5898514
  36.4752502  61.7225571   1.0156785  36.3408051  61.2072716   0.2202938
  36.1889191  62.6051407   0.7805402  69.2110748  46.7145996  18.8140354
  70.0544968  46.2788315  18.6916542  69.4379501  47.5998878  19.0986843
  43.4916382  58.5681000  82.1197128  44.0505867  58.9813309  81.4616470
  42.6047974  58.6569901  81.7706528  63.2300682  50.7980385  18.6914177
  62.5526237  50.2733078  19.1179886  63.1807861  51.6503944  19.1241913
  50.8271027  44.2475433  12.2883177  50.6995354  43.4088707  12.7316971
  50.2387962  44.8506012  12.7426863  48.3342552  19.4295597  74.6130829
  48.9902458  19.7280235  75.2430267  48.6077461  19.8160934  73.7812042
  46.1061363  65.1647644  19.4182949  46.8096924  65.6406708  18.9769821
  45.9451294  65.6636963  20.2191525  36.6398964  11.0365477  71.4036102
  37.2832031  10.3342800  71.3076248  35.9886398  10.8591881  70.7249069
  32.3509026  61.8287773  79.2687988  33.1533127  62.2800331  79.5309830
  32.4934082  61.6011276  78.3500519  70.2820053  36.0184021  12.6582661
  70.0584793  35.5588951  11.8488712  71.2255859  36.1670151  12.5965624
  66.1151962   1.0666050   5.4192548  66.0529861   2.0051723   5.2419028
  65.2091827   0.7871173   5.5506434  52.3792305  48.7329254  32.1495628
  52.4649506  48.2612038  31.3210926  52.8306007  49.5636597  31.9999809
  30.4894485   2.6935043  84.0302887  29.6458130   3.1227946  83.8880920
  31.1215057   3.2514288  83.5770187   8.1203918  16.4682751  60.4558220
   8.8691835  15.8789377  60.5464973   8.1648407  16.7743912  59.5499802
  41.1123505  21.9060287  73.4446945  40.2714653  21.4509792  73.3991470
  41.2386475  22.0831490  74.3768463   2.3440771  61.4612694  46.8026848
   2.6195564  60.5832481  46.5392075   3.1624994  61.9308968  46.9635162
  74.6500168  10.4785604  10.8904114  75.4852219  10.6178217  11.3368111
  74.0321198  10.2814732  11.5943928  12.1452847  58.0325890  10.0648117
  12.0300999  57.1840057   9.6371765  12.7138271  57.8487434  10.8126030
   9.7509804  68.3898239  81.0963593   9.9785833  67.9629211  81.9223022
   8.7944326  68.3661346  81.0701370  48.6961975  68.5177841  78.7811203
  47.7507362  68.5866241  78.6484756  49.0485191  69.3314590  78.4205246
  50.9617996  61.8606377  42.5087814  51.4323006  61.0380402  42.6436729
  50.7716370  61.8767586  41.5708008  84.9446487  27.2842941  69.8475571
  84.7484589  26.3976593  69.5448685  84.2036362  27.5156555  70.4075623
  10.2403288  70.8043518  46.0190811   9.5606079  70.1623917  46.2242661
  11.0605698  70.3643265  46.2422752  51.1839981  31.0816975  21.3220177
  51.0139580  31.6924934  20.6049061  52.0455437  31.3351288  21.6532898
  33.7237282  65.1721115  70.0506821  32.8794212  65.5950546  69.8941727
  34.3714867  65.8406372  69.8277359  40.1693077  60.3917503  25.8610325
  40.1807022  61.3272400  26.0634098  39.8559952  60.3459129  24.9577217
  82.5263977   0.8706214   3.2564931  81.7658005   0.8857889   2.6755466
  82.1547394   0.8931742   4.1383047  77.3158112   3.9501352  57.0462112
  77.7027893   3.0868773  56.9003716  76.9532013   4.1968961  56.1954155
  71.6740952   4.4587169  17.5893326  71.0663223   4.6174483  16.8670826
  71.6904755   3.5063174  17.6836662  44.9064865  59.7176170  38.4183960
  45.4442863  60.3122292  38.9413109  44.8682327  58.9125481  38.9347649
  86.1369247  13.9313078  51.2832909  85.4307404  13.8706713  51.9266090
  85.8167038  14.5579882  50.6344757  34.1500816  19.4347610  73.8161392
  34.8542747  18.8030434  73.9620056  34.5420113  20.1054211  73.2568207
  48.0484467  66.8466644  43.6842690  48.8939629  66.3983459  43.6657143
  47.8465958  67.0154419  42.7639427  63.1589966  10.8983116  65.2043457
  62.8087769  10.9938545  66.0900421  62.6874886  10.1492758  64.8398514
  63.9163399  65.6033325  51.9220848  63.2973061  66.0568924  51.3499718
  63.3653526  65.1562424  52.5645485  84.1970367  55.6764030  79.2633209
  84.1617584  56.5036507  78.7830658  84.0811081  55.0043755  78.5916290
  49.7531700  19.9220982  78.3902359  50.3895569  19.6528950  79.0526352
  49.5601730  20.8356819  78.6008377  77.2219162  52.5152931   8.2283821
  76.4967499  53.1148415   8.0525703  76.8134308  51.7659302   8.6617785
   5.8698583  29.5102024   8.7017250   6.5744090  30.0337543   8.3199739
   5.2408633  30.1549358   9.0256338  83.2549896  45.0046692   8.6143198
  82.3555298  45.1636162   8.9005871  83.1842804  44.8621483   7.6704340
  13.6981659   4.6560783  64.9642105  14.4794712   4.9437633  64.4919510
  14.0216436   4.3971291  65.8270798  77.5389404  67.3741608  24.9284344
  76.8696976  66.8549728  25.3743038  77.1216202  67.6539917  24.1137104
  70.0990448  69.7259903  18.2648220  70.4229050  70.4878006  18.7454376
  70.4097672  69.8580322  17.3691387  31.0417938  18.6315060  88.2973480
  30.1339512  18.4322586  88.0685425  31.0246429  18.7734280  89.2438126
  46.8439903  40.7392044   2.7007072  46.3716049  41.5550728   2.5350606
  47.4604073  40.6671486   1.9719615  82.4948273  56.6563225  81.3536072
  83.2782822  56.2925224  80.9411850  82.6807861  57.5915031  81.4378052
  25.6167412  10.3533545  77.8296890  25.3375740  11.1325550  78.3104630
  26.2444439   9.9249401  78.4116516  26.3388386  17.6671543  65.1429977
  26.9231606  16.9103947  65.0970230  25.7412529  17.4649525  65.8628845
  10.7283735  32.9853668   6.8730602  11.5111828  32.8768120   6.3330083
  10.8087921  32.3127594   7.5493455  84.9319763  53.6973305  55.9697647
  84.7525101  53.3841019  55.0832481  85.5796509  54.3921852  55.8517456
  72.5962982  50.0652046  15.9781103  71.9715881  50.6572075  16.3970451
  73.1614761  49.7693329  16.6917419  85.8650436  45.1178513  73.2826233
  86.6772614  44.7393799  73.6192245  85.1714630  44.6174088  73.7124329
  38.4038696  39.7014618   6.1476760  37.7750587  39.8360100   5.4386449
  38.2166290  40.4039001   6.7703733  78.7015305  55.9025688  36.8455048
  78.7495651  55.3198242  36.0876579  78.7373962  56.7835312  36.4728775
  68.2008057  21.4246826  77.8846283  68.0969391  22.1670876  78.4798431
  69.0926819  21.1146736  78.0417633  27.5425072  19.2201729  13.8893099
  26.9137173  18.6304817  13.4732342  28.3016224  18.6677895  14.0759907
  17.3679600  50.9956703   1.4169779  17.3044529  50.6190948   0.5392599
  16.8397961  50.4154968   1.9653126  74.7143936  42.7505074  36.8676605
  74.5160370  43.3621559  36.1585960  74.5428467  43.2473946  37.6676025
  61.3171806   4.2179990  19.7606831  60.8363724   3.3903639  19.7693443
  62.0965118   4.0367608  19.2353001  79.2793808  42.4647217  57.7718124
  78.9918289  42.2765121  58.6651917  78.4955521  42.7944603  57.3323669
  41.3571587  41.8062477   5.8093023  41.8430290  41.0275192   5.5377479
  40.6693420  41.9012642   5.1504283  39.0006790   2.1144817  51.6248245
  39.0642929   1.2655264  52.0623856  38.1945190   2.5006094  51.9672318
  37.3344383  28.9892921  11.8297367  38.0517845  28.5589962  11.3644476
  37.3206787  28.5692234  12.6897278  53.5421753  55.1119804  60.1289749
  54.3891144  55.3813286  59.7734871  53.3680992  54.2653542  59.7176895
  44.5114899  11.3257322  41.3799629  45.1326904  11.3939276  42.1050110
  45.0284386  10.9772587  40.6536293  25.7290840  43.8717117  63.7119560
  26.6666870  43.7193375  63.8299217  25.3939800  43.0452042  63.3643646
   9.7125540   9.5839462  14.7817154  10.4029827   9.5267429  15.4422207
   9.9093380   8.8765345  14.1676502  75.2092590   0.1989473  29.6584034
  74.9979019  -0.7296041  29.7551117  74.4718170   0.5626702  29.1683884
  84.7526627  37.9878387  79.4160538  85.0381088  38.1538544  78.5176163
  84.8849640  38.8215561  79.8673248  86.7768402  40.2219086   5.5243349
  85.9818344  39.7110825   5.3718629  86.5366821  41.1165085   5.2829776
   9.9229956  45.6938705  44.2205391   9.7113600  46.4922638  43.7367897
   9.7894125  45.9278336  45.1390419  59.5964546  61.8986855  54.3136177
  58.8115768  61.5113716  53.9260750  59.3208504  62.7727547  54.5897980
  15.2829285  41.9668694  12.3072119  15.0484400  41.1313820  12.7112036
  16.2381821  41.9984245  12.3594427  74.8814774   4.8712893  39.7398109
  73.9291306   4.9675713  39.7402687  75.0668411   4.3272896  38.9743462
  42.2801704  24.3164349  77.4964294  42.9578438  24.0132465  78.1006393
  41.8230324  23.5189266  77.2295227   7.5299253   2.3089848  60.8094902
   7.2977147   2.7637124  59.9998398   6.8992944   1.5914830  60.8705444
  48.4569473   1.4260070  43.7017670  47.5946579   1.0127176  43.6584053
  48.7617569   1.4399607  42.7945023  36.1081161  70.0598679  55.4192657
  35.6445885  70.7227478  55.9310837  36.1571693  70.4291153  54.5375175
  23.0879383   0.2445213  29.7600098  22.7022877   0.5404922  28.9354458
  22.3909092   0.3605622  30.4057026  31.7390652  55.6138840   6.9538240
  30.8946476  55.2282944   7.1872993  31.5983906  55.9905548   6.0851698
  78.5572891  54.1172867  28.2528725  79.1216049  53.5214767  28.7456112
  77.6718903  53.9115028  28.5527763  81.2430344  29.9265308  31.4083614
  80.5690765  30.5750828  31.2048950  82.0626450  30.4208031  31.3957920
  47.2848930  55.9350319  72.9437103  47.4008255  55.4103127  73.7358322
  47.4039955  56.8388405  73.2355499  66.3742294   3.4518185  73.7803650
  65.5348053   2.9960849  73.7178650  66.5338440   3.7821236  72.8962479
  50.5137291  19.6305809  21.1607227  51.0015411  19.8315983  21.9593887
  50.8495178  18.7782917  20.8830910  71.4544220  26.6666489  32.2700424
  71.6847076  27.4399834  31.7551117  70.9679871  27.0131321  33.0180817
  76.4992142  38.6924438  41.9768486  77.3115692  38.3978004  41.5651474
  76.1286774  37.9015770  42.3685875  64.4153290   7.8124995  58.9984627
  64.9780197   7.0397139  58.9492989  64.5660934   8.1630964  59.8762932
  69.5820694  48.6038246  14.9204578  68.7874832  48.5859833  15.4538937
  70.0954514  49.3274918  15.2795925  57.2292290  24.2847939  43.6469536
  56.2888794  24.1463680  43.7601280  57.6367188  23.5578518  44.1178474
  31.6063938  18.1313400  66.8103790  31.4557419  17.1965904  66.9510269
  31.4127121  18.5351105  67.6563568   1.8135114  41.6400375  35.6916924
   2.4363155  41.4048576  35.0039139   1.7551473  42.5943565  35.6458511
   0.8840898  47.8915901  30.1627369   0.9715007  47.5158577  31.0387611
   1.7846748  48.0446663  29.8768253  16.4132156  49.2911949  67.4645691
  16.8898010  49.8889656  66.8885727  16.8440018  49.3830948  68.3143997
  15.2451010  22.0084648  11.8035049  16.1851482  22.0801105  11.9690638
  15.1774902  21.4044704  11.0640106  77.8252182  62.7116356  53.5543404
  77.9892120  62.7372513  52.6116447  76.8900452  62.5218620  53.6296921
  46.0738754   5.7613664  13.0367794  45.7629738   5.6898170  13.9392490
  47.0127068   5.9286866  13.1194382  25.7714520  34.4744987  11.6001797
  25.9889584  35.0738335  12.3141251  25.3466625  33.7328148  12.0310984
  69.1392517  40.8060760  78.6284409  69.2772217  40.4161072  77.7652359
  68.8857269  40.0703964  79.1858673  61.3133011  34.5939407  11.8319654
  61.4521255  35.5072060  12.0827770  61.6770821  34.0880547  12.5585842
  53.8725548  24.3410110  38.3340416  53.0909424  23.9463081  38.7207222
  53.5822983  25.2022076  38.0335045  64.7657166  16.9611588  30.8582401
  64.7758789  16.9666996  29.9011097  64.4819107  17.8428078  31.0998611
  56.1162567  22.2136631  82.3785019  56.3284912  21.2810078  82.4151382
  56.9284096  22.6331367  82.0944672  64.1877441  46.8365555  88.6743469
  63.7744980  47.0931206  89.4987488  65.1076279  46.6986961  88.9002686
  32.6881371  37.5953979  60.4432335  31.7458706  37.7051811  60.5709496
  32.8736000  36.7159309  60.7724380  30.0550938   2.4213250  47.9828491
  29.3458576   2.3948326  48.6251221  29.7008953   2.9334898  47.2558937
  56.7269936   1.2905091  86.9727325  56.7537346   1.1266793  86.0300369
  56.8317032   2.2384741  87.0541534  79.8038864  32.3212547  44.3598824
  80.6637039  32.0274506  44.6609230  79.2423553  31.5514183  44.4508171
  17.2896137  43.6935501  69.9556580  17.8022003  44.5010223  69.9172821
  17.3581543  43.3242760  69.0752182  83.8811646  38.9922714  61.2647018
  84.6418839  38.9513741  60.6851578  83.1692047  39.3004417  60.7040138
  34.9862518  38.8022652  72.4034119  35.7562408  38.4405327  71.9646683
  34.5962982  38.0552711  72.8574677   6.5078216  19.6347580   0.2985961
   6.7778554  20.5529499   0.3139268   6.0972023  19.5201397  -0.5584260
  52.0072899  42.6658669   4.9275079  51.6653748  43.3425674   5.5118027
  52.2541161  41.9481621   5.5107827  10.5792160  66.9792786   4.4977484
  10.0231781  66.2396927   4.7428432  10.2311087  67.7169647   4.9986162
   8.3289728  47.1471062  32.5726280   7.5370598  47.5760040  32.8969002
   9.0415020  47.7301292  32.8345795  31.9084797  20.7798347  72.5276794
  31.9354954  21.3795013  73.2732697  31.8826714  19.9081173  72.9222412
  64.7164536  22.5409813  71.6568146  65.6043167  22.8866730  71.7486420
  64.7158813  21.7400208  72.1809235   3.1125462  51.6740570  27.4083748
   3.8779380  51.1424751  27.6270714   3.0925927  51.6829109  26.4514236
  69.1437149  13.8260193  39.7391357  68.3696442  14.3651962  39.9013939
  68.8872528  13.2491417  39.0196419   1.1986164  44.5568428  21.1668930
   1.7205917  43.7636490  21.0459824   0.3735221  44.3712502  20.7185535
  86.3141022  25.9934540  49.0111885  86.9154282  26.4359474  49.6102257
  86.5345764  26.3440151  48.1482086  33.3266602  53.3736687  76.1396408
  32.5016289  53.5968361  76.5706253  33.6668091  54.2112885  75.8251114
  30.7582912  37.7894821  81.3010712  31.5894604  37.4660759  81.6486282
  30.2921524  38.1238556  82.0673218  53.4820557  32.2888718  31.3858681
  53.1939354  31.6255093  30.7588329  53.9732399  32.9192047  30.8589439
  24.8236465  10.6137390  30.5366287  25.2142200  11.4438219  30.2634163
  25.2723751   9.9528418  30.0092869   5.0297227  50.3479767  43.2131729
   5.5506334  49.5486641  43.2905312   4.4060216  50.1604462  42.5117035
  46.8009605  69.5568085  47.9516754  45.8673935  69.5460434  47.7405777
  47.1925583  68.9357147  47.3375664  47.7211990  25.4866772  23.7160721
  47.9260025  24.6073284  24.0339279  47.7231255  25.4031658  22.7625237
  31.5538731  52.6001320  30.2152882  30.8033199  52.7354355  30.7937298
  31.4446583  51.7080536  29.8859005  48.3803520  51.1738243  64.8834686
  49.2031326  51.5135040  64.5315094  47.7567978  51.8910332  64.7693405
  50.5795822  10.6596823  49.2173843  50.6019897  11.5405445  49.5912971
  51.2624359  10.6667633  48.5466423  42.5697060  68.3206253  67.5905991
  42.8842697  67.4373398  67.7831726  43.1460800  68.8952789  68.0943832
   1.8468183  23.2408409  72.2444839   2.6149495  22.9242039  72.7198181
   2.1637540  24.0006523  71.7561493  78.9059753  29.6493740  62.6208191
  78.4098511  29.0701256  63.1992378  78.2512741  30.2496414  62.2640457
  40.7792931  52.9155579  77.5153809  40.6645966  53.2655334  76.6318741
  41.7276955  52.8932991  77.6429367  30.5728970  54.4040718  41.2911987
  29.7444382  54.1325874  40.8959999  31.2389336  53.9062233  40.8170929
  48.1893120  49.3344078  35.0576439  47.3955994  49.8102036  34.8129539
  48.7681847  49.4292259  34.3012390  22.0349045  28.6098404   0.4229618
  21.3603992  29.0264969   0.9593136  22.4715118  28.0003548   1.0180531
  67.5965881  16.9405441   0.8875703  68.1790848  17.5075760   0.3821917
  67.8292160  17.1107788   1.8003341  26.2997036  45.3011665   8.7493505
  25.9096336  45.9000511   9.3860722  26.0113010  44.4325409   9.0296106
  86.3754501  53.9977570  50.7456665  85.7933502  53.3831482  50.2988472
  87.1581116  53.4842148  50.9455261  45.7425957  37.7344093  63.6047516
  45.0013084  37.5548515  63.0264015  46.4831467  37.8629684  63.0120583
  10.9073820  36.8216057  78.4502487  10.2205496  37.4216003  78.7409363
  10.8097582  36.7887955  77.4986038  81.0909042  43.7566071  81.5018845
  81.8968658  44.1039276  81.8840179  81.1213608  44.0334167  80.5860901
  59.8269386  53.4485435  85.6562119  59.3078804  53.1491051  86.4026337
  60.7272873  53.4627457  85.9808578  81.9959183  21.0154514  42.6900177
  82.5086441  20.2776794  42.3598099  82.5848694  21.7667732  42.6201515
  73.9616470  65.7385254  18.8431149  73.7259140  65.0660400  19.4821968
  74.9178619  65.7713089  18.8715935  76.8711395  27.9990005  63.1984367
  76.3831558  28.0027657  62.3749733  77.0381775  27.0729141  63.3736229
  33.0672493  12.1586103  68.2426224  32.6659431  12.0475283  67.3807373
  32.3272705  12.1917439  68.8488998  32.4168205  17.5690022  15.0789814
  33.0338631  18.2556992  15.3318396  32.5872688  16.8555450  15.6939278
  55.1802979  14.3379774  81.2665176  54.5298347  14.6877480  81.8754425
  54.6725655  13.8079252  80.6521225  79.6494446  19.8576927  24.6085510
  80.3352814  20.1550789  24.0107002  79.4650040  20.6187515  25.1590061
  59.7227898  27.4438801  17.4886570  59.3002930  28.0906734  16.9235172
  59.1260796  26.6954517  17.4838638  18.7774582  47.4988823   6.2286782
  19.2675724  47.0399170   6.9108601  18.4131393  48.2659340   6.6704178
   9.2362242  27.2234173   6.0796051   9.1079273  27.7560081   6.8645372
   9.3634892  26.3346252   6.4113917  32.9657173  62.9004021  71.8455811
  33.3098106  63.6838799  71.4166336  33.4764519  62.1806145  71.4750595
  33.1809998  33.0213203  73.1609344  32.3714180  33.4491310  72.8820267
  33.8758469  33.6154289  72.8772964  86.1492920   0.4410311  64.6380234
  86.4349365   0.8067465  63.8008308  86.0638199   1.2004230  65.2144318
  71.7614136  32.6149521  60.3831596  72.4588699  31.9610710  60.3360558
  72.2216034  33.4518356  60.4469833  60.4875908  31.2775936  54.6907616
  61.3076477  30.8950596  55.0028610  59.8871651  31.1941299  55.4315414
  70.1117935  41.3438110  27.1086407  69.5541916  40.9464645  27.7775440
  70.9989243  41.2671051  27.4598465  56.0121803  21.1529617   6.3264523
  56.8536110  21.0592804   6.7730508  55.7049370  20.2547798   6.2035642
  24.3192158  59.9732056  78.0185547  24.6696835  60.2489166  77.1715622
  23.3759079  60.1187248  77.9462738  41.4472389  66.0218506   2.3305418
  40.7518311  65.6079865   1.8193052  41.8015709  65.3146210   2.8695283
  25.9228706  28.9886856   4.0955954  25.9475155  28.7584553   3.1668231
  25.2491188  28.4184589   4.4659109  18.1671429  54.8729706  42.6270370
  18.4264450  54.4389801  43.4398422  17.2156658  54.7733765  42.5953407
  62.0814438   7.8913460  57.6822014  62.8972626   7.9558549  58.1786995
  61.5191345   7.3311429  58.2171860  57.7092056   9.7188482  10.4007349
  58.4233627   9.2134686  10.7890644  57.4272118  10.3102236  11.0985813
  51.1114120   3.5554883   8.8578482  51.1762962   4.4799080   8.6181183
  50.1970863   3.4385669   9.1158514  21.1237812   4.2634659  19.1598511
  21.6093941   4.1375165  19.9750500  20.4350910   4.8887892  19.3854847
  29.3992653  33.4487343  68.4720078  30.2397900  33.0387726  68.6761627
  29.3128910  34.1515846  69.1160355  82.3500748  16.6838703  25.8672295
  83.0844727  16.0891914  25.7147732  81.9563370  16.3740520  26.6828384
  54.6611252  28.1997337  11.8852549  53.7417412  28.4648800  11.9109068
  54.6456680  27.2626514  12.0798626  43.8356590  63.2839165  49.3519363
  43.8774757  64.0412064  48.7679901  43.2712326  62.6601677  48.8952141
  42.8743553  59.6268501  63.7185364  42.3964920  59.2804604  62.9649506
  43.1411095  58.8503151  64.2105408  44.4900131  19.0686417  79.2468185
  45.2798920  18.6752262  79.6176910  43.8977737  19.1653252  79.9925613
  16.2965584  39.0084419  40.0026016  16.7265491  39.5221405  39.3188972
  16.9818020  38.8540154  40.6528511  79.9892883  60.0774231   3.2161045
  80.7582474  60.1354904   3.7831674  80.1662216  60.6971855   2.5084167
  39.4194260  48.5250969  21.3401375  38.6259575  48.6238098  21.8663521
  39.1329193  48.6891289  20.4416733  41.2691154  63.8150444  12.1593208
  41.0297203  62.8892899  12.1156921  41.9758224  63.9100342  11.5207481
  54.0510254  37.9175682  30.9166412  54.8193054  37.3936996  31.1436634
  54.3855400  38.5872841  30.3201389  10.0674896  52.6140862  74.5927429
   9.1710482  52.9308739  74.7034988   9.9910984  51.8924675  73.9685059
  32.8906517  48.2556610  41.1800919  33.6980019  48.7264748  41.3868561
  32.8376923  48.2791290  40.2246437  68.4815369  14.8592625  25.8640690
  68.9230347  14.1200457  25.4458961  69.1823273  15.3368511  26.3079510
   1.8624965  37.6331787   7.0796947   2.3019791  37.8496284   6.2573581
   0.9714817  37.9651756   6.9696856  81.9233627  42.1647644  43.1874313
  81.5340576  41.9711342  42.3346786  82.3974609  41.3667145  43.4210510
  36.0889854  58.5732956   4.9883475  35.7613182  57.7436180   5.3354754
  36.0464516  59.1767731   5.7301297  81.5274048  52.2039604  79.8306885
  82.4377518  52.0202637  79.5988388  81.5846786  52.7247925  80.6317444
  80.7608490  25.0585461  64.2321548  81.4628601  25.3271217  64.8248520
  80.0510101  24.7817001  64.8115616  43.9983826  52.5083961  30.8497887
  44.6144943  51.8721390  31.2128544  44.1010742  52.4270973  29.9015923
  27.6351318  55.6588058  70.5635757  27.6749249  56.3832703  71.1879120
  28.3331089  55.0652542  70.8406219  36.5830688  42.8997803  70.7970963
  36.7412529  43.2244987  69.9106598  35.6438370  42.7167549  70.8210831
  30.1590137  54.6704483   2.3602045  29.6038036  55.2197304   1.8067973
  29.6839504  54.6077194   3.1888251  79.7071075  13.5569382  75.8262253
  79.2569122  13.5657339  76.6709061  80.3499146  14.2633104  75.8900528
  15.1645584  68.8937454   5.3987317  15.3251295  68.7839890   6.3359632
  15.8806019  69.4526825   5.0968957  79.5744324  15.4188452  21.9315491
  80.3432083  15.5581856  21.3785572  79.9142761  14.9694185  22.7053413
  29.4108276   2.4129994  13.2827721  29.4296169   2.6179667  12.3479633
  28.8803177   1.6185530  13.3431654  13.2166080  42.1457062  44.8686638
  13.8894911  42.5140190  45.4412079  12.4402456  42.6796532  45.0371780
  43.8208656  43.5037727   4.1700354  43.4701538  42.6170044   4.0871501
  43.1498718  44.0641212   3.7801535  72.0871887  26.4583721   0.7029965
  72.7468185  27.0166149   0.2913185  71.6347961  27.0357628   1.3179752
  51.0252266  30.1389923  31.6234913  50.9233437  29.2293968  31.9036465
  51.5429306  30.0856190  30.8201427  58.9010582  66.1207428  15.0643644
  58.7328033  65.2740326  14.6508417  58.4317703  66.7514572  14.5182867
  16.3403320  58.4614487  56.6441689  15.6015759  57.9369011  56.9529037
  17.0023308  58.3694801  57.3293915  20.9750881  60.8320312   9.0906258
  21.9010696  60.9211845   9.3161049  20.7888241  61.5914497   8.5385218
  13.6788998   2.8925221  25.4209938  13.9303789   2.0172541  25.1262112
  13.2769833   2.7503409  26.2780113  28.5410690   6.5717549  45.0514488
  27.9744186   7.0867887  44.4771004  29.0174656   7.2238288  45.5653343
   2.9624712  65.2372589  65.1644135   2.3694537  65.4306717  65.8904648
   3.1495042  66.0909729  64.7739944  58.1594582  63.4611130  23.8229427
  58.6841125  64.0310364  23.2606659  58.6301270  62.6276283  23.8250408
  56.3507690  51.7881012  65.6337204  56.3205376  52.0704155  66.5478363
  57.1168709  52.2327461  65.2709351  56.8549919  67.6186218  87.8620224
  57.3824043  67.8703384  87.1039276  57.4584999  67.1306305  88.4222641
  33.9777412  30.0465469  85.5556030  33.8780746  30.0112305  84.6042557
  33.6305580  30.9041100  85.8011246  75.8726044   1.3861834  34.8285141
  75.4339600   0.8079534  34.2044334  75.5893326   2.2660229  34.5797691
  55.7661362   9.7124348  85.3151321  55.3363304  10.1027966  84.5541382
  56.2112274  10.4451532  85.7408676  82.0851212   8.1930943  11.3933325
  81.9583206   8.0002832  10.4643660  81.3467712   7.7675657  11.8292217
   4.6339035  27.0929356  34.1740570   3.9700928  27.6515141  34.5785027
   4.3656015  27.0272388  33.2575798  14.0695601  33.8702812  83.6694336
  14.0728130  34.7841530  83.9541473  14.7270212  33.4454422  84.2203293
  44.4479027  27.0371685  16.4955635  44.6057167  27.9739151  16.6131687
  44.7052650  26.6443539  17.3296452  79.9688568  65.4803238  76.8743362
  80.1116943  64.5384598  76.7809601  80.7183075  65.8810577  76.4339142
  62.7398300  10.7373705  81.9995041  62.5796204  10.2464323  81.1935654
  62.3494606  10.2001038  82.6888428  18.0097218  66.6853485  80.9269791
  17.3022137  66.1485214  81.2840347  18.7459469  66.0806427  80.8345718
  48.2755585  29.4998360   9.8359632  47.9559288  29.1524124   9.0032778
  49.2232094  29.5675011   9.7192984  63.3921661  64.0279770  43.5048637
  62.6228561  63.8959846  42.9508095  63.7824402  64.8406372  43.1831512
  64.4972839  45.0523109  27.3210487  64.2198486  45.2264595  28.2204552
  63.7547073  45.3280792  26.7836876  63.4271736  56.1075096  88.3170776
  63.8854218  56.4642525  89.0779800  63.5919380  55.1654930  88.3582001
  16.1341572  60.9165344  49.2731972  16.6065159  60.1235886  49.5268669
  16.7972794  61.4677544  48.8576775  27.1505966  60.8874741  31.0172729
  27.8728561  61.4146996  31.3587551  27.5247822  60.0138474  30.9032936
   6.0263853   6.5076752  26.9946709   6.8433771   6.3242593  26.5308647
   6.0337276   7.4556527  27.1270218   5.5242167  65.3765411  76.8782883
   4.7980247  65.9738998  76.6992950   5.1378341  64.6834335  77.4135818
   2.2522647  26.7810268  38.3915482   1.6402843  26.6367416  39.1132774
   3.1167378  26.7550831  38.8017235  75.1038132  32.4925880  38.5710869
  75.6813965  32.0538292  37.9464874  74.8921967  33.3284035  38.1553154
  58.5911026  31.4508114  79.4966888  58.8154411  31.9868793  80.2573013
  57.8909645  31.9358597  79.0599213  47.7352982   3.3194091  77.2652664
  48.3265381   2.5671561  77.2932510  48.2360916   4.0011120  76.8172531
  65.6967010  23.3839550  74.2215195  65.8817291  24.1422310  74.7756042
  64.8371735  23.5681667  73.8426895  44.6270714  38.6876297  50.5921555
  44.5888710  37.7450676  50.7544823  45.5149307  38.9387436  50.8468704
  22.3142586  43.5169258  24.3906822  21.8764019  44.2924461  24.7415142
  21.6815052  42.8090591  24.5122528  30.0955925  54.1361809  70.9708099
  30.4340630  53.7528648  70.1616516  30.6041660  53.7174416  71.6652451
  20.0518303  48.4010048  33.9030151  20.2755928  48.9087677  33.1230545
  19.0973072  48.3335495  33.8792000  80.5673218  21.5261059  89.2435455
  80.4923553  20.5817051  89.1067352  79.8145599  21.8954964  88.7818832
  44.1468773  68.6569443  45.5257454  44.5366211  68.5731812  44.6555061
  43.9839363  69.5948410  45.6259384  71.2037354  51.9363136  21.0611172
  70.4819870  52.3614235  21.5243683  70.8389359  51.1033516  20.7622471
  52.8130798  21.6724148  87.2051697  53.4719620  21.6818295  87.8994446
  52.0067024  21.4013023  87.6438980  41.0167313  66.9196167  32.6724854
  40.6458664  67.8010254  32.6299057  40.3259583  66.3879623  33.0679703
  62.4294701   2.1376214  37.3104591  62.6320038   2.3708019  36.4044571
  61.7162018   1.5030979  37.2407455   6.2139282  35.7042046  81.8778534
   6.6412463  34.8976822  81.5894852   5.8358016  35.4837532  82.7291183
  83.1156311   9.3595829  88.1940231  82.9884109   9.4346094  89.1397552
  83.2861862  10.2555323  87.9034729  34.7459068  16.1087055   7.6879358
  34.0831032  16.7752438   7.5072436  34.2472572  15.3533049   7.9993091
  54.7391243  60.3670158  56.5127068  54.7585754  60.0279770  55.6177750
  54.5323296  61.2962112  56.4123688  46.6221733  51.5408096  53.1966286
  46.6263008  51.6545029  52.2462120  46.7150764  52.4277649  53.5443535
  47.7684212  37.4844818  16.4205360  48.5787582  36.9982033  16.2684956
  47.4120216  37.1101341  17.2261887  61.9558678  51.5499039  36.4256630
  62.4465446  51.7561378  37.2212334  61.1339226  51.1747131  36.7416916
  64.5754852  30.9421921  54.8398094  63.9868813  31.3730392  55.4596024
  65.3905640  31.4407616  54.8973885   3.4101858  55.1144218  68.1477127
   3.5070033  54.1911774  67.9143143   4.1334205  55.5520935  67.6987000
  84.5412445  30.3878860  68.5117569  84.4647751  30.7584629  69.3909912
  84.1597519  31.0521984  67.9378357  37.5510712  51.6865768  36.0504951
  38.1229286  51.9487686  36.7719269  38.1480522  51.5122452  35.3228569
   0.0414548  52.8052330  27.2549095   0.4765484  53.6574402  27.2807598
   0.7574403  52.1701622  27.2716236  44.1385460  53.1996727  18.3406143
  44.1745796  52.4507866  17.7455502  43.3489609  53.0537872  18.8616714
  68.5914154  18.1295662  32.4842300  69.2399292  18.0944328  33.1873856
  68.8317871  17.4100170  31.9005375  61.8749580  54.1370964   9.8876734
  62.4603233  53.5754852   9.3795662  62.4616623  54.6883278  10.4055119
  56.6689491  68.4611664  77.5548782  57.2442322  68.7893143  76.8637924
  56.1575661  69.2244720  77.8233643  84.6249161  48.2539101  53.2049294
  84.4389801  47.5312195  53.8044090  84.8481293  48.9882088  53.7769508
  83.1596298  60.6874733  53.3070297  83.0453262  61.4136047  53.9201355
  83.0077591  61.0754623  52.4452667  32.1934166  64.7228928  36.4467812
  32.7152596  64.9309998  35.6717987  32.7520142  64.9677734  37.1845055
  23.2422848   2.6246252  31.5887699  22.6925507   3.4081597  31.5986347
  22.6360798   1.9045205  31.7625389  82.8082428  67.1611252  43.3324890
  82.7511902  67.9485855  43.8736763  83.4106293  67.3982086  42.6273994
  70.9899597  23.2412815  17.2358589  70.2489243  23.8421173  17.1578369
  71.7274094  23.7201099  16.8575325  85.5848999  16.6746407  34.8259125
  86.5252762  16.5110474  34.7540550  85.2323532  15.8765612  35.2196236
  78.2868195  19.6121922  37.2814713  78.6906204  18.8124065  36.9445343
  78.2733078  20.2076874  36.5321808  79.4663773   9.0210981  72.9398422
  79.6229553   8.1187000  72.6616440  78.6689911   9.2793207  72.4775391
  86.6035995   8.0396748  73.3063583  87.4646454   7.6726832  73.1059952
  85.9888458   7.3366656  73.0963821  53.3574867  28.6027412  32.9967957
  53.8495712  29.3177986  32.5933342  53.5582695  27.8388500  32.4560661
  84.1414413  18.7162514  33.3811989  83.6311722  19.1452484  34.0680923
  84.6372528  18.0377579  33.8395081  -0.0915190  14.2863636  85.7498245
  -0.1084029  14.8476057  84.9746094   0.4652513  13.5490437  85.4996262
  76.9530563  32.4115791   5.8215342  77.1629639  31.5694962   5.4177227
  76.1030197  32.2718277   6.2388420   6.8776040  64.4686432  54.4230652
   7.5702338  64.9744568  54.8480873   7.3403721  63.8945389  53.8127480
  50.5399590  27.5136204   5.2202497  51.1505852  27.2674179   4.5254445
  50.4060860  26.7072372   5.7182994  47.0332451  56.9452782  45.2352982
  46.8383255  57.5524483  44.5214462  47.3382988  56.1506996  44.7973251
  16.5641327  66.7177734  13.5521317  16.6832600  67.0166397  12.6506195
  17.4445629  66.7319107  13.9274645  72.2903442  57.2116585  26.4628239
  73.2154694  57.0030174  26.5925980  71.8913269  57.0757408  27.3222065
  66.1600800   3.0281234  66.9048615  66.9531174   2.5696473  67.1825790
  65.6395111   3.1116571  67.7037735  23.4454460  58.0060310  53.1665382
  23.3654709  57.1594887  52.7269897  23.8452530  58.5788651  52.5121307
  17.0576057   9.7873354  87.9486847  16.3579540   9.9671774  87.3206940
  16.6550026   9.9347200  88.8045044  24.4032688  58.0479126  24.2275944
  24.0632362  57.3687897  23.6450119  25.3469219  58.0506554  24.0671444
  46.0056725  21.2316322  80.6887970  45.1583595  21.1998272  81.1329575
  45.9099007  20.6341209  79.9471512  50.7348404   9.5830040  72.7467804
  49.9453049  10.0465422  72.4674911  50.5651169   8.6669512  72.5270615
   3.1408799  34.3800583  39.6702919   3.0773118  34.5724106  38.7347755
   3.3983548  33.4589272  39.7084656   7.7768817  52.2819366  27.1076622
   8.3191910  52.3129272  27.8958073   8.3094711  52.7042656  26.4337063
  27.3237095  55.3452110  77.4495163  27.9885082  55.1702385  78.1156006
  26.6451950  55.8372917  77.9118042  85.9082947  48.9165802  24.9020939
  85.7449875  49.2878151  25.7691269  85.2380829  48.2407112  24.8008232
  56.1943550  15.9169245  60.7607651  57.0571404  15.6405458  60.4518089
  55.7346916  16.1964951  59.9690704  76.6311188  29.9662170  52.2980461
  75.9182968  30.1724186  52.9026947  77.4195709  29.9900036  52.8402786
  40.8589783  65.0860367   6.1262207  40.1707458  65.6776657   5.8220158
  41.6739998  65.5026779   5.8462486  51.4704514  36.6232643  64.6065369
  51.5329590  36.9865761  63.7231750  50.5745316  36.2916145  64.6662674
   5.7176161  47.2052841  65.0479813   5.6555548  46.3477554  64.6272430
   6.3807178  47.0906525  65.7287064  16.6203194  15.8446770  78.0383224
  16.5850277  16.2560024  78.9019241  17.0041409  14.9826670  78.1991119
  42.5860786  58.0169754  40.7156448  42.0286293  57.2494087  40.5878754
  42.9419594  57.9103508  41.5978088  58.9638672  42.3700562  74.8007736
  58.0627098  42.6850586  74.7306213  58.9019089  41.5867500  75.3474274
  67.3485947  29.6829739  38.5780106  67.9837341  29.0071716  38.8149147
  67.2442322  29.5921021  37.6308670  33.4201622  10.1780624  75.1348801
  34.1722603  10.6713276  74.8073654  32.6662064  10.7359543  74.9437408
  47.1007004  16.1911716   1.1831423  46.6226921  16.3236122   0.3644854
  46.4732590  15.7539682   1.7588166  35.7303391  45.3578873  66.5808868
  36.1532974  46.2134743  66.5080414  34.8724709  45.4793739  66.1740265
  70.4133301  60.5944824  14.4276781  70.2498169  59.7389183  14.0308046
  69.7047272  60.7036972  15.0618563  36.1644249  59.6186867  26.5855503
  36.9102592  60.0750198  26.9750633  36.1804771  58.7490120  26.9851017
  67.3409424  49.9122505  88.7641449  66.7646408  50.4723244  89.2841797
  66.9018936  49.8378944  87.9168320  68.3604279  44.5668335  59.4785690
  68.9980087  45.2439613  59.7048912  68.8854980  43.7769661  59.3495712
  78.6644287  34.2173576  62.3599243  78.6053009  34.2182693  61.4045563
  78.7617722  35.1401863  62.5947533  75.6190414  37.3474312  57.8229103
  75.3814316  37.4830933  56.9056473  74.8438797  37.6199036  58.3139458
  71.2881775  28.7354450  66.0310059  70.8959198  28.0698128  66.5960693
  70.5542297  29.2927837  65.7723083  55.4293251  13.7041759  32.8291092
  54.9595032  14.2860947  33.4264946  55.0016479  12.8546000  32.9365654
  52.0305405  19.9237080  65.3331223  52.7916832  20.3590679  65.7169952
  51.4486008  19.7601166  66.0752869  51.4412231  19.7182312  68.1060104
  50.9638901  20.4853058  68.4222107  52.0482864  19.5049820  68.8146973
  27.1735516   8.1362324  84.1800842  26.7892094   8.9832525  83.9540939
  28.0683746   8.3434715  84.4494781  10.4793701   6.8280392  28.2300930
  10.7353096   7.6948991  28.5451813  10.4259539   6.2917919  29.0211792
  85.1231308  56.8924751  83.3310699  84.2655411  57.2237816  83.5975418
  84.9608841  55.9835167  83.0786819  14.5769644  20.7308960   2.3020544
  14.7824402  21.6055489   2.6321948  14.5621166  20.1775188   3.0829425
   5.3440070  68.6455917  54.7523384   6.0631990  68.4817047  55.3623695
   5.0692334  67.7743988  54.4664192  70.1255417  16.1712513  80.3444824
  69.3455124  16.6468544  80.6301270  70.7409134  16.8559437  80.0822754
  32.9943161  42.0437889   6.0837526  32.4383812  42.2500992   5.3323522
  33.3000908  42.8952446   6.3964143  84.0274124  26.2452278   5.7834659
  83.9345627  26.4832153   4.8609843  84.6168823  25.4910908   5.7781019
  17.6322823  46.9286308  86.9731750  18.0754108  46.1573067  87.3266220
  17.9381695  47.6522064  87.5200806  49.6967735  33.6324120  14.3513556
  49.9442024  34.3068504  13.7187872  50.5114441  33.4213638  14.8074284
  15.9850664  37.0022926  42.7626495  15.2567949  37.3257942  43.2929306
  16.7655373  37.3677292  43.1792450  46.4060440  23.6967926  10.7019463
  46.0276146  24.2390575  10.0098677  45.6508179  23.2947254  11.1311388
  81.2680054  42.5708199  23.5440655  81.9166107  43.1194000  23.1029358
  81.1003342  43.0181465  24.3735332  45.0658035  71.2339859  30.9312000
  45.2450829  71.5933151  31.8000927  45.9088631  70.8904343  30.6354713
  23.8385029   2.0032659  24.2854195  23.2518806   1.3342605  24.6383190
  23.4566288   2.2341022  23.4385910  55.4144936  13.2286110  49.7344551
  55.2397423  14.1025257  50.0836945  55.0945282  12.6319036  50.4110603
  70.3699570  51.4542656  16.7576561  70.0080032  51.5813522  15.8806906
  70.2147369  52.2867928  17.2037945  60.2310181  34.6183739  17.1302128
  61.1258698  34.5456009  17.4621391  60.0348434  35.5542526  17.1735821
  78.0039597  63.0036964  29.5227451  78.8706665  62.6608086  29.3048420
  77.7021484  62.4512138  30.2437878  14.4486380  21.1131554  75.4177094
  14.8488369  20.3171997  75.0676727  13.8452053  21.3993416  74.7319946
  75.1123276   7.4599857   5.8856692  74.8139954   7.2233315   6.7638621
  74.7553253   6.7760963   5.3190360  69.2463150  17.3750324  60.8077087
  69.9435577  16.8638897  61.2185822  69.4331131  18.2797737  61.0582771
  16.2101288  33.9838104   6.0570388  16.4168930  34.9033508   5.8899345
  15.6660538  33.9999161   6.8444109  42.1528435  38.6688614  17.1190891
  41.5871162  38.0048943  16.7249660  42.1903877  38.4320831  18.0457821
  75.6851959  16.2979412  34.0417671  75.7396622  15.9925737  34.9473152
  74.7842178  16.1094360  33.7792130  19.2343807   6.9164634  14.8706741
  18.9677849   6.0018539  14.9636717  20.0702133   6.9706082  15.3340130
  84.7555466   9.6961203  70.7251129  84.8550568  10.3416080  71.4248734
  84.1279449   9.0619297  71.0717316   3.4084995  38.7111206  24.8926048
   3.2638736  39.4256401  24.2723026   2.5323851  38.4823685  25.2029724
  64.8048248  20.9689865  55.0894051  65.6730118  20.5668201  55.1168213
  64.2632141  20.3375607  54.6159172  37.1384048  10.2522097  15.4172802
  38.0274887   9.8975916  15.4196281  36.5819778   9.5051203  15.6374636
  15.4574413   1.3918302  78.0885773  15.6167469   1.6559780  78.9947128
  14.8517466   0.6538214  78.1571960  71.4595261  47.7665520  80.9014511
  72.1440811  47.5779457  81.5433578  71.7938232  47.4037132  80.0811920
  46.9049988  48.0068665  21.0360298  47.2733574  47.7681160  21.8866425
  45.9634590  48.0764999  21.1937847  78.7237778  47.4490280  25.2491112
  77.9490509  47.5285149  24.6926022  79.1988754  48.2694092  25.1168575
  51.0832138  28.5075874  66.9037552  51.1045341  27.5944004  67.1898727
  50.1605568  28.6776314  66.7139435  15.6010256  64.5710220   2.7026274
  14.9409370  65.2632065   2.7399166  15.1082191  63.7623482   2.8419864
  46.5815735   0.5280977  67.8372726  46.1577110  -0.1474534  68.3666153
  46.6318474   0.1485119  66.9599915  16.1720600   4.1016316   3.0044670
  16.2967434   5.0331936   2.8231428  17.0381680   3.7909448   3.2682185
  79.7629929  25.6203384  34.0846558  80.6180420  25.9840317  34.3145485
  79.9360352  25.0625057  33.3262978  62.3132248  28.8158607  53.4852562
  63.2392426  28.6290550  53.6396103  61.8679619  28.4779625  54.2623024
  37.7102890  54.8146896  73.9618988  38.2685204  54.0467300  74.0837479
  36.8446045  54.4536591  73.7709274  86.0415421  66.8499756  30.1309948
  86.7954941  67.0054626  30.6998653  86.4095917  66.4247894  29.3564053
  51.9368362  42.3763580  31.7364635  52.3015137  43.2268639  31.9811707
  51.1177025  42.3165779  32.2280769  29.2290974   2.1014276  35.3586617
  29.8277893   2.7977781  35.6286507  29.6749306   1.6719532  34.6285820
  36.5813293  16.1141911  79.1868439  36.7130394  15.3707790  79.7752457
  37.3065491  16.7070312  79.3838959  68.3677216  61.3692589   7.1904325
  68.9842453  60.7486839   7.5790462  67.5403366  61.1985207   7.6404486
  62.3031044  35.3625183  26.6691628  62.6286392  35.8088036  27.4508858
  62.9674873  35.5334587  26.0016251  46.7482414  12.3735285   2.1147587
  46.3541107  12.0300884   2.9165950  47.6724091  12.4922686   2.3339593
  81.8477249   5.2140121  73.2061081  81.5572968   6.0678806  73.5267105
  81.5913544   4.5999589  73.8941803  47.1171036  54.8278656   1.2445370
  47.4388084  54.2181053   1.9085641  47.0158348  54.2930107   0.4571967
  80.3316193  25.3288994  52.4736938  80.3086777  25.3601532  53.4301071
  80.4851227  26.2355957  52.2080383  33.0854759  17.1423759  11.1214190
  32.3583069  17.7407513  10.9499435  33.5936432  17.1443214  10.3102493
  50.1223183  50.6086426  84.7671127  50.6753845  51.2937431  85.1425934
  50.5936623  49.7951088  84.9466400  44.9168892  69.4654007  55.9057732
  44.9951248  68.8842163  55.1492462  45.6471710  70.0773849  55.8141937
  72.0751419  21.1078911   7.3649035  72.1339798  22.0473461   7.1911349
  72.9550781  20.8614635   7.6499014   6.0062613  61.1370125   3.0418227
   6.5684371  61.2999191   3.7992206   5.2980537  60.5904617   3.3823481
  50.2283363   5.0664802   2.6152396  49.8525963   4.1983671   2.4688492
  50.4645767   5.3757887   1.7407391   2.8048511  62.8777008  69.9662857
   3.7560754  62.9343338  70.0568237   2.5035386  63.7837868  70.0329971
  26.2782078   2.4874313  61.3393288  26.3468056   2.0000041  62.1602669
  27.1091251   2.3235118  60.8933029  33.5102386  38.4648933  80.8954086
  34.3427010  38.0153732  81.0409088  33.7543983  39.3778648  80.7434006
   9.9499121   3.2963912  55.2777901  10.4224482   2.6067257  54.8116341
  10.5723066   3.6126158  55.9326668  31.1042709  25.5198364  10.3405218
  31.6925755  24.9385586  10.8224430  30.2436752  25.3666134  10.7305574
  73.0369720  55.1713638  35.6693535  73.1973190  55.9326859  36.2269402
  72.0893631  55.0417366  35.7076797  50.6180573   5.6658454  21.9633770
  50.5106659   5.7986569  22.9052143  50.9673042   4.7780905  21.8849659
  38.7902794  64.3362732  70.1793365  39.3622055  64.1353073  69.4385681
  39.0023575  63.6702080  70.8332596  68.4456558  26.8175602  32.8884354
  67.9059525  26.9970684  33.6583252  68.5462723  25.8656769  32.8831215
  71.0276031  20.9417934  67.3991089  71.1261368  21.2792110  66.5087891
  70.4673233  21.5823078  67.8373489  52.5313568  19.0619888  70.7048340
  51.7804451  18.8459263  71.2577133  52.7635078  19.9562912  70.9549561
  45.1843414  70.9322510   6.9663110  45.3766747  70.6416168   7.8578095
  45.6611786  70.3194885   6.4065070  60.7101784  70.7942581  63.4966660
  60.8493881  70.8613968  62.5520248  61.2429771  70.0455704  63.7646675
   9.6415625  62.8584213  65.8877945  10.2716150  62.5253296  66.5267944
   8.7892733  62.5843735  66.2265244  40.3560371  48.7996635  31.9321918
  40.0877647  49.2880020  31.1538677  39.6229172  48.8962097  32.5400124
   0.8020599  11.1236429  34.6622696   1.0030570  11.5861597  35.4758492
   1.6515899  11.0069733  34.2369270  40.4789124  33.9964867  21.7423496
  39.7570877  33.5892067  21.2634773  40.1743813  34.8855972  21.9239483
  86.5695877  17.6491413  55.3120842  86.6265488  18.4720020  55.7977676
  86.2034760  17.0256424  55.9393387  38.7992554   5.2054305  19.3633461
  39.3196335   5.7203135  19.9800568  38.5729523   4.4105287  19.8462029
  63.8008156  66.3673248  71.4474792  64.1089020  66.5563354  72.3338165
  63.1921120  67.0787964  71.2486801  55.7211075  26.6249313  40.4058266
  56.4667282  26.0564137  40.5983582  54.9667015  26.0358410  40.3971558
   8.6963511  41.8196564  43.2121506   8.5400486  42.0021820  44.1386948
   9.6434774  41.9095497  43.1067772  28.7700119  71.2991943  48.9692192
  29.5406456  71.3078156  48.4015198  28.0979080  71.7607040  48.4677048
  38.4813385   3.8501804  12.3579407  39.2821579   4.3474045  12.5243311
  38.2014313   3.5504785  13.2228470  74.1856689   8.7601738  82.0967636
  74.0569229   8.4109488  81.2148895  74.9217300   8.2589331  82.4477692
  35.4067726   7.9017944  79.4787827  34.8833504   8.3262253  80.1585770
  35.5795288   8.5950165  78.8417358  22.0642338  62.4194794  64.4539337
  22.9342346  62.3807907  64.0566483  22.1392040  61.8885803  65.2468719
  69.5451584  24.5231628  36.7510872  70.0483246  25.3346882  36.6841202
  69.8484879  24.1197052  37.5643845  74.0670929  12.2932720  82.7913818
  74.0714645  12.1516418  83.7380371  73.8278275  11.4427853  82.4230652
   1.9986873  18.0925121  18.2358189   2.0822544  18.1347122  17.2832088
   2.8881292  17.9244308  18.5470638  12.9806042  64.6726151  43.1720390
  12.4340029  65.4424286  43.0144081  12.3698072  64.0050507  43.4843178
   0.9484552  69.5560684  33.5996437   1.1983361  69.6660690  32.6822052
   0.6885824  70.4323883  33.8838272  52.4930573   0.7646719  30.7813663
  52.2929688   1.1327268  29.9207077  52.2664909   1.4607641  31.3980961
  42.2468834  63.7485008  55.6909790  42.7798119  63.0063934  55.9764595
  41.4570084  63.6972542  56.2292213  48.1152687  13.0744734  63.0937042
  48.0709114  14.0113716  63.2847176  48.4318962  13.0286922  62.1915512
  53.6246796  56.5706215  82.1512909  53.4366455  55.6362114  82.2393494
  52.7830162  56.9998283  82.3049622  78.7272568  54.5325165  34.4896622
  79.4012299  54.6478500  33.8198166  77.9406128  54.2937698  33.9993248
  85.2048798  34.4302216  85.9352875  85.0113373  33.5123367  85.7448730
  84.3645706  34.8777466  85.8361282  45.0671310  41.2825928  35.6132851
  45.7326241  40.6055145  35.7354088  45.3597412  42.0082512  36.1646729
   1.0432506  56.0733719  29.8200130   0.2173531  55.6487465  29.5880222
   1.5223336  55.4100761  30.3167515  48.8870888   6.5608244  42.4530373
  49.7793541   6.8597856  42.6283073  48.4428253   7.3295650  42.0954094
  38.2715950  60.2934494  85.2612991  38.9774399  60.8954010  85.4972305
  37.8991966  60.0206070  86.0998154   3.3221090   9.5427589  20.5913162
   2.8725207   8.7738094  20.2408600   3.4350302   9.3506193  21.5222092
  17.8089733  69.7353439  44.8736076  17.5738544  68.8075104  44.8821259
  17.3817711  70.0835114  44.0909767  64.7832184  25.3482685  55.3474045
  65.3621979  25.3924332  54.5864410  65.2365570  25.8527088  56.0228767
  86.6689224  30.7077103  37.2749062  86.1439819  30.1874390  37.8831711
  87.2267990  30.0680676  36.8323402  63.2847672   1.2579677  42.9500504
  63.0621147   2.1580093  43.1879196  64.2327347   1.2725977  42.8182106
  33.1421089  25.6224422   4.2970128  32.5022697  25.9047127   3.6434364
  32.8792229  24.7293282   4.5194273  44.1134682  31.3157635  84.5527649
  44.6997833  31.8538876  84.0208969  44.2783966  31.5989361  85.4521255
   4.8216677  36.0624466  50.3951225   5.3583646  35.9862061  49.6062126
   3.9214630  36.0884819  50.0708008  55.6098862  34.7319603  84.1077652
  54.9170227  34.5285378  84.7360840  55.4095650  34.1881676  83.3459320
  65.1035004  42.1601372  55.7885437  65.7260590  42.4693756  55.1305008
  64.2460251  42.4053650  55.4409447  55.0503311  39.5438347  77.3138809
  55.2880211  40.3963242  77.6785583  54.4889030  39.1466293  77.9796524
  47.0879517  24.6527500  63.7398643  46.7595482  25.5505905  63.7874451
  46.9497490  24.3951530  62.8283958  28.7119408  29.6349964   9.3670597
  27.8651218  29.5922165   9.8112421  29.3557835  29.5480328  10.0700092
  84.8268433  62.3941002  32.9487610  85.6565399  62.2860489  32.4838333
  84.6728439  63.3388290  32.9474907  33.9982834  43.4491692  64.4040604
  34.3084946  42.7312737  64.9559860  33.5092278  44.0158615  65.0006485
  45.9592590  17.2553673  83.2974472  46.1747665  16.3237095  83.3398819
  46.4653473  17.6508408  84.0071716  75.2601700   0.5672395  71.7169266
  74.9009247   1.2449963  72.2894821  76.1938171   0.7708256  71.6613235
  53.2056313  52.6569405  87.6591873  52.7207069  53.0302315  88.3952103
  54.0765991  53.0488586  87.7227631   3.7726312  44.2659035  78.4400101
   4.0292993  44.9379997  77.8086319   4.0813270  44.5986099  79.2827759
  43.2077599  36.9872665  76.9150391  44.0790520  37.3762054  76.8388062
  43.3423805  36.0589142  76.7245865  62.5108032   4.5097351  83.7628708
  62.6588440   5.2723289  83.2036133  62.6969986   3.7592177  83.1987000
  10.0927715  63.9156036  87.7670441  10.2917891  63.1619263  88.3225555
   9.8874950  63.5358772  86.9127045  57.9258499  21.1865120  75.8739014
  58.4822350  21.9648342  75.9036407  58.5406647  20.4540253  75.8327179
  12.9258814  50.8320999  50.6383476  12.2065163  50.3597107  51.0573845
  12.8479862  50.6124954  49.7099419  65.5284576  60.1982613  68.2851868
  66.4247360  60.4590721  68.4970779  65.2255096  59.7288666  69.0624390
  11.1756821  34.9784317  32.8358841  10.6729956  35.1063843  33.6403503
  11.0061903  34.0691185  32.5896149  24.2826958  70.4013824  35.5868073
  24.2220497  69.7434540  34.8942108  24.5967636  71.1887970  35.1423225
   0.1372314  25.0095787   6.5866990   0.4742930  24.9145679   5.6958599
  -0.2210831  24.1480732   6.8003602  20.6919060  65.4760056  40.0981827
  20.4694862  65.7126694  39.1977654  20.1541634  66.0554276  40.6379318
  62.4423828  52.8038254   6.4511113  61.8124352  52.6773300   5.7416077
  62.3251266  52.0390663   7.0146947  86.5285263  65.1976929  16.9904518
  87.2647171  65.3828888  17.5735130  86.1520386  64.3859711  17.3304405
  68.6097031  15.6710377  14.6871920  68.4891434  15.0849495  13.9400644
  68.2608414  15.1830740  15.4331264  28.9783421  68.6547241  74.3769379
  28.3022118  68.5934753  75.0517197  28.6314087  68.1469040  73.6434631
  45.7517586   1.8195233  82.4671936  45.6333923   2.6990099  82.8259735
  45.5704803   1.9158491  81.5322647  67.1435699  51.0123291  49.6938095
  66.3242950  50.5201492  49.7465057  67.6830139  50.5144157  49.0795555
  40.8544922  61.2160873  13.6593151  39.9561729  60.9272614  13.4985847
  41.2684860  60.4755669  14.1025648  15.2385664  52.3722267  28.1562061
  15.7357855  51.7719460  27.6006279  15.3118687  52.0010796  29.0354729
  46.2547150  27.3154869  64.0750427  45.5345001  27.8803806  63.7950211
  46.8511963  27.9012318  64.5412521  29.5897579  54.9062462  17.8789043
  29.4977264  55.2909431  17.0072575  28.8685665  54.2800102  17.9416828
  62.2310410  48.3325005  19.8403873  61.7101784  47.5450935  19.6825085
  62.0087585  48.5913773  20.7347050   0.5990540  44.6271782   6.8290997
  -0.3100268  44.3857079   7.0065718   0.6349893  44.7435379   5.8796782
  23.4494343   0.7186559  39.4339943  23.1247940   0.0003533  38.8909645
  24.3443127   0.8651272  39.1274490   5.5142636  58.0219307  69.0940094
   6.3547473  57.8097610  69.4999695   5.7382650  58.2778931  68.1992798
  22.4419785  17.2605801  78.2165375  23.3726845  17.1999321  78.0012741
  21.9931011  17.0947056  77.3875427   6.6195664  12.1573801  44.2252274
   6.4593673  12.8776188  44.8350029   6.0581269  12.3499660  43.4742775
  10.1927385  62.2168999   0.8263533   9.8638287  62.9235725   1.3819296
   9.4443493  61.6302567   0.7168269  64.0672913  37.9915657  26.5522194
  63.7735138  37.7419319  27.4283524  64.9631042  37.6589890  26.4961662
  28.0389614   4.0171642   9.2894068  28.3418522   4.8234997   8.8719006
  27.2236061   3.8040948   8.8355007  26.2290173  44.2053452  83.5366821
  26.9736462  43.7095261  83.1962051  26.2411671  44.0387650  84.4791946
  61.5697441  18.1781425  86.6146011  62.1907425  18.7448444  86.1569595
  61.6987724  17.3148937  86.2216797  27.2115803  61.4174614  88.9408264
  26.5634460  61.6366234  88.2714005  26.7596779  60.8037109  89.5198975
  20.0041828   0.9492863  18.1328888  20.7199764   0.6273004  18.6807919
  20.4080086   1.6182206  17.5800018  10.6878071  43.1448517  44.7280121
  10.4223270  44.0374756  44.5067177  10.0606403  42.8669891  45.3956108
  29.2504749  30.8279991  88.2996826  28.5829124  30.4966240  88.9003372
  29.3595810  31.7465076  88.5459900  31.8112125  26.4061642  88.6931839
  32.4050140  25.8191948  89.1612701  32.2720871  26.6150322  87.8806610
  52.5891991  44.3519859  44.2709503  53.1685143  43.6897011  44.6477852
  52.0409050  44.6349411  45.0027580  49.8323135  52.7029419  39.2149048
  50.3157730  53.1060333  38.4937859  49.7585831  51.7810555  38.9680824
  24.2541656  64.8935013  28.1158562  23.4087124  64.8643494  28.5637302
  24.0429573  65.1664429  27.2230377  66.5314560  62.2337761   9.7511969
  65.7596970  62.3264084  10.3098097  66.7809448  61.3137512   9.8380337
  42.2257576  45.8330383  89.3190994  42.5230217  46.0550461  88.4367294
  41.2720566  45.9018936  89.2749557  67.2136078  67.3975220  11.8568468
  67.1413269  67.3578339  10.9032049  67.2957230  68.3309784  12.0521803
   7.9077368   4.0422468  17.7520027   7.9285879   4.9525671  17.4568520
   7.4886322   4.0787702  18.6117992  44.8973808  13.0287933  15.6366816
  45.8152962  12.9410591  15.8935165  44.8778496  12.7540064  14.7199793
  40.9048119  53.0197029   1.4169501  40.1941795  52.6466103   1.9385189
  41.0486832  52.3823166   0.7174721  42.4187698  18.3210773   1.2186825
  41.7289429  18.9313068   1.4794326  43.2230530  18.7056599   1.5671853
   8.8509769  62.2271233  81.7377472   8.0045347  61.8769150  81.4600372
   9.4931030  61.6155472  81.3773499  38.0879822  32.4555779  66.9229813
  38.9563293  32.1728783  66.6361313  37.5615730  32.4608002  66.1235504
  65.3110886  38.2364731  57.2073135  65.9134827  38.9485893  57.4223518
  64.6854324  38.2250595  57.9316406  66.9357147  51.9125443  70.8655319
  66.1257935  52.3118896  70.5480652  67.4148712  51.6783485  70.0706863
  48.2778969  22.6796818  24.0914688  48.1190872  21.7367668  24.0476246
  49.2192535  22.7570553  24.2466946  78.5303574  13.0051060  25.3261929
  77.7628632  13.1014175  24.7623577  78.3104324  13.4984369  26.1164379
  74.6450119  27.6341286  82.8282394  73.9788666  26.9580097  82.7043610
  74.1543121  28.4039345  83.1160660   3.4809284  67.2330627  10.1902876
   2.9718249  68.0130081  10.4110241   3.8456659  67.4218903   9.3256826
  51.9954224  23.1502743  73.9795914  52.5763702  23.6078453  73.3718414
  52.5865593  22.7053242  74.5868835  84.9417343  14.1015282   6.0375290
  85.2070541  14.0528612   6.9559336  84.4485703  14.9194231   5.9737120
  65.9130478   7.6986279  21.1221371  66.4963226   7.0519691  21.5194473
  66.4784775   8.2046785  20.5386696  40.8373337  52.9860573  19.5143661
  40.2649612  53.4932556  20.0900154  40.8280716  53.4644814  18.6853580
  71.7237930  18.1977177  78.9828949  72.5842514  18.0416203  78.5937119
  71.1046982  17.8389149  78.3471146  54.4913216  20.7609653  21.7627144
  54.8995361  21.6246452  21.8231354  55.1524124  20.2126102  21.3402290
  12.7911310  38.3295784  71.4005051  11.9888716  38.7778168  71.1327515
  12.8783045  38.5307159  72.3322678  73.2444687  33.2604980  29.0692539
  73.5512543  33.1339607  28.1714230  72.3539581  33.5980034  28.9727535
  61.7195930  70.8142090  43.6817093  61.3686943  71.1862793  44.4908218
  62.0746803  71.5656204  43.2068176  54.0029411   3.5679970  83.6324844
  54.1869812   4.2437525  82.9800186  53.6604233   2.8321340  83.1251221
  45.8785362  38.1944885   3.2331731  45.5580597  38.1633568   4.1345925
  46.4452744  38.9654312   3.2069557  47.2703857  10.6732702  60.4198875
  47.5835304  10.6737251  59.5153618  46.7291412  11.4599504  60.4863663
  80.6712341  60.2631302  37.0303497  80.0094376  60.9543343  37.0080643
  80.4563217  59.7508087  37.8098145  38.8319740  56.6563911  70.3668900
  39.7659073  56.4548302  70.3087845  38.4335060  56.1519508  69.6576614
  60.5849991  21.9052086  31.8533096  60.8658447  21.6868668  30.9646683
  59.7268982  21.4904442  31.9420147  69.1450500  41.9309845  70.6815109
  68.4272614  41.4382248  71.0792618  69.3785553  41.4269028  69.9020233
  61.2003593  49.5821533  71.3558655  62.1045074  49.7853661  71.1161652
  61.2368050  48.6858864  71.6899490  50.6214180   9.9056568  77.8764038
  50.3747520   9.2125683  77.2640152  51.5590630  10.0314598  77.7307129
  32.8657837  51.0142441   5.9530230  33.6898804  50.8731041   5.4869986
  32.9993935  51.8310509   6.4338603  76.1486435  65.2201767  57.9358826
  76.7195358  65.6207352  58.5915222  75.6294098  64.5836182  58.4272346
  59.0058899  69.2641220  35.8582611  59.2619514  70.1796494  35.9699936
  59.7509270  68.7645645  36.1923141  67.8704987  27.0461845   5.5405903
  68.0543060  27.7549477   6.1571140  66.9480286  26.8358116   5.6855969
  26.1519642  12.9860430  30.1803417  25.7699318  13.7969027  29.8445015
  26.5444794  13.2348299  31.0171623  46.8458443  45.2738190  62.6853867
  47.2955170  45.2726326  61.8403893  45.9192314  45.3653221  62.4634705
  75.0486679  40.5310974  43.0211067  74.4290619  40.5034065  42.2920265
  75.7074661  39.8725891  42.8006935  11.6630230  57.2771530  64.7781372
  11.9637823  56.4845085  64.3337402  11.4352150  56.9850998  65.6607666
  58.2925415  32.9854279   5.4897509  57.8235550  32.2071991   5.7908139
  57.6780663  33.4221268   4.8998799  58.0284309  20.7761383  32.3261795
  58.1104622  20.0967827  32.9954910  57.3689079  20.4374752  31.7207336
  27.0092354  50.3046570  17.8981209  26.5865250  50.2143288  17.0440807
  27.5836639  49.5417290  17.9629421  41.4941216  68.3733749   6.6732483
  42.3951721  68.0820847   6.8128448  41.3238716  68.9793854   7.3943591
  52.4651718  68.6013947  12.9665051  53.0076714  69.3896942  12.9441929
  53.0188293  67.9413528  13.3836956  31.1538239  19.4980392   1.7325530
  31.9380054  18.9721775   1.8899171  31.4253311  20.3959217   1.9231361
  35.0217247  56.6395378  68.7467880  35.1283913  57.5351257  68.4262009
  35.6413078  56.1246872  68.2297974  32.8170013  70.4029770  70.4642105
  32.6403999  69.9528656  71.2903061  32.0338974  70.9303741  70.3066330
   9.8878212  17.7957840  65.0270844   9.3155127  17.0423527  64.8820419
  10.0025644  18.1802101  64.1580124  40.3481140  45.6806717  78.1420441
  40.3520813  46.6220016  77.9684982  39.4267883  45.4291534  78.0777588
  22.8534718  49.0859070  43.2485733  22.4186077  48.2502251  43.4181633
  22.2950191  49.7370377  43.6732979   1.4313293  41.1733513  84.8080597
   0.6537566  41.4467926  84.3213959   2.1639814  41.5477867  84.3189316
   7.5057440  48.8593597  82.2782974   6.7916589  49.4891853  82.3764496
   7.8373880  49.0093307  81.3929977  41.7792625  10.8360739   1.4112575
  41.8775711  11.7701206   1.2265301  42.6304207  10.4575081   1.1911405
   4.0204930  25.6327209  71.3761673   4.9086781  25.5310345  71.7182465
   4.1412015  26.0095387  70.5045776  19.3787346  68.0655212  13.7296143
  19.4053364  67.9337006  14.6773224  18.7639694  68.7886353  13.6055374
  28.5456581  50.1130638  78.5657120  29.1704369  49.6818199  79.1487274
  27.7497005  49.5859985  78.6355896  30.7152328  39.7577171  15.8236103
  30.8651810  40.6950912  15.7007990  30.0109768  39.7105064  16.4701614
   5.9777265  17.4248981  16.4309502   5.0551009  17.4548721  16.1777802
   6.0100398  16.7861538  17.1431255  85.7083359  52.5158348  15.9256191
  85.7238312  52.5782280  14.9705811  84.8780746  52.0827332  16.1239109
   1.0143707  38.1996727  73.4766998   1.0690050  37.7654953  72.6253815
   0.9135508  39.1279564  73.2660980  44.4742165  17.5744457  63.0401535
  45.2603951  18.0076199  63.3725853  43.9809990  18.2718487  62.6081810
   4.3960938  23.8874474  39.6275558   4.7646828  24.5454884  39.0381889
   3.8964660  24.3930645  40.2686157  39.9542923  40.5164223  39.4194412
  39.7649994  40.4610405  40.3561020  40.9013062  40.6480293  39.3738403
   5.8897424  71.7934875  61.1225395   5.8553638  71.0550919  61.7306633
   5.0651474  71.7441101  60.6389732  33.2329559  63.0227165  74.7577209
  32.5416641  62.3700752  74.6463547  33.6295433  63.1019745  73.8901596
  83.1647415  44.4475975  22.7734737  83.6965637  45.2398949  22.8486862
  83.7854767  43.7660332  22.5158062  11.7525635  52.6658287  42.9830551
  10.7989445  52.5838394  42.9940567  11.9658966  52.8582420  42.0699806
  55.5826874  68.8541336  46.2894745  55.1309357  69.6459885  45.9977188
  55.0551109  68.1353378  45.9412956  44.5962410  22.6121674  12.7472925
  44.9197922  23.1622219  13.4607267  44.3286972  21.7985020  13.1746092
  53.0179749  43.8604050  72.1196671  53.2654037  43.1452637  72.7058258
  52.2176895  43.5543327  71.6929398  20.9292469  45.8039513  25.0756073
  20.5055790  46.6621895  25.0627689  20.6022568  45.3873291  25.8729382
  49.9079704  56.1293144  10.4923439  49.7379341  55.3902359  11.0763664
  50.7408333  56.4890671  10.7975388  75.4226456  51.9731255  31.6646881
  75.6740723  51.7401314  32.5584068  76.0413132  51.4977226  31.1101837
  55.8629723  57.4847870  35.0764046  55.6271400  57.8774719  35.9168892
  56.6148300  56.9267693  35.2753105   7.0734315  45.4549904   6.6988301
   7.1232567  44.5376244   6.4301558   7.3235812  45.4478989   7.6227388
  20.9765263  71.4117203  10.2172756  20.3694115  72.1124115  10.4553347
  20.4687462  70.6076279  10.3260040  57.3795090  52.7668266  32.4870491
  58.2141075  53.1228943  32.7918205  57.3437729  53.0006142  31.5595264
  45.6693573   1.7151622  62.8046570  46.1945038   1.9591951  63.5668259
  44.7710266   1.6818599  63.1334801  61.1007118  40.9130592  80.9737930
  60.3716431  41.4467468  81.2898102  61.6962433  41.5400620  80.5633698
  85.4452667  45.5680847  24.5066452  84.6787109  46.0448227  24.8249950
  86.0523834  45.5692177  25.2466698  37.1974564  32.3947639   7.5561662
  37.9089699  32.2390366   8.1772366  37.0256310  31.5365314   7.1686783
  18.6964779  43.5911217  42.4549446  18.0540123  44.2717171  42.2542915
  18.1733932  42.8018761  42.5953293  14.7184162  64.5506516  24.0739803
  14.7748699  64.6805191  23.1273136  14.9692383  63.6363335  24.2056828
  13.8800249  21.1197338  -0.3150510  14.1878738  20.8010311   0.5334120
  13.6588068  22.0380325  -0.1600589  64.3661346  68.4020615  36.6999207
  63.9392853  67.5474930  36.7611198  65.2929840  68.2183456  36.8529854
  66.8660507  27.2769833  29.1192417  66.8785248  27.4903641  28.1862125
  65.9363556  27.2394619  29.3439426  68.0024033   1.5180738  39.7053185
  68.1083374   1.5146068  38.7540016  67.0676041   1.3647996  39.8427734
  39.6944199  38.9721336  88.2572327  39.1760406  39.0025368  87.4531250
  39.1804352  38.4271584  88.8530960  45.8966064  70.0640564   9.4501257
  45.2698593  69.5144806   9.9206429  46.7458344  69.6547470   9.6159973
  45.9199638  63.5858192   8.0327549  46.0913620  64.3632507   8.5642242
  45.4313469  63.0020027   8.6129656  64.0288773  16.6796398  38.0146217
  63.9238129  15.7625437  37.7613907  64.6250916  17.0422363  37.3594208
   0.0045523  53.2124786  22.2784195   0.0674487  53.8656311  21.5815201
   0.6219378  53.5133972  22.9451389  17.6724758  46.2697411  42.8744087
  18.5942669  46.4738960  43.0320625  17.2516670  47.1236954  42.7748184
  58.3479080   9.9784241  35.8445740  57.9734612   9.1068192  35.9723511
  59.2123566   9.8148050  35.4674911  66.5072784  33.9652214  47.2511139
  66.2341385  34.8208656  47.5820122  65.6893539  33.5271263  47.0159416
  31.1259537   5.2423272  86.6020126  30.2326260   5.1035562  86.2874680
  31.1777630   6.1835117  86.7685013  37.2953072  47.2966766   4.7169781
  37.1504288  46.3770905   4.4942536  36.8363495  47.4169388   5.5483184
  18.2103825  15.6949921  87.2698212  17.8709869  16.0805149  88.0775452
  19.0157318  15.2514343  87.5360947  19.4411716  54.4892311  33.9055328
  20.0435219  54.1435623  34.5642586  18.6804981  54.7826500  34.4070435
  74.5050507   3.8098142  -0.0067884  74.5481949   3.8342535   0.9491262
  73.6320801   3.4671428  -0.1984572   2.6401675  13.2195539  28.6943665
   2.4471774  12.2847643  28.7661610   3.5072827  13.2547722  28.2905064
  46.4022789  36.7143631  24.6834335  45.5467491  36.3597679  24.9254341
  47.0227928  36.2434082  25.2396698  51.3627586  13.2078552  77.5785751
  51.6220932  13.4859037  76.7001343  50.6568565  12.5782442  77.4318771
  61.5769501  11.8061571  67.3000565  60.7548256  11.8120451  66.8098450
  61.3722343  12.2619038  68.1165237  13.5729361  17.4408989   1.8702189
  13.8522911  17.4385643   0.9546933  13.0195789  18.2178764   1.9498047
  28.1990662   8.5179090   3.0189617  28.7263756   9.1582108   2.5412703
  27.7697716   8.0034332   2.3354023  81.9186096  14.7300978  76.9447556
  82.3249435  14.3046293  76.1897049  81.8852692  14.0475817  77.6150513
   0.5569208  61.8158531  30.9418335   1.0415151  61.0440140  31.2345219
   1.2324780  62.4717941  30.7698078  56.0037270  63.6449699  32.9630852
  56.4119339  63.2381172  32.1988411  56.4018517  63.2012177  33.7119598
  22.4703236  30.2215252  64.2891388  23.0364628  30.9878998  64.3807373
  21.6423435  30.5731316  63.9619446  11.6654034  34.6884155  66.2354660
  12.0176067  35.1092606  67.0197296  10.7180853  34.6811600  66.3724594
  52.4546356  22.8420753  54.3277702  52.3122444  21.9715900  54.6995354
  51.6060257  23.2778587  54.4064445  21.6732769   7.0214849  16.6897335
  22.2564831   6.5762372  17.3044357  22.1384068   7.8252454  16.4576645
  72.3871536  60.8653145  60.5874825  73.3370361  60.9771843  60.5495338
  72.2565384  59.9173393  60.5647392  58.7236328  28.0706272   2.4691038
  58.3381271  27.4085407   1.8952942  58.4680099  28.9055710   2.0769880
   8.8161077  -0.0410091  58.5750771   9.6945868   0.0010937  58.1972771
   8.2497053   0.3470643  57.9081306  67.0757675  59.3934898   8.7950029
  67.9610825  59.2215080   8.4742718  66.7722321  58.5479431   9.1253748
   9.3138437  53.1530418   3.2135425  10.2126684  53.4457626   3.0630088
   9.3458157  52.7068443   4.0597787  69.1765213   1.7832060  54.9570580
  69.4327240   1.0636995  55.5340385  69.6756897   2.5351827  55.2757988
  59.9304695  22.2077408  21.4999695  59.3618546  21.5139275  21.1660023
  60.4894409  21.7707882  22.1425076  74.4584732  31.2039623  86.6932220
  75.2330933  31.0486946  87.2336807  74.5863724  32.0837479  86.3384628
  59.8768272   3.9462597  23.9211941  58.9914322   3.7354667  24.2176266
  59.7470284   4.5462370  23.1867485  60.5514717  62.6553001  47.9788513
  60.6220741  63.5965958  47.8200836  61.1824417  62.4822617  48.6775398
  68.6969681  21.6603470  61.5192871  68.4994049  20.8544426  61.9964828
  69.1795349  21.3685455  60.7458420  75.8451233   5.3814268  86.9338760
  75.2804565   4.9167905  87.5515289  75.2563248   5.9808111  86.4753036
  24.4692116  25.9836254  16.5468826  25.1529198  25.3919296  16.2327633
  24.7750511  26.8561077  16.2989540  86.3505020  27.6761398  74.8998260
  86.7139282  27.2912426  74.1023254  86.1254272  26.9241714  75.4476547
  76.6802979  70.4789810  50.8830185  77.0528336  71.2426453  50.4422569
  75.7378082  70.6456833  50.8954086   7.3481908  63.5823593  42.4445534
   6.5893393  63.8118935  42.9809227   8.0282974  64.1990585  42.7154236
  51.8155251  12.0403509   5.5672579  51.6044350  11.6071758   6.3943200
  50.9860268  12.4197617   5.2770648  52.6765518   5.6362128  57.6660309
  52.3687477   4.7450938  57.8315468  53.5717010   5.6472254  58.0048752
  81.2363739  69.6999130  25.7532692  80.3076324  69.8091354  25.9575615
  81.5118484  70.5560684  25.4256458  13.8722134  38.0863037  76.7818222
  13.3295736  38.3420868  77.5277100  14.6937695  38.5606270  76.9094849
  64.2308273  63.2620163  69.4631348  63.4941330  63.4897919  70.0302658
  64.7638626  62.6668892  69.9903183  16.6908684  50.1476936  27.3499203
  17.0814075  49.5883636  28.0213833  16.5839558  49.5729942  26.5919456
  85.0711746  26.7781525  25.1122742  84.7218628  27.6016731  25.4528999
  84.4040985  26.1269608  25.3294945   0.9685479  40.5517273  27.6922283
   1.9009947  40.5514946  27.9085026   0.8235611  39.7119370  27.2563801
  81.2727203   0.3283709   7.8836985  81.9868317  -0.2922564   7.7384348
  80.5875702   0.0518504   7.2751517  64.4218063  39.2737503  54.7333679
  64.8591385  39.0834846  55.5632896  63.5136642  39.4532890  54.9768410
  62.3512802  57.9851189  30.4441452  61.7493935  58.6841011  30.6998520
  62.9464531  58.3984261  29.8187046  63.3118401   6.6769743  62.5245094
  62.3576508   6.6350961  62.5877953  63.4838257   7.4732504  62.0219193
  45.3647728  31.7790394  87.6441803  45.3701019  32.6514473  87.2503433
  46.2663803  31.4703121  87.5546265  78.0197754  23.5609760  40.3194046
  77.3106079  24.1355286  40.0309525  77.7979202  23.3425426  41.2245560
   0.7861863  46.1734695  80.7775955   1.2840859  45.9537010  81.5650177
  -0.1250283  46.1986122  81.0696411  24.2225018  50.4188004  12.5627966
  23.9304981  49.7506180  13.1828775  25.1598225  50.2552910  12.4582691
  31.2841873  29.3093109  89.3972244  31.2290993  28.4827614  88.9176331
  30.6587772  29.8842697  88.9561920  52.4427719   2.0612650  54.8248062
  51.8581581   2.3900506  55.5077095  52.0162430   1.2654129  54.5071182
  61.3508224  47.7359543   8.0840931  60.3963203  47.7855873   8.0321455
  61.6150818  47.3331604   7.2569566   9.8049526  64.0260544  31.8792934
   9.8098879  63.5282936  32.6968765  10.7186489  64.0271072  31.5940037
   6.8122554  29.1941414  63.8005028   6.1812611  29.4787426  64.4616241
   7.5972896  29.7114716  63.9802856  39.9292831  39.5362663  41.7772980
  40.7377472  39.7272797  42.2528343  39.2308731  39.7920647  42.3798103
  62.5948257  38.4539795  72.7105408  62.8424568  39.1840858  73.2778702
  61.7544594  38.7167473  72.3350830  13.1602697  48.8439636  10.1755400
  13.1028528  47.9473991  10.5058470  12.2722034  49.0487328   9.8828974
  73.1790237  58.1959686  41.1281204  72.4934464  58.0124321  41.7704048
  73.5263596  59.0498543  41.3859367   1.8636633  27.0479755   7.2989163
   1.2367398  26.3381424   7.1598654   1.3777874  27.7015457   7.8019099
  40.0568314  69.5821915  79.5222244  39.1969490  69.7364349  79.9134293
  39.8730812  69.0719376  78.7334824  70.1603317  33.1667633  84.2638550
  69.4208069  32.8113518  83.7708817  70.0965424  32.7515526  85.1239471
  20.1937199  64.8361511  81.2112427  20.7491474  65.3053055  80.5886536
  20.7419720  64.1180573  81.5274658  46.2616806   4.5774069  68.5168228
  46.2651863   5.3030157  69.1410904  46.0158081   4.9794354  67.6836700
  67.7459335  14.7970448  54.5881538  66.9416351  15.2692194  54.8035278
  68.1297760  14.5780525  55.4372368  15.6079826  31.3398323  53.4185715
  14.8276567  31.1141567  53.9249229  16.1727543  31.7985001  54.0405731
  41.5630074  47.0959663  22.2591152  41.4910164  46.4435844  21.5623741
  41.0709038  47.8495903  21.9333649  85.2029037  35.6332016  41.5215187
  85.6011200  35.9108734  40.6965599  84.6103363  34.9232445  41.2744217
  86.1359711  22.2699394   4.6765399  86.6205368  21.4570732   4.5327497
  85.5673752  22.3485298   3.9105389  48.7368202  30.1923294  21.9944782
  49.5315247  30.6200771  21.6755581  48.9461403  29.2583752  21.9822903
  73.2493362  49.7869987  62.8736382  73.1697311  50.7313576  62.7391663
  73.0037842  49.6539001  63.7891846   8.8480930  37.2683525  11.3297377
   9.7137880  37.6481934  11.4798203   8.3087645  37.6126823  12.0416327
  17.8326550  29.4208050  77.2281876  18.0490227  29.7562008  76.3581696
  17.8583908  28.4688854  77.1311264  66.3526535  14.7436600  40.0915031
  65.5737534  14.4072838  39.6483269  66.0184784  15.1368265  40.8977165
  69.2007904   0.8592849  50.1771774  69.3155441   1.7802690  50.4113846
  68.4431686   0.5747619  50.6883316  43.8009720  60.6316147  22.7175598
  43.4672508  60.2911644  23.5475941  44.5744972  61.1401939  22.9609547
  76.3612213   4.2583137  34.6094208  77.2354660   4.5627565  34.8528366
  76.2826691   4.4738774  33.6801224  66.6624908  47.7579689  42.4438324
  67.3428497  48.2757187  42.8742752  66.1197662  47.4316254  43.1615906
  14.4620581  22.6966171  15.8692532  14.7941742  22.3416004  16.6938095
  13.7124357  22.1416035  15.6541805  56.9946556  50.1742630  23.0849953
  57.3025856  49.2780151  22.9502659  56.4182091  50.3440132  22.3399296
   1.4136244  62.2181511   7.4076929   1.0668540  63.1102524   7.3959560
   2.3082972  62.3046036   7.0785751  67.4943390  66.9217300  35.1538162
  67.4037018  66.9222107  36.1067162  68.0848007  67.6520996  34.9690170
  12.7959261  64.6616592   2.0755324  11.9684515  64.4395752   2.5023761
  12.5547571  65.2970886   1.4015120  62.8671417  44.5714111  84.8767700
  62.7033691  45.2062073  85.5742264  63.6361160  44.0839767  85.1722717
  81.2195053  51.4675674   0.4137015  81.6428070  50.6380539   0.6349670
  81.9441528  52.0801849   0.2879344   5.5280690  26.1337910  50.5638504
   5.3520303  25.9748001  51.4911919   5.0133362  25.4698505  50.1050835
  76.2609940  66.6731415  68.1775589  76.4425735  66.2920990  67.3184509
  75.3096237  66.7767639  68.1973877  57.5039330  61.1005440  57.3385201
  57.6396980  61.4688759  58.2115211  56.6436653  61.4253387  57.0726585
  67.6756668  60.4851303   0.0475650  67.4345016  59.6178513  -0.2778561
  68.0422440  60.3214912   0.9165170  29.4685135   1.1292437  20.1686764
  28.5645618   1.1506929  19.8546028  29.9327316   1.7479297  19.6047955
  17.5056725  62.6086235   9.3902168  17.9948483  61.8823891   9.7768974
  16.7763805  62.1897202   8.9331751   3.0134392  39.5671921  60.3357849
   3.4973898  38.9400177  60.8730698   3.5790279  40.3386002  60.3001060
   9.4923801  43.1915474  26.9936981   8.6941319  42.8167610  26.6214542
   9.2063866  44.0105324  27.3983002  83.2092590  43.0208282  86.0448532
  82.8872604  43.1937790  86.9295197  82.9857864  42.1041603  85.8835754
  26.2667961  20.9925518  15.5563965  25.4309101  21.3498764  15.2566509
  26.4588680  20.2845058  14.9415703  47.7418976   3.4624295  36.1702347
  47.1498489   3.2307816  35.4546547  47.2393646   3.2822354  36.9647293
   6.6610370  18.8499641  84.8426437   7.5977006  18.9839973  84.6979828
   6.5845828  17.9245415  85.0749817  66.6844330  14.4698801  60.4277954
  65.9071045  14.1281624  60.8696213  66.8722916  15.2940683  60.8768539
  50.9182472  69.3743973  44.9309311  50.6057663  69.3699646  45.8356781
  51.8137932  69.7074509  44.9884682   7.5185509   3.0048237  14.3451023
   6.5658126   2.9667363  14.2610111   7.7335849   3.9286768  14.2166986
  84.3807297  56.5111465  44.3568230  85.1642227  56.9022255  44.7433739
  84.0781097  55.8829803  45.0126152  11.9922686  21.4284401  21.9949265
  11.9921513  21.3913078  22.9514065  12.8796625  21.1706276  21.7453346
  60.5360870  67.3330917  46.1592026  61.0847359  67.3996277  45.3776703
  59.7401428  67.8151321  45.9348221  56.8978043  26.2339172  73.6832657
  57.2488708  26.0492382  72.8121262  56.0148163  26.5655804  73.5202866
  69.9972687  41.9327354  63.9220619  70.7792816  41.6863060  63.4281349
  69.7398224  42.7790413  63.5563812  13.4904404  65.7905884  60.7296562
  14.0698242  65.2647476  61.2810478  13.3952427  65.2791519  59.9261627
  48.9189987  35.8486710  56.3595886  48.4296303  35.7888908  55.5391159
  49.4535751  35.0548706  56.3780022  71.4387512  35.5548096  85.2280502
  71.8243561  35.1754150  86.0177307  70.9092178  34.8489227  84.8571701
  73.3318787   0.2777235  25.9428291  73.4268723  -0.5364643  25.4485550
  72.6092148   0.7356178  25.5135117  71.9024734  46.8132553  31.3481712
  71.7378311  45.9780960  30.9104137  71.8385468  47.4658699  30.6508636
  43.7625084  14.6960201  17.4136734  44.1362953  15.5646544  17.2653923
  44.1218414  14.1571465  16.7088871  19.5002232  57.8594856  87.8252869
  18.6315594  58.1761436  87.5775375  19.3283443  57.1101761  88.3955765
  36.9405479  57.2752304  48.9728851  37.6685562  57.6807632  49.4438133
  36.7522774  57.8806381  48.2557640  49.2532501  71.1841049  77.8722687
  49.2749863  71.9712219  77.3280182  49.4053154  71.5036087  78.7616653
  70.2385025  63.6257935  33.8457756  69.5596390  63.6497002  33.1713829
  69.7555161  63.6325150  34.6721573  39.5668106  48.4569321  71.3487167
  39.3659439  49.3903656  71.2810364  40.5231857  48.4174614  71.3533554
  45.6902847  67.2104797  25.7788563  45.8683701  67.9777679  25.2349968
  45.9172745  67.4880676  26.6663532  48.1837120  17.0164280  73.6318665
  48.0853996  17.8785172  74.0360565  47.2951164  16.7691288  73.3759842
  19.1183968  62.8190155  25.6863308  18.5612926  63.5593796  25.4460678
  20.0112553  63.1524963  25.5978642  52.1974907  44.8340302  28.9630909
  53.0096855  44.6826286  29.4464664  52.3960114  44.5572586  28.0685425
  56.6293678  19.2811680  78.9066010  56.5586433  18.3329620  78.7964249
  56.7448120  19.4048748  79.8487244   9.8388882  49.1284981  57.4142265
   9.4218473  49.1423073  58.2756920   9.9074545  48.1989861  57.1961937
  76.1565628  17.8346081  17.2470112  76.1777115  16.9340401  16.9233437
  75.3240433  17.9015713  17.7146225  26.6822586  47.7430687  66.7485123
  26.0250378  48.1890182  66.2142715  27.5157490  48.1205750  66.4674149
  69.6579666  26.5587940  41.0183334  68.7526932  26.2525139  41.0723152
  69.6342239  27.4422722  41.3859406  64.6972046  26.1212883  21.1795082
  65.4226074  26.0374355  21.7983685  63.9184380  25.9059181  21.6927109
  71.7640152  53.5436287  83.3462601  71.7804871  52.5984726  83.4967270
  72.1168442  53.6517372  82.4630508  49.3297958  34.0735397   0.9176207
  49.1225662  34.3000908   1.8242426  48.5359268  34.2908821   0.4289819
  58.7390175  49.2368660  46.5677109  58.7899590  48.6500359  47.3222122
  58.1848145  49.9592400  46.8631134   2.7521966   8.0767317  36.8048363
   2.4901717   7.1993418  36.5259781   3.5652614   8.2464285  36.3290634
   9.0078678  71.6410522   7.8470783   9.7511072  71.0782547   8.0640659
   8.3006716  71.3329849   8.4138241  64.7899399  50.4060516  84.3736038
  63.8870430  50.7236595  84.3622131  64.8988266  49.9635696  83.5318298
  68.7918930  49.3418999  43.3070984  69.7353745  49.1859055  43.2652855
  68.6445618  50.0792465  42.7147789  50.3914185  39.0563545  82.2075272
  50.4056854  39.8568573  81.6829147  49.9940147  38.4011383  81.6339417
   4.3768301  40.6527100  43.2046318   4.0237951  39.7822647  43.3888206
   3.6453686  41.1298485  42.8127975  23.8973999  45.2750320  75.3607330
  24.4365425  44.7992325  74.7289352  24.4637737  45.3843231  76.1246109
  23.8467789  53.2019730  55.9627304  24.6524944  53.3295403  55.4619484
  23.1671143  53.6190338  55.4332504  71.6232758  61.3584175  41.0188866
  71.9395218  60.7100143  40.3897667  71.6457062  62.1871567  40.5404358
  29.2841091  54.7745514  44.9572449  29.7625294  55.3202248  45.5814133
  29.9630871  54.2650833  44.5149040   8.8919477  37.3141899  14.4086781
   8.0454092  37.1376953  14.8191099   8.9184618  38.2663498  14.3142328
  22.7561684  69.8384781  71.1852646  22.5292225  70.5028229  71.8359451
  22.2362404  69.0737381  71.4323883  31.2805424  57.2084885   4.7351770
  31.9626598  57.3740692   4.0843840  30.5564919  56.8341637   4.2333164
  65.5264435  56.9982452  19.1630936  66.3140640  56.9888611  19.7069645
  64.9695358  57.6682091  19.5596218  85.0011520   4.6726737  60.6145134
  84.8252106   4.9834003  61.5026169  84.2327347   4.1490622  60.3873405
  68.0345154  45.8396263  69.5717163  67.5846786  46.6785622  69.4713669
  67.6651306  45.4638634  70.3708267  18.8792439  59.8820076  16.9518948
  17.9564266  60.1360207  16.9410667  19.3471947  60.6886940  17.1675644
   6.6035786   5.7556353   0.2613937   6.5288305   5.1255116   0.9780446
   5.8144569   5.6173267  -0.2624284  69.7486420  56.4857864  21.9496422
  69.9811249  56.8493843  22.8040314  70.5308533  56.6153030  21.4133511
  74.4752045  49.2863998  46.8974190  73.5872726  49.2551537  47.2535439
  74.7464218  50.1974640  47.0098305  86.1409760  51.9642334  82.6021576
  86.0514145  52.0997353  81.6588364  86.3106613  51.0267220  82.6944122
  32.3645439  25.9244728  81.6250000  32.0113106  25.0515633  81.4532852
  32.6048584  25.9076233  82.5513916  10.9675884  42.9771767  38.3843994
  11.0641031  43.4454803  37.5551796  11.4766941  42.1751175  38.2671700
  68.9956207  25.3316803  21.8983212  68.9789810  26.2491684  21.6259823
  68.5092926  24.8701897  21.2151394  80.9800186   8.0497637  62.7215424
  80.1128769   7.9627328  62.3256645  81.4495621   7.2627511  62.4451828
  49.5174751  32.4905396  64.5453262  50.3796272  32.3959808  64.9502716
  48.9209595  32.6278000  65.2812347  71.1465454  26.5918598  56.2471313
  72.0369873  26.8949165  56.0696564  71.0755234  26.6030102  57.2016296
  11.5585041  39.9281311  87.1708298  12.3246069  39.7129707  86.6388245
  11.8278189  39.7331848  88.0684357   6.9189315  17.3939476  79.8564606
   6.8134131  16.8962765  79.0456467   6.2614002  18.0872097  79.7992630
  79.1801758  67.0233231  41.4832573  79.7655487  67.0579147  42.2398071
  79.1099091  67.9327469  41.1930084  52.0504150  39.9839478   0.5073140
  51.5919724  39.6781921   1.2899833  51.5588074  39.6052856  -0.2214961
   4.7333722  70.5784454  83.4369659   4.3657188  71.1444473  82.7582169
   5.4256496  70.0895309  82.9920578  69.7981033  20.9010754  15.8003864
  69.9102402  21.3935947  16.6134567  70.2976761  20.0961132  15.9371262
  66.3334732   4.2742515  84.2534103  67.2310181   3.9503086  84.3289566
  65.8892059   3.6241231  83.7091751   6.2978611  19.6378593  53.3815842
   5.7352819  18.9594364  53.7550507   7.1364346  19.2000217  53.2355537
  43.1423950  70.0511703  25.9398842  43.4306068  70.9556961  25.8173752
  43.8379478  69.5230255  25.5480957   8.6629086  45.8452682  52.1733665
   8.0596447  45.7197456  52.9058609   9.1390896  45.0172882  52.1106644
  10.5791950  39.6556740  70.8283310  10.0515232  39.7163544  71.6246414
  10.1644220  40.2663803  70.2190399  46.9920502  63.0996361  55.4105186
  46.2548790  63.6075897  55.7493248  47.7465630  63.6812744  55.5034904
  56.2532845   4.7111716   1.1170241  56.3368607   4.6903076   0.1637078
  56.3578606   3.7987037   1.3866495  80.8100967  24.6738129  82.3279419
  81.5493240  25.1450672  81.9436264  80.6770172  25.0904446  83.1793747
  79.2896042  56.8645782  65.2057953  79.5754395  55.9537468  65.1356735
  78.3340988  56.8143539  65.2326813  53.1572495  52.1020737  11.0682411
  53.0412903  51.6876335  11.9232407  52.9552116  51.4108658  10.4376526
  12.7754536  36.3091469  68.6403198  12.7173023  36.8333511  69.4391022
  13.0455704  35.4418640  68.9421310  83.5586395  57.1454964  16.3064690
  84.3196793  57.7018166  16.4724884  82.9830170  57.6831436  15.7625742
  15.7142086  19.8368530  14.2195139  16.2113647  20.3303986  13.5672264
  16.1534996  20.0257339  15.0487175  54.3477173  46.8675880  22.0168209
  55.0003052  46.7174721  21.3328438  54.6195297  46.2978706  22.7363834
  41.6470184  27.8101559  16.0005817  42.3665237  27.2464046  16.2847061
  40.9539642  27.2023487  15.7427464  83.4746246  47.9418068  59.7791824
  82.6290359  48.1907082  59.4060135  84.1094818  48.1497002  59.0936432
  38.0131531  39.6941223  67.8258209  38.5644073  38.9740257  67.5195312
  37.6049614  40.0379829  67.0312271  61.7465439  37.2324257  12.5022736
  61.2840767  37.2389030  13.3403149  62.4930573  37.8163986  12.6361504
   6.8473005  39.3816795  38.3671341   6.6022058  39.7674065  39.2081909
   7.5734053  38.7938919  38.5757179  80.9195099  70.8037262  32.1469688
  81.3255768  71.0486221  31.3154812  80.6599731  69.8902435  32.0268974
  32.0429459  50.4473915   9.7028437  31.9878235  50.0085182  10.5517159
  32.1706772  51.3711548   9.9186554  46.8836670  31.7377758  20.5971355
  47.7963867  31.6040554  20.8526592  46.9344978  32.1892853  19.7546463
  73.2783127  63.3396301  19.8683777  73.1350098  63.5895767  18.9555683
  72.6828079  62.6040421  20.0116062   7.0031872  68.3301163  69.6259689
   6.8037429  68.5038452  68.7060394   6.3124399  67.7324142  69.9120636
   4.0993390  53.8169441  49.8899193   4.1516500  54.5762405  49.3094330
   3.1954942  53.5131836  49.8060913   3.3960881  68.5877609  66.3455124
   2.6064861  68.8334732  66.8275757   3.1945350  68.7965698  65.4333725
  58.6178322  36.0773544  11.9757271  59.0989342  36.1365852  12.8011150
  59.0739098  35.3965836  11.4809818   5.0952315   7.3657022  68.0578232
   5.1202569   8.3183231  68.1479340   5.2190900   7.0375433  68.9484482
  73.6078796  44.1449242  39.0356560  72.9007263  43.4998779  39.0262299
  73.4579010  44.6531067  39.8328323  59.7623634  55.2736244  30.9989834
  59.0677528  55.7139206  31.4887657  60.1814651  54.7002449  31.6407146
  63.5698433  41.7690544  14.0194540  64.4858398  41.6185989  14.2530003
  63.3191452  42.5449066  14.5208883  78.6895218  38.4060631  22.8858185
  78.8057556  39.3529930  22.8080673  79.0448074  38.0533524  22.0699749
  78.2212753  62.9318161  44.9474182  78.6658401  63.1103287  44.1187286
  78.6726532  62.1654091  45.3011246  40.3084564  70.0600204  46.3803520
  39.9338226  70.6067734  47.0709572  40.0975952  69.1641235  46.6432838
  55.8839302  17.1970940  57.0447845  56.6162338  17.7855453  57.2283134
  55.1095505  17.6823807  57.3295059  34.1716690  42.6671371  61.9628525
  33.9782181  43.0740051  62.8074036  34.9940872  42.1986084  62.1054916
  61.5273018  65.6865311  15.7148180  61.4697495  64.8883972  16.2400799
  60.6196861  65.8912506  15.4899673  15.3785677  -0.0963273  51.7977791
  15.0143318   0.3698996  51.0453224  15.1907949   0.4714680  52.5451622
  16.5990372  60.0167007  34.0728035  16.8742428  59.1161499  34.2445679
  15.8176031  60.1354523  34.6127014   0.6920763  20.9339237  77.8469391
   1.6376998  21.0768757  77.8868484   0.5789531  20.2677307  77.1689835
  25.5975266  35.6583710  73.1680450  24.9927101  35.8965340  72.4654083
  25.8633766  34.7622681  72.9617538  69.0845032  40.4397163  56.3232155
  68.2406311  40.7605591  56.6413078  68.9414902  40.2726364  55.3916206
  67.1297150  54.5113487  10.0811024  67.6745300  55.2819710  10.2409315
  67.3498230  53.9105759  10.7930422  14.9452467  16.1542282  60.5801849
  14.9125996  16.9496078  61.1117287  14.1603870  15.6666756  60.8302269
  61.9801598   6.5573707  29.2805614  62.6402321   6.9204707  28.6900578
  61.2278633   7.1418114  29.1872501  32.9455566  48.9565125  49.3072701
  33.4344063  49.7579918  49.1204834  33.5022240  48.2530937  48.9732666
  54.7699165  41.9473534  68.7287140  55.3954086  42.5120430  68.2747116
  55.1191521  41.8682060  69.6164017  79.2034760  29.6858196  53.7633743
  78.6487427  29.7592220  54.5399780  80.0266876  29.3230991  54.0904694
  67.1955414  46.3142281  62.9152985  67.6384430  45.5149307  63.2002411
  66.9334412  46.1339798  62.0125008  85.2202759  25.7859898  80.4146194
  85.3718262  24.8429794  80.3514252  85.3158798  26.1046124  79.5170822
  76.7275620  30.4492607  87.9998016  77.1866608  30.0557861  87.2577438
  77.3211670  31.1310558  88.3144836   7.9565830  34.9978065  53.0924377
   8.2685766  35.7357483  53.6162071   8.5111265  35.0064049  52.3122864
  62.6358643  10.5544348  28.8385181  61.8999214  10.0517330  28.4893608
  63.2700577  10.5797167  28.1220036   2.7986510  25.4474354  47.3317451
   2.9184594  25.1483841  46.4303856   2.1850820  26.1787930  47.2618904
  41.8856201  63.4797325  14.9394627  42.0768318  63.7276764  14.0349216
  41.2013283  62.8144798  14.8659115  54.4341698   9.3710384  71.3330917
  53.6174164   9.3130970  71.8288651  54.2818985  10.0744381  70.7020035
  80.0741653  26.5158863  14.7406807  80.2546082  26.2240582  15.6342735
  80.3468857  25.7823658  14.1894970  67.2825623  10.5283041  14.4971094
  67.9720917   9.8658419  14.4531946  67.4405365  10.9839907  15.3239279
  49.3170509  37.1794357  80.5530930  49.6476364  36.3980865  80.9963074
  48.5816536  36.8638115  80.0279236  41.3345261  32.2861137  87.4337006
  41.8847237  31.5168629  87.2861633  40.6055107  32.1799393  86.8225632
  48.9070587  49.8777199  88.4915237  49.2425842  50.0740089  89.3662415
  49.2877541  49.0267563  88.2743607  22.7564621  62.0915108  33.7628593
  22.0506535  62.6428146  34.1006927  22.5716648  62.0125542  32.8269920
  17.9018002  44.6595230  37.9654579  18.5100060  45.2590675  38.3977356
  17.6568604  45.1088409  37.1565399  56.1098557  32.9679451  79.3027802
  55.6535950  32.2217827  78.9138107  55.9943619  32.8540573  80.2461395
   2.7654285  44.2852249   0.9569643   3.5217154  43.7013931   1.0152727
   3.1272037  45.1604385   1.0960883  61.9364128  58.1493073  78.7893295
  61.3849716  58.6764412  79.3674927  61.3614845  57.9103889  78.0622711
  69.0575485   8.8915701  61.7492867  69.3386002   9.4918461  61.0587044
  69.7365875   8.9634199  62.4200821  56.3468552   2.5760841  10.7082729
  55.6278305   2.4979300  11.3352728  55.9197006   2.5674970   9.8517113
  39.3460312   1.4060009   7.7603693  38.6567612   2.0136638   8.0284796
  40.1452675   1.9327084   7.7662182   2.1747060  65.0684280  32.9805641
   2.1201103  64.4785004  33.7323837   1.4917425  65.7204437  33.1376381
  34.6737175  58.0810814  71.1959610  34.6126175  57.4756355  70.4570847
  33.8692245  57.9339600  71.6933289  52.5870552  23.9061317  22.1500320
  53.0626945  23.8034153  21.3257446  51.6887054  23.6495800  21.9417572
  17.5258541  24.0468369   4.8623581  17.9462032  24.2938728   4.0386400
  17.5447903  23.0898247   4.8633327   9.5870104   6.8397427  68.0592117
  10.1454601   7.3810439  68.6172104  10.0610962   6.7822447  67.2296524
  56.0759506  56.7995415   3.9567611  56.4692688  57.4972878   4.4808645
  56.6926689  56.6636391   3.2374392  46.6239815  14.2004824  40.1588898
  45.7179947  14.3169498  40.4449959  47.1444817  14.6567249  40.8200645
  11.6617060  70.9774704  11.8029690  11.0324545  71.6296310  12.1111307
  12.2357540  70.8251114  12.5536261  56.9177361  68.1558380  66.9088745
  56.1552124  68.2806168  66.3438797  57.5773926  68.7531357  66.5562820
  48.4886246  42.8627625  79.4599228  48.1083374  43.7411423  79.4518280
  48.2962570  42.5265350  80.3352356  78.6212311  45.4741364  85.6592636
  79.2982025  45.8697281  86.2083054  77.8120804  45.5870934  86.1580048
  51.2885818  18.2267818  54.8848763  50.4940453  18.5589657  55.3027267
  51.5271721  17.4572182  55.4016724  33.5319405  20.4004345  14.9465866
  33.7537117  20.6111984  14.0395985  32.6521072  20.7576008  15.0672245
  38.4300270  18.4628143  84.9057083  38.9784584  18.3419685  85.6808624
  37.9786377  19.2929134  85.0587234  27.8570652  51.5297318  31.3155441
  27.1457882  51.5401459  31.9560184  28.2947006  52.3733139  31.4298897
  18.9045887  46.5004807  27.3715134  19.1569633  47.1374092  26.7030373
  18.1578350  46.0376434  26.9915504  33.5096626  -0.2502241  64.7300262
  34.3256340   0.2461558  64.6665497  32.8219147   0.4149771  64.7027740
  49.3357811  53.2955666  14.2287235  48.8333702  54.0602417  14.5099430
  48.6946716  52.5854034  14.1991425  22.1194992  26.0161858  81.6269760
  22.1961823  26.4532623  82.4751053  22.8179626  25.3616886  81.6308060
  83.6503296  18.5286369  15.2394466  82.9850311  18.6412411  14.5605288
  84.4737244  18.7572269  14.8081675  68.7060242  38.6781464  80.2695084
  67.7839737  38.5601578  80.0411758  69.0240555  37.7928925  80.4467468
  46.3423538  71.1075439  37.0640602  46.0422668  70.4796677  36.4068298
  45.7234154  71.8349533  37.0005684   7.2000327  36.9189415  58.6838417
   6.7856793  37.3960915  57.9649010   6.8037572  36.0481606  58.6531944
  48.5647926  64.1841660  29.7835045  48.4503326  64.1178360  28.8354893
  49.4718628  64.4684601  29.8959236   0.6927747  17.1488132  87.9111786
   1.6380690  17.2982712  87.8935013   0.4844645  16.8285694  87.0335236
  71.9756622  28.7410583  40.7565689  71.2460480  28.9356651  41.3448029
  72.1636276  29.5741749  40.3243446  75.2341995   7.0972333  34.2691612
  75.5860748   6.8048053  35.1099358  75.0717621   8.0327950  34.3898621
  11.0607834   8.8767185  69.3308868  11.9593687   8.5629787  69.4325867
  10.8360596   9.2413111  70.1869278  44.6645699  38.0353394  80.8956757
  45.1647224  38.7874527  81.2125473  45.1733322  37.2743301  81.1754150
  77.9369965  49.5207558  35.6640739  77.6089783  49.6324120  36.5563583
  78.0624924  50.4132195  35.3415909  27.6551056  56.9644623  55.9563255
  27.4995384  57.1899452  55.0391617  27.9342422  57.7858315  56.3608780
  79.9689865   0.2952766  48.7304192  80.2638474   0.4510289  49.6276512
  79.3959503  -0.4686438  48.7958298  57.2118950  24.5791740  61.2761917
  57.2863235  23.7089233  60.8845901  57.8685684  24.5854034  61.9725952
  58.5112343  15.3724337  36.9444771  57.6874771  15.6914549  36.5758591
  59.1792564  15.9475088  36.5712891  11.3613386   4.2795787  21.9519634
  12.3011198   4.2453966  21.7734261  11.2329168   3.6681476  22.6771469
  10.3331747  36.3113976  54.1615715  10.4522924  37.0198784  53.5290413
  11.1406374  35.8005981  54.1039467  83.0584717  63.8635674   8.3539619
  83.8349991  63.8341675   7.7950516  83.0481415  63.0138245   8.7944927
  42.1338615  42.8987236  14.9251003  42.3611298  42.9051132  13.9952927
  41.6481743  42.0830078  15.0473471  40.8942184  58.9398232  22.4791393
  41.5439072  59.6403809  22.4211788  41.0054474  58.4423866  21.6689434
  19.7569427  34.1932869  12.5455275  18.9188271  34.6552505  12.5651197
  20.3785267  34.8082008  12.9350748  48.8923950  38.7777443  75.2344589
  47.9368629  38.8341599  75.2314453  49.1678391  39.4144211  75.8940048
   6.0070615  22.7417641  29.4163780   6.8697944  22.3281765  29.4458351
   5.4870319  22.1710243  28.8506413  72.7932434  37.7772942  57.7265167
  72.3855438  38.3637810  57.0892982  72.6969757  36.9047775  57.3448410
  85.7053528  54.8107224  17.2197437  84.9319839  54.8470345  17.7825985
  85.5965347  54.0047989  16.7148914  27.5106812  47.8744507  44.4568176
  28.1342258  48.6006317  44.4477959  27.9885578  47.1535072  44.8668289
  47.5986938  44.8124313  35.1438675  46.8743401  44.4490547  35.6532822
  47.7309837  45.6882668  35.5066910  52.0675697  68.1280212  38.0730515
  51.5678291  67.8368530  38.8357506  51.8867035  69.0659943  38.0120316
  74.3712006  46.4472389   0.9738154  74.8256836  46.8955879   0.2606128
  74.2711716  47.1156082   1.6516870  54.1100082  62.3516083  29.8180199
  54.1215324  61.3976669  29.7399807  54.9594612  62.6301880  29.4758778
  69.9151993   8.8363714  85.8587646  69.2425308   9.3891439  85.4610443
  69.5010681   7.9774022  85.9417953  72.9506683  70.2329025  35.1286469
  73.6360397  69.9552460  35.7364349  72.3940887  70.8156128  35.6452713
  33.4684601  36.8643188  13.0754986  33.8913193  36.8766708  12.2168541
  34.0122528  36.2782707  13.6018734  37.0233574  42.8554573  25.1130638
  37.3506927  42.3590126  25.8631477  36.7439346  42.1873322  24.4871559
  18.8166046  67.7566986  16.2808266  18.0927849  67.1322937  16.3301277
  18.6207809  68.4043274  16.9579258  13.0220079  67.2889938  75.2976303
  12.1438618  66.9245758  75.4084778  12.9244356  68.2174835  75.5088882
  61.2828026  50.2900009  62.7790718  60.8060722  49.8791122  63.5002708
  62.2053452  50.1397972  62.9854317  32.0976181  47.0982056   6.6284041
  31.7628994  47.7116318   5.9742622  31.3627338  46.5104828   6.8037734
  76.9248962  19.9581966  61.2060051  77.0079956  19.4884567  62.0358658
  77.8201599  20.0145683  60.8719978   6.7308693  55.5608139  32.7313805
   7.0886583  55.2340584  33.5568771   7.2173314  55.0883827  32.0558090
  33.7409973  24.5261307  74.9383011  33.2401428  24.9020500  74.2143784
  34.1006355  23.7129345  74.5838928  12.2966185  52.8320923   2.8702345
  12.2639961  52.7742729   1.9153394  12.0108452  53.7244034   3.0660574
   3.4184511  26.6150761  77.0802155   2.5599899  26.5672817  77.5009232
   3.3810375  25.9588413  76.3843765  54.3081665  48.3212547  25.8608379
  53.4984474  48.6490097  25.4694786  54.5498428  48.9873047  26.5044212
  85.5725250   7.2174292   2.7300301  85.6780014   6.2695627   2.6484478
  84.6563873   7.3357649   2.9808764  49.2149658  14.1532841  16.9500122
  49.4587479  15.0748787  17.0364246  49.7302589  13.7053127  17.6208515
  33.6920662  31.4752369  67.2960281  33.0136795  32.1242981  67.4824142
  34.4567490  31.7811852  67.7837677  62.9333916  47.9616165   1.8901185
  63.1128464  47.1772461   2.4085679  62.4573631  48.5393105   2.4866917
  27.1571465  11.5669575  70.6168518  27.4283142  11.9507484  69.7829437
  26.5697842  10.8520060  70.3717346   8.1644535  60.3012962  64.4352798
   8.3134031  59.5007439  63.9321289   8.9365377  60.3791008  64.9956970
  60.0446815  37.5271225  77.4364014  60.1048622  37.4157104  76.4876175
  59.3944168  36.8812981  77.7126236  13.5770149  56.0520172  74.9522095
  12.9059410  55.3712158  75.0011826  13.1763172  56.8138580  75.3708725
  50.0889435   9.4492455  46.1669884  50.9320908   9.6948814  46.5477791
  50.1108932   9.8128204  45.2817955  24.6511993  60.4243698  31.6114101
  24.5293846  61.1380806  32.2375183  25.4604416  60.6455917  31.1505184
  30.9046249  59.6509247   1.6523918  31.6820412  59.8840790   1.1449538
  30.2378101  59.4571571   0.9935716  38.0664520  47.8027458  75.4512100
  37.7898903  47.8595886  74.5365982  39.0155487  47.6863518  75.4076462
  56.4393501  33.4931564  10.6369333  56.3504639  33.1764565  11.5358391
  56.3357391  34.4422226  10.7060175  34.1109352  15.5600491  66.5822678
  33.4944725  15.1426105  65.9806442  33.6193581  15.6603336  67.3974533
   8.8397999  41.9119568  46.4408646   8.0665731  41.5305405  46.8566399
   9.3960581  42.1819000  47.1715736  22.0691910  13.5371475   8.5941324
  23.0202713  13.6100616   8.5143728  21.7881260  13.1514235   7.7644033
  30.2213802  38.1397629  68.0953369  29.5323944  37.5472183  68.3960495
  30.6809158  37.6472282  67.4152908  82.6742935  17.0066109  62.0534782
  82.4089508  16.1113167  62.2639008  83.5386047  17.1006451  62.4539337
  41.9992943  28.3667431   4.2425718  41.4300919  27.7666588   4.7243772
  41.4060440  28.8492794   3.6668608  35.2791748  69.0729294  14.2484226
  35.3473892  69.7946625  14.8734684  35.9712830  69.2431946  13.6094971
  69.5436783  31.7125607  12.0538082  69.1812515  30.9536991  12.5109835
  68.9545135  31.8490620  11.3118582  19.0381107  10.9969521  79.2378693
  18.2441254  10.4829454  79.0908432  19.7234821  10.5173883  78.7725525
  78.0420074  36.8436241  71.0535202  77.1190796  36.8403091  71.3073425
  78.5179901  36.9036942  71.8818054  50.9030342  32.9030533  75.9539032
  50.1020927  32.6504402  75.4946594  50.8731842  32.4122391  76.7751465
  27.9796200  50.3286285  71.2537918  27.1670284  49.8701935  71.0398636
  28.0057240  51.0666428  70.6447906  52.1860962  22.5099430  32.6747704
  52.6847115  22.5701714  31.8599167  51.2756920  22.4219799  32.3925400
  60.2057152   1.0772146   0.9784763  60.5801773   0.6892052   1.7693354
  60.3012085   2.0210073   1.1064154  16.1098652  51.0790024  71.3889465
  15.2678041  50.7732582  71.0517731  15.9150095  51.3909645  72.2726517
  33.6752777  30.7030392  70.9187546  33.3712845  31.4143448  71.4825516
  33.0561638  30.6947346  70.1887817  67.5628891  53.4477119  56.1931076
  67.0272598  52.9791336  56.8332443  68.1078033  52.7692909  55.7943153
  16.1400089   6.3851314  25.6052055  16.9760227   6.1370273  25.2105427
  16.3821583   6.8810110  26.3873177  64.1657715  20.0655308  35.6933403
  63.3669548  20.3086166  35.2253304  64.3856583  20.8404713  36.2103996
  67.5201569  32.1473808  84.2853012  67.6932907  31.2173786  84.1391907
  67.3705597  32.2179260  85.2281036  45.3201942  50.0663376  30.9768543
  45.7457619  49.6131287  30.2490311  44.4555397  49.6604538  31.0390167
  28.4859028  49.1297913  61.8933525  27.9924393  49.1859741  62.7116241
  28.0466290  49.7448769  61.3060379  61.7006531  33.1470146  50.0279503
  61.4514084  32.4380302  50.6207809  60.8915901  33.3697815  49.5674896
   1.2406520  57.5122108  15.6379261   1.4723618  56.9017029  16.3377991
   0.3016934  57.6603165  15.7504120  80.3140182  51.4825821  55.5810242
  79.8319855  52.0855560  56.1469688  79.9000320  51.5766373  54.7231178
  66.6606140   8.8889046  75.4613419  65.8764420   8.4283552  75.7599945
  67.3380814   8.6412268  76.0905762  13.0997658  38.2751884   3.8778889
  13.1584253  37.3202858   3.8471470  13.4685650  38.5105247   4.7292624
  42.2276764  37.9788933  85.4349518  42.3995590  38.3296585  86.3088226
  41.6941910  38.6494598  85.0083771  79.5662766  65.9321136  56.5367012
  79.0302963  65.8380127  55.7492332  80.3820038  65.4773102  56.3269768
  74.2490082  27.4669228  34.9669342  74.9086685  27.2201920  35.6151581
  73.4453888  27.5807114  35.4743652  47.4784660  31.1940060  43.1508865
  47.9501953  32.0030670  42.9530945  46.8122902  31.4545555  43.7869339
  29.9274673  68.9756393  30.7752438  29.4421215  68.2968903  31.2442570
  29.5024166  69.7942047  31.0311947  86.6401749  32.3265381   4.7652955
  86.2164612  32.9838486   5.3172431  86.2953644  31.4909992   5.0802736
  25.5120792  46.5876770  68.8666153  26.2618828  46.6535721  68.2752762
  25.6089077  45.7305527  69.2815781  30.2550888  34.9778938   9.9473143
  31.1600685  34.8232727  10.2181187  30.3241711  35.6065369   9.2287951
  75.3873291  68.6859512  27.1028290  74.4517670  68.5404892  26.9621143
  75.6114426  69.3990402  26.5049114  14.0848942  30.6642342  70.9838104
  13.2454634  30.3056793  70.6956635  14.6391888  29.8959522  71.1206818
  16.2022781  43.4011154  31.9994717  15.7999620  42.5695343  31.7487755
  16.7608032  43.1817703  32.7452393  57.1008224  62.5819626   4.6456671
  57.0933418  61.7487259   4.1746149  58.0284233  62.8052559   4.7226586
  64.8046341  11.4659271   4.6650057  65.0516434  11.4041624   5.5877204
  65.6006088  11.7617617   4.2232628  25.9530716  52.7141266   2.8932300
  25.4599953  53.1957588   3.5574129  26.3931484  53.3933945   2.3821883
  48.4330025  68.9358597  34.4149094  48.6733704  68.4919052  33.6016655
  49.1697121  68.7724228  35.0037842  78.7353516   6.1634207  57.1797523
  78.4168549   5.2659183  57.0834160  79.6815872   6.0711412  57.2909164
  22.9125061  48.4511986  39.6883354  23.4699268  47.6886711  39.8434677
  23.4105072  49.1879539  40.0424805  18.4013653  57.4889603  11.3281269
  19.3263378  57.5297050  11.5710201  18.3804817  57.7768631  10.4154892
  39.7980461  57.9184837  83.5932083  40.3019600  57.1445389  83.3415833
  40.2053986  58.2153740  84.4069366  53.2125320  61.8943138  80.8765030
  53.5037842  62.7382126  81.2218170  52.4095955  61.7016487  81.3606644
  67.7396927  68.3462677  80.6385498  66.8373260  68.4172287  80.9498901
  68.2390366  68.9213486  81.2183533  20.1362820  18.7492676   8.6281385
  19.7063732  17.9710159   8.9827290  20.7968407  18.9770393   9.2823658
   4.1156139  16.9484768  70.5988007   3.2187235  16.8509560  70.9186630
   4.3897328  17.8099613  70.9133377  40.6953850  34.2043610  76.2389755
  40.4530411  33.3303833  76.5450211  39.8780746  34.7019806  76.2637482
  42.4789047  62.8681908  25.1651115  42.8622894  63.7060318  24.9057407
  41.5344772  63.0019646  25.0851746  53.3158684  27.0523853  85.8254395
  53.3297005  26.3338242  86.4576645  52.9637413  26.6612110  85.0259247
  22.0663929  63.5120583  50.2711334  22.6247597  64.1191711  49.7854691
  22.4824543  63.4388962  51.1300735  46.3882675  18.6883831   8.1659689
  46.7158432  17.8561382   8.5069866  46.2361183  18.5227318   7.2355700
  50.7562332  66.6513062  44.6529121  50.7753830  66.6625671  45.6098518
  50.6738243  67.5719376  44.4041557   8.7208338  70.1818848  13.3417101
   8.9786310  71.0747147  13.1122885   7.7896924  70.1380844  13.1242504
  30.9482594  47.5069008  42.9331093  30.6788654  46.6796761  42.5339127
  31.5279121  47.9078293  42.2854271  28.6080112  10.2222586   9.8640509
  29.2177105  10.2665243  10.6006241  28.0335464  10.9786377   9.9828548
  12.0999012  11.6077366  79.5566177  12.3998318  12.3821030  80.0326767
  11.1679611  11.7655144  79.4055481  24.9379349  39.2289963   9.6571960
  24.9098358  38.8715401  10.5447025  25.8485336  39.1190491   9.3834229
   4.4360199  37.4564972  61.7197990   5.2041693  36.9700508  62.0190506
   3.7459619  36.7965775  61.6522751  58.7204819  66.7597809  54.6358223
  59.1442986  67.2983704  53.9675941  58.0784531  67.3424988  55.0413742
  45.2026787  21.6276436   6.2516770  45.3778763  22.5686684   6.2546558
  44.2832718  21.5559998   5.9951863  65.0124741  55.4937325  24.0686016
  64.8808823  56.4277611  23.9057980  65.0412292  55.4185791  25.0224133
  38.9689751  21.0893059  16.3444576  38.5328560  20.3568897  15.9090300
  39.8577576  21.0843582  15.9891014   4.8922372  29.3779659  43.4338303
   5.6288691  29.9199963  43.1513252   4.3394985  29.9712772  43.9424477
  86.6072159  53.7307091  73.9391556  86.5958939  52.9911118  73.3316193
  86.8630447  54.4793625  73.4003601  42.1016464  20.4966602  65.8143997
  41.6487885  21.2494392  66.1944885  41.4233017  19.8266125  65.7300491
   1.8697251  59.2198486  64.0130463   1.9533563  59.4943848  63.0998840
   2.5431020  59.7185783  64.4757156  22.7537422  40.4324226  17.7908916
  23.2168503  40.9319229  17.1183872  21.9411850  40.1561432  17.3670406
  47.5444221   6.8342328  70.0858536  47.3539429   6.4165449  70.9257889
  48.4171104   6.5172148  69.8531570  62.9085388  44.0315590  42.4383736
  62.6379929  43.7057152  41.5799675  62.3064842  43.6133995  43.0539284
   8.6205721  34.5363579  11.5455122   9.2282610  34.2722473  12.2363033
   8.6618767  35.4926605  11.5429192  56.5502014  46.5970345  39.9074669
  56.2517471  46.4779243  39.0058174  57.3945236  47.0401382  39.8237228
  48.6602669  60.9455185   5.0334601  48.4956322  61.1550102   5.9528289
  47.9552650  60.3435669   4.7950087  69.5539856   5.7851439  48.5973854
  68.7517471   5.4338417  48.9836922  70.1698532   5.8352237  49.3284302
  21.7982883  50.3737640  28.8030567  22.2234707  49.7968063  28.1685734
  21.1862373  50.8933029  28.2818050  72.2430573  66.5889893  14.3963213
  72.4076843  67.4832993  14.0974293  72.0335770  66.1043549  13.5978994
  14.0790052  17.6399727  85.4131012  14.8337488  17.0520401  85.3826141
  14.3790245  18.3883018  85.9290695  52.0247612  39.4408607  31.9855423
  52.0464096  40.3080826  31.5809498  52.9206581  39.1146317  31.9008675
  67.3029709  12.4295921  87.5406570  67.7734222  13.0885696  88.0512085
  66.4575882  12.3437901  87.9813309  83.2877731  66.3282623  25.9917984
  84.2101517  66.0726242  26.0017662  83.3038788  67.2846069  26.0288887
   3.4511101   6.9775090  57.9875145   2.7257190   6.3601427  58.0818481
   4.1090307   6.4987822  57.4833412  72.5684662  66.5359879  81.2272110
  72.6819534  65.9973602  82.0103073  71.7637787  66.2082138  80.8256226
  32.2598343  61.7824631  47.9233475  32.2492180  60.8254776  47.9404678
  33.0352859  62.0225029  48.4305801  39.8493576   6.6038499  43.7673912
  40.6753082   7.0646477  43.9147072  39.3522034   6.7395587  44.5740242
  10.4150009  40.4018707  83.1886597  10.4930916  39.7547073  83.8895950
  10.7801771  41.2042007  83.5616837  57.2869225  54.7865486  21.0059643
  58.2288551  54.6291542  20.9409523  56.9886551  54.8333321  20.0976257
  59.5717010  70.9744949  83.5411835  58.6510315  70.9536972  83.8022766
  59.6825333  70.1983185  82.9920883  73.5759354  53.9109840  42.3109131
  72.6489334  53.7668915  42.5010338  73.9758835  54.0595970  43.1677628
   3.0273182   3.0428133  23.8509884   3.8990247   2.7162077  23.6280804
   2.5602787   2.2743666  24.1790066  35.4143600   6.2785068   6.0041285
  34.9396057   5.5129681   6.3278437  36.3318863   6.0058856   5.9968257
  38.0401115  66.5999222  71.1181793  38.2835541  65.6882248  70.9576340
  38.4872284  66.8272247  71.9334412  67.9517899  30.4760246  53.1677895
  67.3290253  29.8840542  52.7459259  68.7974472  30.2494183  52.7808304
  66.8908081  39.6159935  12.5368929  66.2479858  39.1952171  11.9659634
  67.1600494  38.9263191  13.1435966  73.2932205  32.4665298   0.8789610
  74.1454163  32.6506767   0.4838786  73.1153030  33.2283211   1.4305509
  12.6036415  60.3440933  31.8754253  12.7777472  59.7684364  31.1307526
  11.8645248  60.8831673  31.5937614  70.1081696  31.1417904  86.2985153
  70.9294052  30.8032112  85.9419174  70.3760910  31.6997643  87.0286636
   0.7269563  60.9478302  69.1657562   0.4803978  61.3080940  68.3139038
   1.3875078  61.5544662  69.5002594  84.2770386  22.5087109  18.8331470
  84.7062607  22.6316586  17.9864559  84.7830887  21.8174191  19.2600708
  84.7876205  70.2096558  58.5450096  85.4386444  69.6522827  58.1186943
  84.8813248  70.0168762  59.4779053  61.8926888  70.2393341  19.5873528
  61.7118149  69.4448776  19.0850010  62.2474976  69.9220123  20.4178066
  40.9742203  58.5759354  61.7033806  41.3550835  58.3851547  60.8461876
  40.3857269  57.8403358  61.8730812  75.2019043  25.7821579  68.2079391
  74.7599792  26.5002594  68.6610031  74.7606277  25.7260818  67.3603745
  77.4637527   8.4329205  25.1431026  76.9182663   7.9355373  25.7524357
  77.8745880   9.1067953  25.6847115  73.7745743  22.3097897  12.6070509
  74.0284958  22.4548550  13.5184841  73.3332901  23.1192513  12.3496180
  78.9338303  40.4939804  17.4446220  79.5612411  39.7953110  17.2590199
  78.3322906  40.4796829  16.7001953  54.0548401  30.0326920   1.0936649
  53.7928467  29.8306751   0.1954549  53.4960022  29.4769669   1.6368980
  31.7500515  27.9654617  14.2451582  31.8559380  28.1867065  15.1703997
  32.6435585  27.9295368  13.9037094  69.6542053  27.4954376  70.3819504
  68.9137726  27.1219406  70.8599625  69.8173370  26.8757896  69.6708527
  81.9824524  69.9072952  81.8837128  81.6018219  69.8648376  82.7609558
  81.5782089  70.6775208  81.4842529  83.5249710  25.8984146  84.3296204
  82.8354874  26.2666893  83.7771530  83.5282898  26.4527378  85.1099701
   1.9536946  29.6476192  80.5982742   2.4583168  29.1524639  81.2435760
   1.0410882  29.4345264  80.7931442  31.3445911  12.1940718  65.8667526
  31.6908398  13.0150862  65.5170670  30.3966389  12.3246889  65.8904037
  19.1109619  69.1709213   4.8154721  19.0649338  69.8171158   4.1108122
  18.2857800  68.6898117   4.7535295  30.8063354   0.1338569  69.0833359
  30.7360382   0.9377996  68.5685806  29.9013786  -0.1548321  69.2014236
  71.1704102  45.8049393   1.7518107  70.4103012  46.2482834   1.3751118
  71.8886642  46.0109558   1.1535628  63.0579681  27.9750118   8.4513597
  63.3073959  28.8243828   8.0872335  63.5573235  27.9073372   9.2651758
  44.9494171  19.8928165   3.8485479  44.8436966  20.3638515   4.6750956
  44.9420433  20.5777302   3.1799140  78.6654282  39.3472137  50.9649315
  79.0039749  38.5168190  50.6301765  78.1516190  39.7055817  50.2411919
  45.5261612  26.5094948  12.4427185  45.6337471  27.4587097  12.3823242
  45.7708588  26.1850910  11.5760479   8.5506382  62.7180939  70.2265625
   8.0301476  62.0037346  70.5940018   8.4144735  62.6520844  69.2814026
  17.1774750  21.0062199  16.1715393  17.2491970  21.7842293  16.7245216
  17.9737415  21.0156555  15.6404028  70.1772079  47.6227036   9.6622496
  69.3632355  47.7492867  10.1497507  69.8978195  47.2722168   8.8164787
   4.1432595  66.3909607  68.7006531   3.9366040  67.0174332  68.0070724
   4.7666154  65.7857971  68.2988586  45.9073868   8.4178791  84.5979462
  46.7102318   8.0743961  84.2059097  45.2180595   7.8328242  84.2836761
  31.8356361   4.3901734  10.5164413  32.3709869   3.7592580  10.0352182
  32.2130623   4.4029427  11.3959951  73.4813766  23.4884853  32.5928955
  74.1203613  24.1062737  32.9482422  72.8265610  23.3965721  33.2849960
   8.5873413  68.3814774  41.4537659   9.4152060  67.9449997  41.2528572
   8.8194113  69.0504074  42.0978966   6.7758689   5.1328197  49.2202187
   6.8844910   4.7308512  50.0821075   6.9029140   4.4128141  48.6024132
  48.5406227  54.8163261  43.4883156  48.7397919  54.2932053  44.2647858
  48.1102905  54.2043915  42.8911705  83.9573059  50.6078186   4.2677050
  83.2865067  50.9849777   4.8369246  84.5486526  51.3364716   4.0790148
  29.0034733   4.1397004  45.9711761  29.1558952   5.0456843  45.7024879
  28.3255730   4.2003074  46.6442337  52.3033447  54.1948662  50.5740891
  52.4672546  54.8334808  49.8801651  51.7054710  53.5601883  50.1791649
  40.0890503  22.8385353  18.5367050  39.6696434  22.6522999  17.6966782
  40.4809074  23.7042904  18.4220409  60.7919998  37.6470032  65.6666183
  61.3537064  37.1730881  66.2799072  59.9012260  37.4491959  65.9557877
  37.7308655  43.6033783  73.1809235  37.0846825  43.5132103  72.4805298
  38.0881958  44.4838104  73.0652390  24.3841534  64.4623642   5.0121450
  24.0060978  65.1550217   5.5539322  24.0330753  64.6246262   4.1365614
  71.1466675  37.2348824  15.7581835  70.4047546  37.8340721  15.6759109
  71.4294739  37.3273544  16.6679649  56.6427879  35.6744843   7.9969258
  56.9558487  36.3828659   8.5594349  55.7915459  35.4357071   8.3638124
  45.7333755  70.2112350  24.5797653  46.2486877  70.2401581  23.7736340
  45.0672302  70.8885574  24.4626331  86.1036453  14.7919235  73.3091049
  86.2449188  15.7167149  73.1065369  86.2993164  14.3349504  72.4911041
  14.6782188  37.3562660  22.5942574  14.9304037  36.6539726  21.9947414
  15.5086250  37.7376976  22.8791542  68.9592133   1.5974969  87.3895035
  68.5835342   2.2255399  88.0064850  69.0149231   0.7798873  87.8841171
  54.9764595  64.8731461  65.9244690  54.9320030  64.7231064  66.8687897
  55.4111900  64.0937729  65.5783234  70.0147858  56.8989334  17.5064945
  70.9532547  56.7312813  17.5925293  69.8166122  57.5177650  18.2093468
  39.2212181  42.7938042  76.3615952  39.1627808  43.6441650  75.9260483
  38.9684563  42.1620216  75.6883926  85.6924973  62.6973648  17.5331821
  85.5668106  62.1806755  16.7372780  84.8495789  62.6511002  17.9843807
   4.1419315  63.2408485  31.8470993   4.7440333  63.9198532  31.5427055
   3.6801195  63.6426125  32.5830002  57.1930885  44.1876602  23.0715199
  56.4692764  44.5148811  23.6056118  57.2441826  43.2554359  23.2826538
  32.3835106  56.8249474  45.3803596  32.9098778  56.0350571  45.5038261
  31.6565762  56.7269020  45.9953270  10.2908888  10.9298916  49.2800026
   9.3554487  10.9488049  49.0779495  10.7117405  10.7191191  48.4465218
  84.7961426  29.2788620  34.5017967  85.5127945  28.6443157  34.5020180
  84.8800659  29.7352295  35.3390045  82.4597244  14.6848946  51.8555527
  81.6428375  14.1866350  51.8814507  82.1840057  15.5998907  51.9102898
  28.4040127   8.2630262  22.7064228  29.3233624   8.2068462  22.4458981
  28.4277515   8.2977715  23.6626968  10.0408125  69.5260620  15.8453112
   9.7812414  70.0102158  15.0614433   9.2595587  69.5290833  16.3983612
   6.9649310  29.0137806  53.1743851   6.0934429  29.3966198  53.0735207
   7.4367447  29.6350861  53.7290039   3.6247380  32.3101997  74.7878571
   2.9389868  31.7239780  74.4679794   3.2727401  32.6684036  75.6027298
  85.0731354  40.7294388  29.3013954  84.7154617  41.0323372  30.1359959
  85.8641052  41.2535896  29.1754475   4.4480720  19.3322392  72.5340500
   5.1150751  19.9517250  72.8299789   3.9688418  19.8036594  71.8526306
  43.8004646  67.0619125  38.7489357  44.3691063  67.8147049  38.9107246
  43.7780418  66.9792023  37.7955780  23.6533489   6.8568883  67.6656799
  24.3593006   6.8080139  67.0211029  23.8981457   7.5870991  68.2341003
  46.9407310  39.2661285  24.7356510  46.6619148  38.3504333  24.7351933
  46.2666664  39.7219887  24.2316113  49.1975784  47.2585793  87.9998322
  48.6282310  46.4986153  87.8793030  49.5652466  47.1457825  88.8763809
  29.7362061  32.2237396  18.8809891  29.9137955  31.4114475  18.4067764
  30.5970898  32.6251373  18.9992733  69.7685623  42.8310890  66.4872742
  69.7800293  42.4512215  65.6087494  69.6691895  43.7716904  66.3402252
  36.3163147  13.8506117  87.3139725  35.6773758  13.2734118  86.8958435
  36.3347664  13.5655727  88.2275620  41.8675690  57.4726524  30.6561584
  41.0434456  57.0671806  30.3866367  42.5360680  57.0227814  30.1394825
  58.4585075  14.8749514   5.7438850  58.4632530  15.1517811   6.6601682
  58.8533287  14.0030441   5.7550545  54.6572037  59.3304558  61.6285629
  53.7002411  59.3513718  61.6326752  54.8966980  59.5057449  60.7185364
  13.9235840  19.0508957  16.8590298  14.2421284  19.8144150  17.3404865
  13.6839972  19.3935471  15.9979725  43.3538284  38.5726547  74.7567062
  42.6572151  39.1863289  74.5235519  42.9262276  37.9277496  75.3201675
   7.3024268  42.0552177  25.5297318   7.4151011  41.5797119  24.7066708
   7.0476365  42.9385147  25.2630882  52.3899841  12.8314819  37.8994331
  53.2306290  12.8130398  37.4420395  52.4213676  13.6301203  38.4261436
  69.0621185  67.8833923   1.3875099  68.2464447  67.6172180   0.9631713
  69.0628357  67.4132614   2.2212996  78.9646988  17.1803474  43.1744270
  79.8146591  16.8833466  43.4993591  79.1772232  17.7615852  42.4442024
  54.0899620  17.4845390  34.3829727  53.6880226  17.4487743  33.5149879
  53.4755020  17.9946957  34.9106216  65.7749405  54.4772453  66.9113998
  65.2341766  54.6982460  66.1531372  65.2795715  53.7979851  67.3690567
  80.8418121   5.7937675   9.8627710  80.2123871   5.0768924   9.9411736
  81.6920013   5.3595018   9.7933159  61.3729286  49.2708473  82.1165848
  61.3512878  50.2174110  81.9759445  62.0280914  49.1456261  82.8031006
   1.8822763  23.5342159  52.1940155   1.2104257  22.8876724  52.4104233
   1.9797282  23.4695549  51.2439880  46.8319550  40.4380684   9.6840858
  47.2384148  41.2880630   9.5151730  47.2760201  39.8371201   9.0858393
  71.3115768  32.9280205  88.0087738  71.0910797  33.8202972  88.2760925
  71.8691330  32.5978050  88.7132721  19.3389187  69.1026764  75.7176361
  18.8329182  69.0127487  74.9101028  18.7769489  69.6180420  76.2962723
  69.0180588   0.0493578  33.9169388  69.4940720   0.8574348  34.1083984
  68.9477463   0.0332117  32.9624634  86.6482010  61.8794746  50.2624397
  86.2259521  61.0209351  50.2915840  86.6870041  62.0957985  49.3308144
  22.4594536  69.9324799  51.5364494  22.4080162  68.9808578  51.4469643
  23.1942806  70.1861954  50.9779778  17.9841480   5.6927643  10.7286758
  17.9582138   4.9493804  11.3311205  17.4540482   6.3657241  11.1557007
  43.9392624  40.3863411   7.3858037  44.1032486  40.7101173   8.2715302
  43.2318916  39.7500305   7.4905310  82.0320435  35.6966438  34.5302277
  82.1850204  35.4783249  35.4495583  82.3657608  36.5889511  34.4372253
  79.3306503  12.7320652  33.8444939  78.8427734  13.4894791  33.5211792
  78.6649780  12.0570793  33.9768181  12.1102943   7.1035028  51.6352959
  12.0434875   7.8895426  51.0931625  12.0268898   7.4241295  52.5333366
  11.7068272  20.9774075  19.2880859  10.7650938  21.1487103  19.2931519
  11.9166956  20.7659225  20.1977348  71.5787811  50.6434021  83.9564743
  71.9356842  50.3174820  84.7826843  71.9634476  50.0755272  83.2888031
  83.3475342  32.8895378  45.0480576  84.0825577  33.1344719  45.6101761
  83.2007904  33.6583748  44.4970741  86.1369095  20.1043854   6.8549376
  87.0616074  20.3516808   6.8550344  86.1449356  19.1472797   6.8656726
   3.1856823  50.3642159  59.9904938   3.8908660  50.6146049  59.3936234
   3.2804408  50.9576759  60.7355118  55.0483780  50.9427032  42.9175758
  54.7927628  50.3899002  43.6560249  55.9359016  50.6572685  42.7006531
  17.7366371  65.5076752  38.6687126  18.4262943  65.8578949  38.1048431
  17.3108826  64.8352432  38.1369247  67.4002609  16.3359718  48.9211960
  67.2537994  17.2134972  49.2743683  67.7861099  15.8466816  49.6478004
  26.5579758  16.8808899   7.8469386  25.6624012  16.9646645   7.5195875
  26.8738289  16.0584488   7.4726934  79.1069183  30.9188614  17.4816322
  79.1095505  31.6668339  18.0789280  78.4470062  30.3266754  17.8422852
  38.7042351   2.8348222  66.6782227  37.9965553   2.2125742  66.8462372
  38.2573357   3.6487942  66.4459229  14.4195395  67.0740356  38.1675148
  14.8506422  67.8445129  38.5373039  14.9528608  66.8431091  37.4069405
  43.1492920  43.6348228   9.8521051  42.2611046  43.5218964   9.5135708
  43.7072678  43.6064339   9.0748730  11.6460381  68.2691040  66.9735794
  12.1269169  67.5975266  66.4898758  11.8189268  68.0713196  67.8940277
  17.8365078  50.8963165  82.8602905  16.9572601  51.1679192  83.1237030
  18.3340054  50.8700523  83.6776276  26.2424126  13.1867380  77.5704346
  25.7754631  13.2268467  76.7358170  25.5544033  13.0615320  78.2240372
  19.2167645  52.9885788   2.5516968  18.5197334  52.4718246   2.1475363
  19.4496288  53.6374779   1.8876677  57.7552681  39.5196266  39.0311928
  56.8353844  39.7110100  39.2139893  58.1005249  39.1890907  39.8605156
  73.4012070   8.7969189  23.0379696  72.5323410   8.5458508  23.3514500
  73.7713242   9.3184690  23.7501736  23.4156742  50.0134888  76.1027374
  22.9541302  50.8411331  76.2377014  24.2338104  50.1133537  76.5894775
  15.1422205   2.6650283  12.8778467  14.3674421   2.3908246  13.3685226
  15.8788147   2.3089752  13.3747225  86.1843033  61.1906815  85.1416931
  86.9110794  60.5933571  85.3184204  85.8262177  61.3944244  86.0056915
  34.0467300  51.0378380  66.0144806  34.5745850  51.8010178  65.7796249
  34.5827065  50.2876053  65.7573700   3.8175509   9.1761551  13.1778440
   4.2042389   8.3006697  13.1626387   3.4862776   9.2762032  14.0703011
  39.8635483  61.1835251  61.8855209  40.4446487  60.4231949  61.9066620
  39.5055161  61.2360611  62.7716866   3.9669867   1.9861417  17.0820389
   3.8231981   1.3014971  16.4287262   3.9584277   2.8013842  16.5805035
  21.2615776  65.2269211  59.4101448  21.3659992  66.0270462  59.9250450
  20.3181667  65.0650406  59.4077644  77.5129318  37.1626244  85.6864243
  77.2313919  36.7209930  84.8852158  77.6937866  38.0620155  85.4132690
  49.8400154  39.2898293  25.8647327  48.9048882  39.1646996  25.7031441
  49.9104042  39.3672943  26.8161926  64.0190430  45.0759010   2.4159818
  64.6213455  44.7887039   1.7296978  64.2582626  44.5508232   3.1797225
  76.7950287  40.6684456  62.0331001  76.0643387  40.2303848  62.4694786
  76.4648972  40.8703308  61.1576080  63.3671722  37.9666328  15.1047220
  63.9785728  38.2122765  14.4104052  62.5376129  38.3684044  14.8465681
   6.7097788  15.5506716  20.9671459   6.9387789  16.1709213  21.6593018
   6.2532816  14.8425684  21.4214916  10.0253973   1.5253874  79.8886795
  10.8779898   1.4859536  80.3219910  10.2181215   1.3616428  78.9654846
  74.4513931  17.0025673  54.7682686  75.2148438  17.5527172  54.5930367
  74.2493134  16.5976200  53.9248161  52.7039108  66.6539154   9.7060061
  51.9056206  67.1133347   9.9665680  52.7993317  65.9542160  10.3521843
  32.9123688  67.4273300   3.2064769  33.5232353  66.9895935   2.6136327
  32.0463753  67.1623077   2.8965549   6.1186914  49.5267639   3.7604249
   5.4143214  48.8944969   3.6178296   6.5671082  49.2127266   4.5456219
  83.9757614   6.4468312  78.5077591  84.1007080   6.2465153  77.5801315
  83.2206192   7.0347519  78.5262299  71.8321991   5.3933053  39.1280327
  72.0863647   6.1139970  38.5516357  70.9836502   5.6583147  39.4829559
  16.5384464  22.0925732  81.8769073  15.9467058  22.6727314  82.3559570
  16.1852036  21.2152615  82.0244751  61.5252380   3.4681830  72.1418991
  61.6388168   4.4107943  72.0201797  60.6252365   3.3736885  72.4538345
  85.1966782  64.5431900  71.0643921  85.8238297  63.8232346  71.1320572
  85.5641327  65.2335815  71.6162720  48.3108749  62.8852196  16.9164181
  48.4161911  63.5995331  17.5448265  48.8345184  62.1697350  17.2771282
  31.9454155   5.9293642  77.2737885  32.0643005   5.1218977  76.7736893
  32.5367050   6.5573688  76.8587952  63.9469872  24.5643425  16.6099682
  64.3018570  24.3536530  17.4736309  64.2681885  25.4474850  16.4279823
  27.9168987   3.0029049   6.0100121  27.6458092   3.0584874   5.0936866
  27.2229977   3.4520257   6.4927373  80.0168839  30.0822926  76.8045273
  80.1314697  30.9258289  76.3668671  79.5476456  30.2930737  77.6117554
  72.6542282  58.5239716  55.3603096  72.3298950  58.0443878  56.1225662
  73.5103149  58.8549118  55.6320114  61.8412704   9.4669876  84.1515656
  62.5920563   9.0057640  84.5254974  61.1189041   9.2722578  84.7486420
  57.7718201  28.1704216  13.4647617  57.4473572  27.5283527  12.8333330
  58.3725166  27.6757565  14.0221710  37.8484230  46.4466400  36.5493965
  36.8924904  46.4514847  36.5003815  38.0887680  47.3696098  36.6306076
  39.5788269   7.9169621  11.0543509  39.9994583   8.7695446  11.1657209
  38.6942024   8.1238756  10.7529278  19.0968971  41.7192268  84.8127213
  18.1477299  41.6062431  84.7622375  19.3809853  41.7695274  83.9000320
  51.7309036  53.1312294  78.4613800  52.5859871  53.5479927  78.5680313
  51.8446922  52.5376015  77.7191620  66.8652573  25.2748890  66.0712585
  66.0514755  24.9423428  66.4499359  66.6216736  26.1131039  65.6784592
  32.0615616  20.7425880  86.7342606  32.9169121  21.0161915  87.0655441
  31.6852303  20.2219543  87.4438705   6.2426782  38.8050842  23.0145893
   6.7518420  39.6152039  23.0408611   5.5351057  38.9464073  23.6435585
  82.6474991  27.6007671  13.0296688  81.9326859  27.6888905  12.3991852
  82.2675552  27.1045952  13.7547102  65.1796036  33.8134804  15.4995785
  64.4811325  33.1603088  15.5412350  65.9584656  33.3157349  15.2508593
  -0.1993604  39.6180191  39.8764915   0.1618155  39.8662987  39.0255280
   0.3460551  38.8857346  40.1637421  52.7220154  44.2489243  49.1744995
  52.7154541  44.9580765  48.5316238  52.4435997  43.4767189  48.6821404
  29.8296032  61.8884659  39.2420349  29.2540646  61.8407326  38.4786835
  29.3735428  61.3866158  39.9176025  68.6630096  24.1496964  88.5635834
  68.8300476  24.8831825  87.9716949  67.7088013  24.1012974  88.6216583
  33.3052406   2.7546272  72.1219635  33.5086403   1.8319948  72.2756195
  33.3908157   2.8642597  71.1749268  72.3299179  46.1436691  64.6598587
  71.5061417  45.7351608  64.9258423  72.1875229  47.0804329  64.7956314
  27.8376045  36.5905304  16.0416012  28.7523994  36.8270721  15.8885393
  27.8711166  35.6785126  16.3302822  84.3708344  33.6016350  39.8969688
  84.3495941  33.6595154  38.9417572  85.0762863  32.9822197  40.0837631
  29.5385647  45.9406509  40.9768295  29.7880974  45.0245247  40.8556824
  29.5725517  46.3164864  40.0971565  63.1620674  52.4285698  82.0055084
  62.4465828  52.9486465  81.6396713  63.0841331  52.5464821  82.9522171
  57.8932686  59.7443008  69.2180481  58.2745361  60.4448128  68.6887589
  58.2442932  58.9389038  68.8381195  32.1963005  53.0097084  82.3672638
  32.8249321  52.3602905  82.0521317  31.4326744  52.4959450  82.6302338
  80.9233322  10.7022943  61.7290039  80.9232788   9.8265877  62.1154861
  80.9815598  10.5479612  60.7861214  18.3394871  39.7339134  14.3053493
  18.3424091  39.8006516  13.3504829  19.0320301  39.1035614  14.5035105
  72.4720917  37.3914719  11.5585289  73.4008560  37.5300713  11.7440758
  72.4442215  37.1702995  10.6276493  82.2297058  43.4548149  88.4729614
  81.7101974  42.6627579  88.6107788  82.1283569  43.9519691  89.2846222
  79.5656357  45.2937737   3.3286953  79.8246231  44.6624756   3.9999814
  79.2543488  46.0531158   3.8213725  50.2978592  25.1278477  75.1190033
  50.7195091  24.4219646  74.6289291  50.9841270  25.4612656  75.6970215
  85.2151718  26.9441433  13.4359236  85.2630310  27.3903713  14.2813950
  84.3704605  27.2097416  13.0723925   0.3609916   6.4997845  63.8866463
   0.3804334   7.1190486  64.6162796   1.2666556   6.4637256  63.5789070
  13.3501863  38.3355522  58.9070053  14.1700058  38.7136497  58.5889320
  13.2600918  37.5157852  58.4211082  81.5897598  67.1013718  29.1921844
  82.3769302  67.6111526  29.3838024  81.9196014  66.2746964  28.8399944
  78.6097031  25.9665699  46.8004913  79.2169647  26.5792351  47.2153397
  78.3053970  25.4090862  47.5166206  45.0309448  47.6140900  64.7719727
  44.7335777  47.2260590  65.5949173  44.8277969  46.9543266  64.1088943
  51.0385895  56.1649666  37.3544617  51.3823471  56.6875954  36.6299438
  51.6673317  56.2965317  38.0641098  64.0283890  38.1827278  59.4625244
  64.7171631  38.2749329  60.1207962  63.3946266  38.8657608  59.6817055
  69.0601501  64.0691605  62.6526947  69.1561279  64.0051422  61.7024727
  69.9547272  64.0110397  62.9882355  77.9109726  43.1830254  88.4938583
  77.4011307  43.6032829  87.8012695  77.7847061  43.7446556  89.2586212
  60.5963249  56.2775002  41.4611664  61.0692596  55.9754410  42.2366142
  60.5730133  57.2302055  41.5508347  63.1644554  38.6276588  77.4083633
  62.9738274  39.5654678  77.3882446  63.3075981  38.4321594  78.3343887
  11.3663492  21.0997391   2.8003235  11.1158934  20.1762066   2.8246343
  12.0410700  21.1827412   3.4741888  85.6480255  18.7337780  66.3602600
  86.5079041  19.0600395  66.0949402  85.4896240  17.9830990  65.7878799
  43.7278709  35.2731361  72.5481644  44.1310349  35.4396629  71.6961288
  44.3787193  35.5714188  73.1835022  59.9077530  57.6869965  74.2029419
  59.8903275  58.1252861  73.3521652  59.4063377  56.8828125  74.0683975
  47.2479935  47.9264259   3.2140923  48.1993484  47.9945297   3.2948117
  46.9208832  48.0787201   4.1006794  23.7251835   6.1051507  72.1585312
  23.8493652   5.6172609  72.9726410  24.4144230   6.7692699  72.1697922
  75.2681885  55.1343689   8.2038879  75.7140732  55.1363640   9.0508881
  74.3392029  55.0604744   8.4224358  77.9905167  45.7335701  71.7597198
  78.5159912  45.6920471  70.9607315  77.6371460  44.8496780  71.8601913
  86.3158798  -0.0867522  21.1808167  85.6350327   0.5353270  21.4371147
  86.1326294  -0.2767870  20.2607422  26.5294495  43.6605568  27.4982281
  25.9820709  43.4375267  28.2511349  26.5531921  42.8601036  26.9738770
   9.7449541  23.3581848  65.8548431   9.0486460  23.9891453  66.0372543
   9.9061012  22.9296436  66.6954498  56.1997681   7.2614803  84.9047470
  55.8203621   7.1820278  84.0295486  56.0069237   8.1611538  85.1686249
  10.0029182  58.0043716  59.6743126   9.1357517  57.6195679  59.8015022
  10.1257877  58.0095062  58.7250481  47.3656883   5.3329797  61.6368980
  46.5467072   5.7964134  61.8121948  47.7294083   5.1531186  62.5038414
  11.2775011  60.1426964  17.2544079  10.6191006  59.6091423  17.6994514
  11.3417645  59.7623634  16.3783665  10.0834064  34.1841888  79.2774506
   9.9485273  34.1024857  78.3333282  10.7688522  34.8465500  79.3650360
  58.5770569  53.1926117  -0.1717998  58.9433479  52.9702454   0.6841311
  57.8319092  53.7597427   0.0265679  64.2719650  24.9001064  67.1262741
  63.7951202  25.2296715  67.8880081  63.5985489  24.7760258  66.4574356
  35.7862930  54.9656525   2.0755754  35.6868095  55.6282616   2.7591569
  35.0073662  54.4157448   2.1598706  18.1080303  54.2821541  19.4441814
  17.1752243  54.3233681  19.2334557  18.2623367  55.0469856  19.9986687
  70.0527420  44.2217026  14.0917158  70.6235352  44.9603920  14.3032846
  69.7259827  43.9209671  14.9396677  84.2025146  58.7103424  61.7046242
  84.5420914  58.4312134  60.8543243  84.5775452  58.0884285  62.3281708
  56.4087410  52.3544083  37.4530792  57.0899048  52.6568069  38.0537491
  56.2946205  51.4284248  37.6669884  22.3799953  51.8617668  39.7932243
  22.3877716  52.6031418  39.1878014  23.2151165  51.9225273  40.2570305
  33.4716721   2.3645122   9.5740786  33.8665390   1.5924067   9.9792500
  33.8886299   2.4236045   8.7144947  33.8364182  17.6447277  81.4592361
  32.9977036  17.1846409  81.4258804  34.4694443  16.9710484  81.7075653
  81.1507263  66.4405823  65.9893188  80.2903748  66.8285980  66.1488800
  81.2778854  65.8322983  66.7173691  36.3508224  59.3299446  68.6414719
  36.6671791  59.5929222  69.5057602  35.9144554  60.1098633  68.2986298
   2.8790548  26.9485245  31.9527397   3.6186912  26.5549660  31.4898338
   2.1071775  26.6340294  31.4820690  15.3291845  68.0711746  19.8832226
  16.0428410  67.8514023  19.2843666  15.6292267  67.7607498  20.7375336
  65.8281174  20.6547012  69.0524368  65.2420959  20.0762558  69.5405045
  65.4833145  20.6469574  68.1595306  71.6121216  65.9938889  65.3883743
  72.0650558  66.6920013  65.8613510  71.3457336  65.3766632  66.0697784
  11.6850986   4.3449574  77.7119217  10.7407789   4.3304996  77.5560913
  12.0011301   5.0887861  77.1990204  68.0778809  26.6554508  81.5889969
  68.7907486  26.4281502  80.9920197  68.3859329  26.3705864  82.4493408
  33.2468033  63.1782494   3.3253481  32.9671211  63.4252548   2.4438732
  32.7550545  62.3798790   3.5177467  22.8689518  69.8420792  38.2961884
  22.8837776  68.8852081  38.2757187  23.5177765  70.1056824  37.6436729
  13.8504848  65.7209930  33.1510658  13.9421082  66.6461563  32.9232292
  13.9139280  65.2608032  32.3141479  59.6284332  10.0885706  60.3416443
  58.7695770  10.3246641  60.6921577  59.7540817   9.1780243  60.6087570
   5.9871454  20.6888428  47.6317482   6.2797556  20.8099518  46.7284546
   5.3947616  19.9379692  47.5929871  73.6475754  47.6710129  23.2920799
  73.4382706  47.6384850  24.2255478  73.0443726  47.0462990  22.8894558
  47.4689293  19.8338184   2.7019475  48.0193062  20.1795273   3.4046564
  46.6794090  19.5246773   3.1461549  86.8531494  16.5652084  14.3171644
  86.9744949  17.0754490  15.1178904  85.9037552  16.5185070  14.2044811
  22.3530025  17.8175430  88.7162628  21.7244911  17.8530807  87.9951935
  22.3341541  18.6968670  89.0939713  66.9974747  33.2039757  33.3052444
  66.9104462  32.2777748  33.0798340  67.5842514  33.2123260  34.0614548
  30.6389408  10.9773884  11.7504997  31.1551399  10.3684568  11.2223196
  30.4852715  10.5109549  12.5721188  67.4974442  11.6793642  59.6981163
  68.3800964  11.7863054  59.3435478  67.2080460  12.5706873  59.8931160
  56.6750488  34.7964096  28.2722092  57.3481522  34.9724960  27.6148243
  57.1651192  34.6155090  29.0742912  61.6490669  13.5313549  52.9498215
  60.7314415  13.2908993  52.8218575  61.6187210  14.4379177  53.2555275
  10.4481955  44.6840553  75.4227829   9.8427114  44.6335030  76.1624222
  10.4232073  43.8103256  75.0326538  67.2822266  23.6370602  20.0334682
  66.8562775  23.3955059  20.8559361  66.5591888  23.7888107  19.4248409
  47.1327972  22.0343189  70.5655518  47.7129135  22.7678127  70.7697220
  47.7247429  21.3066578  70.3749161  26.2552853  53.8477592  54.8885841
  26.5593872  54.5340767  54.2946777  26.9749222  53.7317085  55.5089760
  28.7031898  51.3959618  15.0114059  27.8525219  51.1782417  15.3924484
  29.3336277  51.1975136  15.7037916  64.0051346  62.5782127  72.9384842
  64.5507965  62.0982323  73.5614624  64.6068420  62.8312225  72.2383728
  46.9393463  34.4427681  89.1655197  46.5723648  34.1966362  88.3164215
  46.2392731  34.9336853  89.5957947  81.4632950  67.9062119  88.5339203
  80.5252151  68.0242615  88.3845901  81.8173981  68.7954025  88.5476532
  32.5673027  61.5988655  53.4000969  32.8485413  62.2113495  52.7203941
  33.0386009  61.8789101  54.1847534  55.2215309  67.1259613  58.1561050
  54.3061333  67.1179581  58.4357796  55.7067070  66.8023758  58.9151344
  55.7285118  25.0941296  76.9749756  55.5249672  25.4639664  77.8340607
  56.4120140  25.6651268  76.6242371  13.1780100   5.9295707  28.0645046
  12.2799358   6.1718149  27.8386478  13.4539270   6.5943737  28.6954861
  46.0680542  43.9825211  17.5667439  46.2739868  44.3708305  16.7164249
  45.1130981  44.0185089  17.6215191  38.0228424   8.7030325  86.0875702
  38.8863716   8.4488516  85.7620850  37.4553452   7.9659643  85.8619385
  76.6981964  51.0857658  27.0247040  76.2386627  50.4777641  26.4455700
  76.3023453  51.9375687  26.8404083  83.1493912  55.2289848  26.3953896
  83.9004593  54.7296524  26.0747719  83.5349274  55.9342804  26.9151535
   6.7285357  59.4182053  36.2815552   5.9369297  58.9740753  35.9776802
   6.6039844  59.5101013  37.2261581  44.3079872  57.8293839   1.5808467
  44.9197960  58.5555954   1.7013940  43.4670830  58.2513695   1.4046639
  47.0529175  61.7812576  52.7935905  46.1961861  61.9399529  52.3972816
  47.0263100  62.2607460  53.6216049  81.9950409  34.6946907  36.9736290
  81.8559952  34.8808250  37.9022064  82.8367004  34.2397575  36.9439583
  67.6010132  40.9104424  22.0301838  66.6590652  40.8166313  22.1722107
  67.8604584  41.6266899  22.6097641  29.2967377   9.1920500  13.8540630
  28.9080448   8.3204632  13.9281273  28.5552998   9.7705870  13.6757498
  39.3222618  65.1699677  67.0051193  39.9792671  64.5147324  67.2401505
  39.5426674  65.9326630  67.5398560  68.1585999  63.3795662  59.7826080
  68.2386703  64.3328552  59.7501106  68.9603882  63.0576744  59.3705940
  25.9568844  63.0042419  77.3584747  25.2877159  63.5822220  76.9918900
  25.5368176  62.6041489  78.1198578  84.2606659  23.3307037  37.5130959
  83.5526199  23.0450764  38.0904388  84.2339630  22.7165241  36.7794037
  32.6362228  60.7118568  61.7952194  33.2348289  61.4542923  61.7134171
  32.2524109  60.6164780  60.9235420   8.9503679  39.0101318  63.9518242
   9.4504042  38.9000740  64.7605743   9.3851929  39.7319069  63.4977264
  76.3608398  67.6351929  10.9805899  75.6918945  68.2729874  10.7316618
  76.5295258  67.8137436  11.9057369  47.3708191  58.6858864  73.0946732
  47.2418137  59.5058670  72.6179962  46.5161400  58.4970512  73.4820938
  56.1789780  49.3843765   4.4656157  56.5017242  48.4866714   4.3869095
  55.3407097  49.2985725   4.9196801  74.5774307  41.7023468  80.5535736
  74.0713577  42.4914436  80.3600616  74.0283890  41.2091751  81.1631393
  26.2343998  49.8493652  15.5067682  25.8939362  48.9871979  15.7454739
  26.4309254  49.7790337  14.5726042  74.8803711  18.6037045  57.3320503
  75.2368011  18.5688438  56.4443703  73.9675217  18.8661575  57.2134819
   9.0461769  60.8478813  24.2826939   8.1386967  60.9656639  24.5634766
   9.1939583  61.5501137  23.6492405  73.3199768  35.2921600  87.1495438
  73.9909821  34.7349968  87.5439606  73.7703400  36.1168480  86.9670792
   2.7956247  23.6611118  26.4604988   3.5724432  24.1990776  26.3076019
   2.3346119  24.1032600  27.1733837  10.3860798  20.9913845  15.1327171
  10.0632572  20.5963173  14.3228159  11.2326317  20.5708523  15.2834930
  45.2646484   7.2553077  61.8861122  44.8045692   7.7149973  61.1837959
  45.4551888   7.9349937  62.5326042  19.7521820  59.7461014  38.5176659
  20.6786880  59.9861946  38.5044136  19.3314514  60.3829079  37.9400024
  28.8675041  34.8493919  13.9747553  28.0489635  35.3284912  13.8455677
  29.5135422  35.5277100  14.1716166  85.9061279  56.8250542  70.8601761
  85.9855881  57.1899490  69.9788284  85.0956345  56.3163490  70.8366165
  84.7114944  69.2406464   2.0847850  83.9584579  68.8547821   1.6372675
  84.4587250  69.2575302   3.0078528  57.5377884  56.2116127   1.4913143
  57.8960152  56.2483902   0.6044359  58.2343979  56.5631104   2.0457664
  17.9032059  45.8752403  48.6065674  17.2233677  45.8776245  49.2803993
  17.4411697  45.6432724  47.8009987  62.0472183  57.5884132  71.8156281
  62.7190514  57.6031075  72.4972839  62.0875282  58.4594574  71.4207993
  15.0390110  68.0843201  11.6658831  15.2202549  68.9419479  12.0504103
  14.2724571  68.2278442  11.1108799  60.8707886   3.3325951  56.9459648
  60.5983658   3.6380596  56.0806847  61.5676003   3.9357944  57.2044830
  81.3438721  44.5660820  78.8534927  80.6510773  44.1403847  78.3484726
  81.9686966  44.8692398  78.1947632  85.0360413  33.8847275  12.2718525
  85.7253876  34.4448738  12.6285973  84.5225983  34.4651642  11.7099800
   9.5840254  21.6943703   6.8489366   9.1107416  21.5500793   6.0295377
   9.0115604  22.2679405   7.3583813  57.8262978  14.0448446  50.2951202
  57.0178185  13.6121922  50.0205193  58.2683449  14.2685337  49.4761047
  71.1500244   0.8401095  53.2178116  71.8303299   1.5122548  53.1774254
  70.7432938   0.9622324  54.0756531  58.1452522  34.9891396  25.7742577
  57.7087860  35.8363342  25.6848698  58.9215469  35.0598564  25.2187386
  25.6930199  11.8191833   5.1150041  26.5305576  12.0372953   4.7061167
  25.3625412  11.0800114   4.6044741   9.2980785   7.6268358  51.5018959
   8.7331486   6.9161625  51.8052597  10.1868153   7.2857995  51.6022644
  83.8605270  18.0912838  42.2024651  84.6803207  17.5972729  42.2137794
  83.2929535  17.5998936  41.6086349  76.4602661   4.2089920  69.9799881
  76.1910706   4.2510018  70.8975983  76.7695618   3.3108568  69.8619995
  71.4382706  43.4571991  70.8956528  70.6048355  42.9894562  70.9488754
  71.7009888  43.3749199  69.9788971  16.3626881  11.3927956  60.1795349
  16.6139584  10.7449131  60.8378220  16.4374027  12.2338114  60.6304703
   3.8241730  23.4723415  54.3333817   4.4113693  23.9804840  53.7737160
   3.0100977  23.4114151  53.8335800  11.3170910  64.5798950  20.0887184
  11.9623041  64.1222076  19.5497818  10.5616245  63.9924316  20.1085682
  15.0574312  46.4076080  80.9276276  15.5346422  46.9847679  81.5237732
  15.3945084  45.5326843  81.1203003  73.6860886  10.0102806  41.7674408
  73.0018997   9.9171610  42.4303474  73.2569733  10.4648561  41.0425606
   3.0866334  37.5036201  11.5970707   3.2340388  36.7593689  11.0134687
   2.6851215  38.1696930  11.0390682  68.8641815  45.2845421  41.9212418
  68.0815811  45.5367775  42.4112892  68.7070618  45.6100883  41.0349197
  59.8829346  29.7501621  25.9699535  59.2666321  29.0425587  26.1589031
  59.6964569  30.4138870  26.6339779  59.7661819  66.0605240   7.8079233
  59.4209557  66.2746277   8.6746454  59.0545158  65.5873032   7.3768435
  48.5244026   8.7794819  49.6814156  49.0363350   9.5554047  49.4531593
  48.6627274   8.1776104  48.9500809  82.0972290   7.7918119  49.3433418
  82.1770554   8.3603601  50.1092491  82.1569519   6.9042158  49.6966667
  56.1026726  12.0167608  76.3780060  56.3100586  12.5928154  77.1137924
  56.8189621  12.1530209  75.7578430  24.8992405  52.4533463  78.4809952
  25.4784775  52.0191612  79.1072540  25.4770374  52.7218246  77.7666397
  56.0015526  30.2935677  26.7740383  56.4394073  29.5554066  26.3502045
  55.4009132  29.8886223  27.3997231  16.8237019  32.9964676  17.5468769
  17.6332932  32.4920425  17.4672203  16.1355839  32.3350754  17.6195679
  16.6878567   9.5672369  83.2241974  16.1045952   8.9978762  82.7223282
  16.3275261   9.5574179  84.1109314  48.3962250  12.4379644  38.9179420
  48.5110016  11.6117239  39.3873940  47.8251152  12.9575577  39.4837036
  34.5644112  33.4659843  17.2971725  34.4639130  32.6203651  16.8600655
  35.0943146  33.2741852  18.0708942  28.7803135  56.7792854   0.4352782
  28.6152210  57.6717987   0.7392524  29.6313477  56.8281326  -0.0001374
  59.9639168  35.0694542  28.0216122  59.5416641  34.2366829  27.8108311
  60.7128525  35.1154366  27.4272919  74.4903412  56.0332260  40.4873962
  74.0589752  55.3901253  41.0500488  73.9825897  56.8356705  40.6078377
   9.0289087  65.3979263  55.9059258   9.8598204  64.9609756  55.7191429
   9.1481562  65.7771530  56.7766724   6.2497787  12.5366631   8.9772491
   6.9826121  12.5183382   9.5927582   6.5067716  13.1813040   8.3179874
  19.7347088  45.7579765  61.7446060  19.3346577  46.4458389  61.2125931
  20.4497528  45.4223747  61.2039452  84.4716492  57.5559464  12.7078142
  84.4996719  56.6904678  13.1157255  83.8986969  58.0703087  13.2764826
  56.4343033  54.0898972  44.6756783  55.9678307  54.8599434  45.0007362
  55.7889900  53.3840981  44.7163391  84.5686188  29.3975124  41.2915268
  84.1210785  30.0427608  41.8388786  85.2938919  29.8808899  40.8958588
  27.8012962  54.7439995  38.2427635  27.4626350  53.9620552  38.6787758
  27.1074696  55.3952789  38.3460503   8.7879763  40.1799927   0.3929896
   9.2941513  40.3788071   1.1807026   9.1788158  39.3746300   0.0540660
  82.9756546  40.5815163   6.4711146  82.0781326  40.3423958   6.7024417
  83.5120087  40.1987953   7.1654315  23.4373531  49.0120354  26.9731750
  24.2716961  49.3700600  27.2763615  23.6363716  48.1052132  26.7401619
  59.4269218  20.6957760   2.7834182  59.7900314  19.8429432   3.0222886
  58.8563461  20.9269619   3.5163767  49.5496178  45.5869865   4.0914264
  50.2744827  45.4187622   4.6935110  48.7658577  45.3542862   4.5892191
  55.5140114  20.3591385  76.5611801  56.2720299  20.6682663  76.0651169
  55.8856049  19.9973373  77.3656998  46.2661934  22.6872311  35.0729256
  45.9960136  23.0981064  35.8941574  47.0210838  23.2006569  34.7852364
  27.0489311  18.1142120  79.1875610  26.4059658  17.5163326  78.8062897
  26.5541630  18.6172714  79.8343735  75.2650299  49.3241234  60.4775925
  75.5899887  50.2015038  60.2755127  74.8083115  49.4243507  61.3128166
  21.8212662  66.5308685   9.9394760  21.0777321  66.0153885   9.6269598
  22.0524521  66.1332321  10.7789211  12.5073280   8.9524822  64.7154465
  12.1612711   8.7361917  63.8495979  13.0786772   9.7053423  64.5638123
  72.5783844  27.1269073  44.0122719  73.0427475  26.9014530  43.2061882
  72.2984848  28.0329552  43.8820267   9.0950241  38.2430305  69.0515289
   8.5058527  37.6922646  69.5670624   9.8450041  38.3952065  69.6265106
   5.5515213  64.0193710  73.5770493   5.2422099  63.2093048  73.1716385
   4.7621570  64.5500183  73.6844864  82.4510498  31.9919643  80.2960892
  82.5482635  31.0441818  80.3882294  82.3902664  32.1358147  79.3517151
  15.5363426  68.4665985  83.9743042  15.6840878  67.6607361  84.4692612
  16.1718578  69.0869446  84.3314133   7.9385161  63.9000397  76.5978928
   8.2647123  64.0625534  75.7127914   7.0720668  64.3066025  76.6122437
  77.3125763  66.6836700  51.4914131  77.3755341  67.3327026  52.1921425
  78.1739655  66.6973114  51.0742149  38.2682343  38.3465767  82.8424149
  38.4537849  39.2118988  82.4777069  37.5597687  38.4972992  83.4681931
  11.7926922  70.8516388  55.8799362  11.5553522  71.3415680  55.0926170
  11.7389030  71.4943085  56.5872612  70.4834366  46.0734138  61.4888611
  71.2334518  45.8526268  60.9366226  70.7698669  46.8389969  61.9869308
   9.8709450  12.2123623  77.1338425   9.5020275  12.8023634  77.7911377
  10.5221596  12.7426500  76.6745529  50.3056564  11.8506155  82.3168793
  51.0035362  12.5050163  82.3477325  49.5658569  12.2684460  82.7577286
  83.7780380  16.3475075   3.3083026  82.9976425  15.7960167   3.2528622
  84.3639526  16.0017967   2.6349411  54.1880531  69.9423676  23.5282345
  54.3690071  70.4940720  24.2892265  54.1719284  70.5509567  22.7895908
  57.9954643  31.7884350  84.0674210  57.4407997  32.3711853  83.5487900
  57.5671043  31.7482910  84.9224777  33.3029671  55.7407036   9.7318611
  33.8595886  56.4509354   9.4125242  32.5208321  55.7835197   9.1817131
  16.6117420  44.0092316  87.6602783  16.4704914  43.2501373  88.2260132
  16.0406170  44.6869736  88.0218201  21.2258415   8.3604031  86.9215240
  22.1688519   8.4694138  87.0443268  20.9172096   9.2266130  86.6557007
  50.5745964  57.1797523   3.2841775  50.0616035  57.4339027   2.5170534
  51.4853745  57.2744980   3.0053668  58.0362282  67.3923187   9.7083769
  57.6795273  67.9683685   9.0322418  57.2661438  66.9967270  10.1166801
  51.8257408  49.4882965  35.9105339  51.3548660  48.7057076  36.1970024
  51.7396393  49.4840927  34.9572220  44.6836777   1.7949831  46.8648109
  45.0545197   1.7058620  47.7427444  45.4450607   1.8335567  46.2859802
  58.1815796  24.6282158  21.5979176  58.6788902  25.3911247  21.8926773
  58.8091736  23.9061890  21.6300392  75.5591507  20.7920761  87.7148819
  74.9333115  20.5433254  87.0346756  75.1769333  21.5712490  88.1186523
   7.4449701  40.0876694  14.2934408   6.5493717  39.7789497  14.4306545
   7.5952277  39.9771080  13.3545952  21.6031132  58.7483177  86.1545944
  22.1316376  58.9242172  86.9330215  20.8339252  58.2855492  86.4868927
  19.5192089  33.3859863  73.1491165  18.5621967  33.3859940  73.1680527
  19.7768326  33.2606773  74.0624466  15.1249971  12.6731272  24.6174450
  15.8662643  13.1161757  25.0303154  14.3565111  13.1515942  24.9284592
  54.5062027  14.7892962  76.3654404  54.3749542  15.6877069  76.6685333
  54.2611237  14.2456989  77.1142197  39.5679588  11.6615248  13.4484615
  40.1321259  12.3440857  13.8118591  40.0362320  10.8452892  13.6237087
  82.0858994   0.5983984  24.6461315  81.9623184   1.5348988  24.4914532
  83.0209427   0.4531445  24.5017815  35.3777924   7.0365133  12.7298317
  35.4681396   6.6959119  11.8398542  34.7713509   7.7721429  12.6443386
  36.7701454  70.5321274  64.2102661  36.3741913  69.8203583  64.7130890
  36.2829437  71.3123398  64.4750900   1.8430266  32.4814377  87.9033279
   1.6458467  33.3352089  87.5180740   1.1544666  32.3478050  88.5546799
  67.5691071  67.2166443  26.9421692  67.5711594  68.0995255  26.5723724
  67.3458710  67.3437119  27.8642597  19.6392002  70.7708206  36.3099365
  20.0690556  71.6095581  36.4771614  19.5476093  70.3719025  37.1752205
  78.7352905  22.5384998   3.5948341  79.6729126  22.7279930   3.5603037
  78.5367737  22.4812355   4.5294690  56.9362526  30.3854008   1.9411511
  56.0278320  30.3729553   1.6397313  57.2479935  31.2644501   1.7259281
  73.2170944  23.8081532  66.3197937  74.0531769  23.3872375  66.1197281
  72.5881042  23.3791924  65.7396240  29.4300442  40.2064133   3.1006072
  28.6374855  39.6698303   3.0877991  30.1479282  39.5732689   3.1028688
  84.9630508  57.7752419  23.8920803  85.4944153  57.1861687  24.4276867
  85.4812012  58.5778770  23.8327465  50.5227203  27.8656292  39.2182808
  50.4028969  27.0785885  38.6868286  49.7615929  27.8809910  39.7985268
  35.5758247  23.8706512  70.3398972  36.3973694  24.3558540  70.4165421
  34.8952332  24.5410519  70.3998260  76.0369873  10.2866869  28.3192596
  75.7989120   9.8364334  29.1297073  75.5523911   9.8229275  27.6363773
  26.3414516  55.5549812  21.5227776  26.1148376  55.1654892  22.3672733
  25.6403866  55.2752342  20.9341526   9.0428133  44.7348251  33.1853981
   8.8672848  45.6757736  33.1791763   8.6306095  44.4089928  32.3853035
  78.4947586  66.9150848   3.4217570  79.1044006  66.4895859   2.8188367
  78.6579437  66.4927216   4.2650909  23.5236511  61.2192383  72.9027939
  23.6091805  60.5662575  72.2081451  22.7210331  61.6942825  72.6874542
  81.5350494  49.6627502  32.8828392  80.6506042  49.4806976  32.5652618
  81.4580460  50.5008888  33.3387222  67.7645950  23.0286102  72.3484879
  67.4250641  23.1438694  73.2359924  68.6241531  22.6257420  72.4713211
  71.7438278   5.8367143   4.6440983  71.3749847   6.0787368   5.4935751
  71.1321106   5.1896100   4.2929702  14.5163651  39.5927391  -0.0591032
  13.6923189  39.7433319   0.4040397  15.1312685  40.2083893   0.3397671
  74.6862793  34.1275368  82.3257523  74.2057037  34.8989372  82.6261215
  74.1888351  33.8146248  81.5701981  59.8251953   0.4581321  11.7577868
  59.0229797   0.2734284  12.2462206  59.6385612   1.2718912  11.2896032
  67.2255478  68.6582947  39.8876686  67.0536346  68.9421616  40.7854996
  68.1592789  68.8246765  39.7584953  25.5765419  28.2295818   1.4314424
  25.2163963  29.0119114   1.0137218  24.8421364  27.6166191   1.4654701
  44.3292160  53.7278595  41.6487312  44.2528954  54.5873718  41.2344284
  43.8821487  53.8266144  42.4893303  46.4224434   9.1919966  69.5487595
  46.7897186   8.3227034  69.7089767  45.6700325   9.2464304  70.1379471
  11.2801619  60.4828033  38.4594307  10.5248995  60.9761086  38.7795296
  10.9724379  60.0707893  37.6520996  29.8381195  14.2686205  72.5205460
  30.7929611  14.2196064  72.5664139  29.5553627  13.3581018  72.4354782
  23.6458664  29.2898674  78.6798935  22.7933311  28.9281483  78.9219131
  23.5756092  29.4608688  77.7407150  72.7279816  17.2498016  73.4995575
  72.2749100  17.9402103  73.0155106  73.0383606  17.6800156  74.2963028
  22.5790863  55.7841187  73.5404129  23.1138992  55.8760262  74.3289261
  21.6785927  55.7557106  73.8637314  39.9682999   3.7928748  43.9936905
  39.2901726   3.5493937  44.6238403  39.9849815   4.7496333  44.0174980
  20.6823845  36.5912323  10.2785854  19.9619465  36.6866493  10.9015589
  21.1126537  37.4462738  10.2771978  82.6926117   3.3794568  31.9269238
  82.9889297   4.2657590  31.7198086  83.2486267   2.8104987  31.3946037
  39.8244591  60.2937469  57.5205650  38.9047241  60.1753120  57.7578201
  40.2904015  59.6301422  58.0292473  55.3155327  30.1492195  32.0211449
  55.3362808  30.9592056  31.5115128  56.1795845  30.1014404  32.4302406
  86.5121002  16.9257259  49.3933182  86.5120010  17.7662563  49.8512917
  87.2130432  16.4253922  49.8111382  81.2621231  13.5607853  20.6381683
  82.1234589  13.1591549  20.7522926  80.8104324  13.3982267  21.4662876
   7.4601035  41.4615402  78.4265671   6.6072826  41.0843277  78.2106018
   7.2686443  42.1196022  79.0947952  19.3118286  69.0529938  59.6354408
  19.7020855  68.9329987  60.5011978  18.7864189  68.2647400  59.4982185
  28.6590614  44.7181435  21.8019886  29.0384960  44.3307381  22.5907707
  28.4726620  43.9706573  21.2338772  74.6734467  11.0339689  18.3346081
  75.5712814  10.9891157  18.6634083  74.1879578  10.4136534  18.8784256
  57.0300941  17.2951851   5.0206757  57.1218605  16.3530350   5.1626792
  57.8532867  17.5565052   4.6080050   6.7810917   2.1326830  31.6795959
   7.3812580   1.5801677  32.1803551   7.3415461   2.8045397  31.2913551
  73.7211761  23.5766335  50.1352882  74.0957718  24.4310837  49.9212227
  73.7650833  23.5283203  51.0902596   4.7665868  28.3283024  75.5683746
   5.1396565  27.6271286  75.0341415   4.1607957  27.8820992  76.1601105
  79.5602646  51.8708572  18.4492111  79.1292725  51.0166550  18.4778156
  80.3064346  51.7826233  19.0422306  83.3588715  62.4878349  71.7795944
  84.2685623  62.4123535  71.4915009  82.9816742  63.1573753  71.2089233
  40.9815140  64.9961853  35.4433899  40.3256874  64.8674164  34.7581558
  41.7910919  65.1828995  34.9680405  37.7454948  46.9548531  43.3033791
  37.9969139  47.0357628  44.2234192  38.5164528  47.2481041  42.8177261
  78.6884308   3.2397993  83.9862442  77.8100281   3.2997251  84.3618088
  79.1475372   4.0074272  84.3271179  21.9573917  41.5487480  69.6595078
  21.1304913  41.2610092  70.0463791  22.2016773  42.3237305  70.1654358
  68.5909576  61.6190529  66.1667023  67.6736069  61.7560272  65.9301758
  68.9721756  61.1827431  65.4047699  84.3629150  41.2500381  39.0405121
  84.8634262  40.4638367  39.2586899  83.8082962  40.9849510  38.3067818
  54.7282066  12.9267941  54.6538620  55.2772980  13.6999989  54.7837982
  53.8595467  13.1971560  54.9514656   7.3915310   0.2848624  87.7041473
   6.9226379  -0.2118694  87.0335999   6.8921957   1.0965487  87.7939301
  26.4838219  66.5550995  17.4001942  27.0110703  65.9955750  17.9704399
  27.1237316  67.0950241  16.9362717  61.1376343  31.1653576  11.6202259
  60.1907082  31.1265163  11.7546015  61.2392235  31.3992672  10.6976223
  36.5589981  48.7341652  61.1411629  35.8528557  48.2575264  61.5775185
  36.3085060  48.7405205  60.2173386  70.2058563  11.4186983  14.5469036
  71.1270142  11.6266623  14.3905363  69.7818527  11.5576601  13.7000637
  68.0783920  70.8038788   1.4392959  68.3395615  70.0040131   1.8956258
  67.2845383  70.5598068   0.9634224  43.7429733  32.3303490  18.2225475
  44.5393066  32.8121147  17.9989643  43.0316582  32.9419823  18.0323772
  75.7609711   9.9769011  78.7423935  76.1756363  10.3391304  79.5253830
  75.3299789   9.1784325  79.0472336  68.5875702  32.9939270  22.9407368
  68.4728394  33.6190796  22.2250156  67.6992874  32.8217506  23.2530556
  67.5436707  24.7988319  59.4381752  67.5602341  25.6809654  59.0669632
  67.4927750  24.2198524  58.6776314  44.2660103  30.4907055   7.4152365
  43.6092644  29.8909969   7.7691617  44.6745262  30.8814812   8.1876631
  82.5693665  64.4956818  28.6524010  83.5082397  64.4101715  28.8180332
  82.4926987  64.4869003  27.6983185  36.2090569  57.4240532  17.2779083
  36.0452728  57.7659645  18.1568298  37.1532211  57.2685318  17.2535076
  38.5996513  16.1298618  14.1295099  38.7627716  16.6010799  13.3124571
  38.3006668  15.2642050  13.8511639  19.7573738  12.7548752  16.1762581
  19.7836132  11.8837051  15.7805223  19.8058147  12.5916185  17.1181889
  80.2819366   3.4455290  39.5680275  80.3500824   4.3876591  39.4131737
  79.8637390   3.3734565  40.4260139  43.5966644  62.4675484   7.2639084
  44.4907951  62.7561264   7.0809035  43.4195900  61.8008842   6.6002555
  68.9738235  69.2312241  35.4661827  68.2872162  69.4983139  36.0773010
  69.2120514  70.0364609  35.0067635  34.4430199   3.3194494  69.5300217
  34.7452812   4.1826477  69.2476044  33.9493027   2.9821815  68.7825394
  30.4949036  41.8963890  86.2753143  31.2164841  41.9658470  85.6502304
  30.7049809  42.5360909  86.9556656  53.7416801  51.5220528  26.2693520
  53.0329666  51.5700531  26.9109535  53.6710892  52.3374825  25.7730427
  64.6471863  46.1298676  17.3263741  65.0404739  45.3583603  16.9185276
  65.2567596  46.8413734  17.1303749  83.4634018  39.9064636  32.2642326
  83.6172943  39.6787071  33.1811142  83.9138489  39.2225266  31.7686920
  81.6756744   7.5725222  68.4897232  80.8570862   7.3859181  68.0300217
  82.0641403   8.2987289  68.0019226  21.3741055  58.8452492   7.2850165
  21.2391338  58.9904137   6.3485646  20.8676643  59.5373764   7.7101183
  63.7258682  53.5427055  22.5683308  62.9622040  53.2411346  23.0603657
  64.1737137  54.1423988  23.1650200  12.8141689  44.9770393   6.1788349
  13.6176882  45.2649307   5.7455845  13.1146231  44.4054871   6.8854384
  70.4990463   7.5006990  81.1205597  70.0560913   7.2824264  80.3005676
  69.9862671   8.2220812  81.4851151  84.8273392  63.8021507   6.5688243
  85.7782288  63.6986542   6.6053939  84.6360245  63.9312973   5.6398735
  24.1922684  45.4012299  14.5588446  24.5961571  44.6100006  14.2023840
  23.4905777  45.0781517  15.1240740  82.6473007  31.6101627  34.5989456
  82.0354309  30.8783016  34.5200043  82.9447098  31.5767021  35.5081558
  65.0153809  10.5133152  40.0938339  65.2019272  11.2371359  40.6917610
  65.4999771  10.7297277  39.2972374   7.2644930  65.5178986  80.9181213
   7.9593668  65.2655258  81.5261459   6.8886309  64.6874847  80.6259308
  72.5362091  11.8661699  56.1787453  72.7507629  12.0340500  57.0963593
  72.0667496  12.6506491  55.8951454   4.3910918  22.0520611  75.5686417
   5.1542587  22.3836823  76.0417557   4.3915901  22.5369778  74.7433624
  59.5959740  48.3177338  84.6029434  58.8791542  48.9306221  84.4393311
  59.2494278  47.7136574  85.2596207  50.6698265  66.7496796   0.4959370
  50.6431847  65.8199615   0.7220735  50.2016144  67.1832275   1.2094135
  71.0846786  28.2761936  86.7409363  70.5408936  28.7268944  87.3870010
  71.9783783  28.5499020  86.9473572  83.1947021  25.9977417  42.1881638
  83.7958450  26.4332581  42.7924690  83.2509155  26.5115891  41.3825378
  70.2809219  36.0318184  23.7030716  69.7591934  35.6308479  23.0079079
  70.6944046  36.7879105  23.2864285  29.2693748  37.2280807   0.7368104
  28.7651348  38.0292397   0.8786422  29.8172283  37.1484909   1.5176775
   2.6235006  41.0653458  65.3682480   2.4540253  41.2568130  66.2906570
   3.1687610  40.2787704  65.3831558  83.9640732  59.9888916  20.1787071
  83.5709839  60.2100029  21.0229969  83.4735870  60.5093613  19.5424976
  40.8032875   5.1520023  77.8046494  41.1123428   4.6161032  78.5350800
  39.8612709   5.2369633  77.9516907  52.7400093  42.3254967  88.4551773
  52.5793495  41.6302338  89.0931702  52.2477608  43.0754318  88.7891235
  60.0755501  59.0597458  16.6530819  59.5192986  58.4659958  16.1488209
  59.5781136  59.8764763  16.6947784  78.9880371  20.0730247  85.9376755
  78.5898132  19.5011196  85.2814865  79.7164383  20.4923210  85.4795685
  44.0459290  17.6089859  17.3908920  44.9122047  17.6643925  16.9875011
  43.9955444  18.3793144  17.9568310  45.8816643  33.7509689  12.8560705
  46.1548309  33.1514473  13.5504646  45.0490685  34.1097183  13.1631823
  44.8066177  60.0786018  14.6043777  45.3535080  60.7554779  15.0031004
  45.2911224  59.2652473  14.7456064  47.5885735  66.4689255  69.5999146
  47.8480072  67.2128754  69.0563431  46.7296638  66.7125092  69.9451218
  60.7886772  41.7334824  29.6312618  60.0820961  41.1150932  29.8171825
  61.5317268  41.1817474  29.3869438  34.8322792  65.4715042   8.8410044
  34.3151016  66.1760101   9.2314329  34.5027924  64.6742859   9.2558804
  36.7794113  55.1646957  63.8341560  36.4911423  56.0774040  63.8440094
  37.7297401  55.2147713  63.7311974  42.8939171  54.6595345  71.4990540
  43.5132523  55.3891830  71.5154877  43.4455376  53.8773232  71.4895248
  63.1527290  31.5805893  30.1700783  62.4434242  31.3877544  29.5569420
  63.5753326  32.3602715  29.8098927  70.9017410  25.5541592  83.1087341
  71.0555573  26.3792458  83.5689621  71.7779541  25.2164612  82.9231567
  35.9800606  68.6460800  75.6192474  36.3323364  67.9878540  76.2182999
  35.7180176  69.3708267  76.1869736  26.6036091  67.6322479  75.2840042
  26.1388016  67.4958420  74.4584274  25.9799519  68.1056595  75.8346100
  31.8813248  35.1817665  82.4512177  32.6157875  34.8311005  81.9474030
  32.2915535  35.6997337  83.1437836  67.6621323  19.0132656  36.9657745
  67.3037643  18.8499279  37.8381958  67.0598831  18.5653419  36.3717308
  70.8204422  36.0508080  45.6953773  71.1126556  35.1395950  45.6723518
  71.5414352  36.5231056  46.1116982  46.8504028  27.2411728   2.8934107
  46.6903229  26.3276558   2.6565745  46.1338997  27.4635696   3.4878836
  67.8800278  37.3757591  13.8800201  67.4061890  36.8680267  13.2212973
  68.7354507  36.9505081  13.9405003  67.0525665  27.7648945  43.4679871
  66.7396469  28.6286678  43.7367058  67.9956284  27.8780174  43.3493919
  24.3899021  55.5204277  39.0546837  23.8253899  55.0420265  39.6618805
  25.0076141  55.9861870  39.6183586  41.7624245  42.6607018  49.5908279
  42.0287285  41.7637367  49.3889160  41.5286827  43.0378265  48.7426682
  33.1919746  48.6767387  38.4496765  34.0237923  49.1365128  38.3360062
  32.7281685  48.8129616  37.6235046   9.1719151  53.9137993  55.9664612
   8.2381210  53.7847290  56.1326027   9.3455257  53.4102554  55.1711426
  65.5033722  16.8321915  41.9396019  66.3388901  17.1305389  42.2989388
  64.8911667  16.8952351  42.6727257  13.8719091  10.0234041  56.1703339
  13.8025303   9.7888432  57.0957527  13.2158737  10.7094908  56.0473137
  39.3962746  58.0483017  45.8179932  40.0630913  58.7146683  45.6520271
  38.5818863  58.4408722  45.5035248  11.7849140  53.1026535  22.8024178
  11.1300535  53.7728615  22.6069336  12.0032549  52.7253609  21.9502392
  11.2649450  46.4223557  87.0880737  11.6731739  45.7038956  87.5711823
  10.3742933  46.1181221  86.9136810  41.8242455  41.3949661  60.6826210
  41.0863113  41.0121193  61.1570854  42.4776649  41.5727425  61.3591347
  76.2063904  19.7869396  10.0445786  76.9060211  19.4742718   9.4710083
  75.7828445  18.9895248  10.3623466  55.5577812   1.5526683  58.5588379
  55.9417381   1.8286060  59.3911057  56.0318222   0.7532812  58.3297157
  22.1665096  34.7893753   1.7119279  21.9713230  33.8529663   1.7475886
  22.9275131  34.8536034   1.1348827  84.2948990   5.7765369  43.8737030
  83.6114883   5.2266760  43.4905014  85.0204697   5.1750646  44.0410423
   9.5780706  45.0054207  69.0042114   8.7807779  44.6920280  69.4312286
   9.8276167  44.2957077  68.4123840  76.5732117  67.2112350  70.8894196
  76.6991119  66.8106384  70.0292435  75.6233749  67.2839127  70.9830704
  61.6425095  20.9767494  51.4882278  61.0302315  21.2101688  50.7904701
  61.7472496  21.7823906  51.9943924  22.8868504   2.8386464   0.9138166
  23.2476788   1.9691687   1.0871458  22.2134666   2.6905129   0.2498568
  57.5309181  63.4148026  21.0015793  57.3722572  63.4646835  21.9442196
  56.9331589  64.0598373  20.6236248  16.6160488  18.5000763  11.2710686
  17.3537636  18.4196663  11.8756714  16.9348907  18.1202908  10.4523287
  22.4048672   5.5476069  30.2061234  23.1321106   5.7444072  30.7965622
  22.3226738   6.3285570  29.6587715  14.3871279  66.8340149  17.4815159
  13.9164219  67.5696182  17.0896664  14.2879896  66.9614944  18.4249954
  71.0632477  44.2251930  56.5931053  70.2754898  44.7151299  56.3572540
  71.3607559  43.8390503  55.7693253  25.3851089  14.7550840  16.5351753
  25.8250637  14.6642637  15.6899385  26.0973396  14.7841539  17.1740131
  70.9498138  27.8313370  10.4374866  70.7218704  27.0354443  10.9179306
  71.8585587  27.6967907  10.1685686  37.2031517  12.7864542   0.7106048
  36.3596077  12.8890829   1.1512125  37.6521835  12.1036539   1.2089885
  34.6078987  46.7288704  28.0477524  34.7789574  45.8926353  27.6145325
  34.3427238  47.3156815  27.3395386  49.0399818  23.6266251  83.1164246
  48.9457664  23.5753994  84.0675964  48.1424370  23.6901894  82.7899170
  29.4028130  22.9328480  76.5753174  28.5632992  23.3616123  76.4091492
  30.0101566  23.6530113  76.7448196   7.7449894  32.0722694  60.6451759
   8.5456743  31.5860634  60.8420067   7.9418974  32.5393677  59.8332176
   5.1031313  34.4905968  11.8143702   5.5992908  35.2923584  11.9794130
   5.0291238  34.4466896  10.8610458  17.4534740  45.1553726  65.4857407
  17.8810978  46.0113220  65.5125809  17.1706867  45.0573158  64.5765381
  13.6896238  12.0402145   1.3164082  12.9829769  12.5214291   0.8859264
  13.7927179  11.2460899   0.7920322   4.6757360   8.8753557  71.9388504
   4.4175034   8.0463381  71.5360107   3.9238706   9.4520111  71.8032074
  57.9966888  65.9842377  29.3989410  58.7159805  65.3846130  29.5971756
  57.8855324  66.4977570  30.1990547  63.9631996  29.2302780  85.9256363
  63.9609375  28.8063927  85.0674057  64.8349304  29.0519886  86.2785263
  37.6030540  42.7880630  64.7980576  38.3092422  43.2005348  64.3006668
  36.9703293  42.5146179  64.1338882   4.3453870  63.6516914  78.4701462
   4.5443234  63.5449524  79.4003448   3.4025569  63.4986839  78.4077606
  59.6190376  16.8466854  41.0833244  58.9653206  16.3204746  40.6228981
  60.4420624  16.6522522  40.6349297  78.9221725  36.0947113  11.4196081
  78.7067947  36.7454071  12.0877733  78.1042633  35.9644241  10.9397297
  12.5434999  52.6232834  89.2671890  12.2871971  52.6626053  88.3457794
  12.9740715  51.7734413  89.3599701  72.9643173  67.3792877  50.7485924
  72.8926163  68.0917892  50.1134262  73.7529144  66.9038696  50.4872208
   6.2933979  52.2637749  12.6533918   5.5684118  52.0690498  12.0594988
   5.8957601  52.2660446  13.5240879  42.0012360  25.6082058  62.4838676
  42.1827202  25.2451401  63.3507462  41.0461464  25.6106434  62.4203758
  15.3027849  54.1482887  18.3945026  14.7794828  54.3455467  17.6176662
  15.5656252  55.0052986  18.7301826  49.8506699  53.8966103  60.4376068
  50.0214157  54.6065445  59.8186798  49.0706711  53.4613342  60.0935669
  44.5198784  13.8275757  85.0159988  45.0815926  13.8734369  84.2423096
  44.0363007  13.0079994  84.9126511  26.6387653  61.2228737  71.5529099
  25.9834328  61.3457565  72.2396927  27.4413548  61.0004501  72.0247269
  13.5609484  43.5745239  47.3851929  12.9500856  43.0708427  47.9231377
  13.0527983  44.3297310  47.0890923   1.5279372   9.5578375  14.8900576
   1.1872971  10.3660946  14.5067606   0.8318846   8.9154129  14.7520952
  76.6401749  51.5235100  59.5430603  77.2359619  52.1910439  59.8831635
  75.7764359  51.9348259  59.5747490  47.3915901  61.2195930  72.1583557
  46.8500099  61.9823303  71.9554901  47.8422432  61.4547234  72.9694366
  39.5070610  66.3472824  62.2528419  39.4720116  67.2602921  61.9674950
  40.3841553  66.2453384  62.6223640   1.5590894  61.0796356  39.9225006
   2.3084528  60.9984169  39.3325081   1.0928705  61.8558502  39.6120720
  61.2647209  15.8740063  85.0191803  61.2203255  15.2080803  85.7053299
  61.2094803  15.3794508  84.2014999  35.6034508   0.6911398  78.8783264
  35.0470505   1.4248549  78.6169586  35.0679474   0.1923732  79.4953308
  55.6595650  61.6722336  26.4522972  55.7864838  62.4700317  26.9657555
  56.4373207  61.1445122  26.6335087   4.6764913  61.1133957  14.2357426
   4.3397489  61.0737114  15.1308746   5.0636106  60.2506981  14.0870104
   2.2426553  52.5679893   6.7931342   2.6456845  51.7713432   7.1383185
   1.8276559  52.2917595   5.9760022  17.4726620  13.4339571  14.7509737
  16.7252445  13.3253393  15.3390226  18.2348461  13.2262039  15.2914782
  40.5667076  18.2290497  66.2457504  40.7893333  18.4552708  67.1487961
  39.7687950  18.7256393  66.0641861  52.9551544  44.2585754  25.9573345
  52.2779007  44.8035049  25.5565681  52.5429268  43.4007683  26.0596409
  65.4731674  33.7110405   3.2122085  65.1561584  33.0343513   2.6140218
  64.7628174  33.8243790   3.8437042  67.3626404  28.3105202   2.8897436
  66.9342270  28.1065063   2.0584340  66.8124466  27.8919353   3.5517902
   7.9493632  68.9217529  59.2762070   8.1873417  69.8397522  59.1462975
   8.0744286  68.7722092  60.2133446  57.7947884  45.9426994  35.0332870
  57.4817390  45.7170677  34.1573181  58.2546158  45.1583939  35.3327026
  77.3446960  29.0254898  18.8528519  77.1039352  28.5190735  18.0770874
  77.8014526  28.3997879  19.4150810  66.4835205   1.8274112  77.4064560
  66.1798782   0.9399725  77.2154388  65.7774124   2.3941824  77.0959549
   8.9380693  49.0192337  79.8206558   9.8951950  49.0303535  79.8165359
   8.7044373  48.2960892  79.2386627  47.7038689   0.4544931  87.1765900
  47.1526375   1.0418893  86.6595306  47.8206825  -0.3157460  86.6204224
  39.9332619  10.7278881  87.5692215  40.6418266  10.6837549  88.2112656
  39.6229630   9.8256302  87.4925690  84.5050278   7.9828291  41.3385849
  84.1952515   7.3451862  41.9817657  83.8070297   8.0219526  40.6847496
  74.0184402  34.9182014  12.1328583  74.2338638  34.0197372  12.3830338
  73.7393875  35.3336601  12.9487953  63.4325256  34.7449074  35.4775085
  63.1392479  34.8296547  34.5702934  63.4378929  35.6416512  35.8122559
   3.9090769  40.8855972   6.2017870   3.3764260  40.2130814   5.7772460
   3.7141900  41.6872597   5.7164087  44.3634682  63.3194199  12.9715853
  44.8114395  63.1298714  13.7959795  43.9780350  62.4830132  12.7106256
  23.9000034  19.7139950  65.4955368  23.8313465  18.7869873  65.7239456
  24.4903717  20.0798759  66.1541901  56.7626572  65.1082916  53.1777534
  56.2447968  65.9092560  53.2584229  57.6378746  65.3580780  53.4741173
  53.6660156  51.5922813  33.2498131  54.3878250  51.8120270  32.6608009
  53.1212769  52.3792152  33.2650719  43.3432655   3.4374475  58.1412010
  43.9787636   3.5257986  57.4308739  42.6686401   4.0863514  57.9411087
  76.1856537  24.1711750  31.1073208  75.5834351  23.9690037  30.3913021
  76.0798492  25.1116009  31.2509689  65.9122391  62.0270653  44.1063042
  65.1135941  61.6024399  44.4195061  65.7193069  62.2599792  43.1981392
  78.6366348   4.9952750  36.0171204  79.5008926   4.6901522  35.7411194
  78.8145447   5.5959220  36.7408638  82.2715683   6.8728189  60.3817978
  82.9533768   6.7856832  61.0479698  82.5103531   7.6626077  59.8965683
  27.5051174  31.5300961  81.0298004  27.8976192  31.2759533  81.8650131
  27.9478855  32.3457260  80.7954178  16.7115669  14.7971878  75.0435791
  15.8214035  14.5197277  75.2600403  17.2727795  14.1262903  75.4323807
  20.5868931  23.3753433  15.6044035  20.3961258  23.8181438  14.7775011
  20.1099682  22.5473175  15.5482807  53.6934700  21.0724907  59.3520355
  54.3223686  21.4363384  59.9752007  53.8548813  21.5535259  58.5403824
   8.8082561  36.6031380  72.8350296   9.6902790  36.2337570  72.7923203
   8.2951536  35.9444733  73.3031311  55.3504105  53.5466194   4.7839818
  54.6345100  53.2320557   5.3360429  54.9351425  54.1644135   4.1822166
   2.4442792  29.3792782  74.2086639   3.3925796  29.2533169  74.2417068
   2.0897105  28.6709690  74.7460785  61.2266541  52.4738388  69.5943909
  60.7940331  52.9392929  68.8785477  60.5229645  52.2792587  70.2134094
  35.7157593  23.4446945   4.0068908  36.0435143  22.7671165   4.5982432
  34.9934425  23.8513813   4.4855294  59.4390717  64.1684723  37.2194786
  58.9734154  64.9969711  37.1054993  59.3045731  63.9427910  38.1399155
  65.5454178  59.6349602  39.9627686  65.6996460  59.6788063  40.9064445
  66.1993256  59.0139771  39.6418076   7.4998689  70.7965012  53.8231812
   7.8881049  70.5925522  52.9723511   7.0839453  69.9795914  54.0986671
  75.8855515  56.7999687  21.5099678  75.1204071  56.3189278  21.8252144
  76.6157379  56.4493866  22.0200176  58.2140694  59.9543457  64.0512924
  58.4205437  59.6185760  63.1790199  57.2580032  59.9369888  64.0944977
  69.8130112  50.4231033  48.2363281  69.8315430  50.0332184  49.1103287
  68.9911194  50.1153946  47.8541794  15.1373663  70.6764297  59.8417511
  15.1536360  69.8710556  60.3587952  14.7592611  70.4145432  59.0023003
  79.6209946   5.5901608  25.7825699  80.5627060   5.5376964  25.9458199
  79.2543411   5.9250693  26.6008835  48.1277809  34.7603531  31.0031891
  47.4521332  35.3670731  31.3058815  47.9976196  34.7099762  30.0562191
  28.3196125  71.0028076  15.6418161  28.3956566  70.7018051  16.5472698
  27.8211498  70.3143387  15.2016115  65.5269012  14.1284704  75.3411865
  65.9483109  14.9787416  75.4664078  65.1671753  13.9104939  76.2010193
  13.8198900  59.5412750  85.7589035  14.1996374  59.4209328  86.6292725
  13.0908613  60.1459465  85.8971786  68.9419403  13.0569916  62.1254616
  69.0818710  13.9424210  61.7898026  69.4417343  12.4947166  61.5336113
  35.1914482  51.4679794  53.2400475  35.5611916  51.0397034  52.4679718
  34.4321213  50.9326057  53.4703255   0.0029223  24.8059406  63.0637512
  -0.3461702  25.5939198  63.4802284   0.4772817  25.1298485  62.2980499
  35.5863113  51.0105667   5.1966033  35.5535011  50.8482285   4.2538409
  36.5067329  50.8877258   5.4289031  80.1432190  28.5842609  11.6206818
  79.5257721  28.2365417  10.9771881  79.5909805  28.9030170  12.3345909
  27.7141285  49.6713333  24.0412216  28.1940937  50.3448601  23.5593224
  27.8078175  48.8822975  23.5074844  82.7753448  33.5828590  60.5252686
  82.3223038  34.3991241  60.3138542  82.2044601  33.1494560  61.1596832
  21.0729790  49.2542076  73.0232010  21.7260017  49.1133804  73.7087326
  20.2674694  49.4587822  73.4981003  33.0573502  52.2083473  47.0437088
  32.2688866  51.7015953  47.2380219  33.7374268  51.8112488  47.5878105
  19.9922714  21.9132977   1.3997287  19.5766544  22.7467518   1.6207472
  19.5836887  21.2784367   1.9881521  13.3684416  28.3913383  84.6927490
  13.8989840  28.1803398  85.4610214  12.4901924  28.5421848  85.0422592
   4.5421834  42.9547234  22.8023224   4.0915155  42.8247108  21.9679203
   5.4259439  43.2286758  22.5570698  53.1180878  31.8008900  52.4573746
  52.2740555  31.6290359  52.8748779  52.9274178  31.7926483  51.5193939
  57.9229240  62.7418175  46.1242943  58.8274612  63.0499039  46.1802025
  57.7540207  62.3390007  46.9760208  33.6435356  53.9479179  59.6351242
  33.8709602  53.1587448  60.1267662  33.0997086  54.4564629  60.2366753
  49.4476891  46.8265533  57.8675232  49.8985481  47.2426605  57.1328011
  49.8772850  47.1830482  58.6450768  68.1309509  15.0659466  45.2611732
  68.7703323  15.2633133  45.9456177  68.5453415  15.3666296  44.4524040
  75.8307571  55.0089378  28.5236435  74.9064178  54.8440018  28.3375740
  76.1431198  55.5032921  27.7658348  79.4930267   5.0990133   6.7586837
  79.9320526   5.4782715   7.5200334  78.5609589   5.1466217   6.9713125
  20.9172745  33.5377197  69.7962112  20.3738651  34.1597900  70.2799149
  21.2507610  34.0390739  69.0521240  20.1777058  12.5022535  10.2043772
  21.0050316  12.8872881   9.9153900  19.7369766  13.2084618  10.6768808
  47.0869865   0.3712688  58.6617546  47.5588264   0.8520083  57.9816895
  47.2219963   0.8867354  59.4569283  36.7814331  32.1162872  88.0486374
  36.2307549  31.7381725  88.7342148  36.1619415  32.5040817  87.4305191
  44.5789375  65.2150345  47.5797424  43.7126465  65.5917892  47.4253769
  45.0577354  65.3741684  46.7663155  76.1594620  13.2364912  81.0141907
  76.7103271  12.4561005  80.9528351  75.2677917  12.8953962  81.0835266
  63.1379280  57.5512009  75.0175934  62.7440758  56.8992271  75.5972900
  62.8259087  58.3910065  75.3546371  17.2353687  63.8471642  79.7486649
  17.0253525  63.4477692  78.9045029  17.8050690  63.2101974  80.1798859
  41.8606033   8.0246506  62.7704468  42.4421539   7.7013221  62.0823402
  41.8864212   8.9770203  62.6779404  61.6786423  16.3895397  69.6754532
  62.1010895  15.8934250  70.3766251  61.4352646  17.2206593  70.0831833
  68.8485413   7.5951543  88.1120682  68.8575058   7.1851602  87.2471619
  69.4249115   7.0459270  88.6434631  16.2540913  28.4953957  12.9390554
  15.3341894  28.3381271  12.7262688  16.7209244  28.3311157  12.1197205
  36.6842384   2.7264354  52.5105362  35.9030075   3.2498167  52.6893654
  36.4596062   2.2197433  51.7301292  16.5947647  37.1327629  65.3724747
  16.1490784  36.6106453  64.7053986  16.9228592  36.4892883  66.0005951
  15.6028767  55.0102272  43.2133293  14.9347363  54.6043739  43.7656898
  15.5194292  55.9479561  43.3863449  12.2338743  57.7582207  69.7069931
  12.9130049  58.4321175  69.6773071  12.5581760  57.1191483  70.3415375
  18.4278011  68.6441574  48.9413528  18.6990891  69.1931458  49.6770439
  19.1807613  68.0769501  48.7753334  14.7072363  11.3332729   8.4247675
  14.1385822  11.8231678   7.8307409  14.1215029  10.7147675   8.8613434
  26.6766644  57.8320198  22.8488407  27.5175133  57.6753578  23.2785645
  26.4278870  56.9796371  22.4913750  84.2951508  19.5655651  55.9359398
  83.4568787  19.9347115  55.6579933  84.8598480  19.6482487  55.1674919
  55.8000679  57.3512268  28.2579174  55.4472733  56.4726334  28.1170845
  56.6899948  57.3109550  27.9077148  -0.1307648  47.7239151   2.8529055
  -0.4966730  47.9956207   3.6946414   0.7389908  48.1229439   2.8298242
  69.6057053  31.2450905  59.8540154  69.6394043  30.8978214  60.7453613
  70.2933884  31.9104862  59.8300438  45.0479889  62.6803932  18.4097862
  45.8788300  62.2050934  18.4048500  45.2814827  63.5680809  18.6812973
  30.1527500   9.8969221   7.2307382  29.7241096   9.8493280   8.0852747
  29.9868641  10.7900391   6.9289842  33.9667320  39.0050240  10.2864580
  33.6739273  39.2348747  11.1683121  33.9737320  39.8363953   9.8121128
   3.3649464  67.1496124  79.8851700   3.5139408  66.3407364  80.3748016
   4.2293124  67.3905258  79.5519028  42.2615738  49.9445534  21.8473911
  41.5069771  49.9496613  21.2585011  42.8900108  50.5382996  21.4365807
  27.0559826  37.7800064  19.8543606  26.1005478  37.7631912  19.7987576
  27.3154831  36.8604698  19.7965527  21.7673225  42.1416054  29.7531338
  21.7837734  42.3782921  30.6804638  20.8822727  41.8076668  29.6068420
  33.6389046  13.9807415  83.2680664  33.6346245  14.1588736  82.3275986
  33.0947952  14.6720486  83.6452560  71.6943207  32.0418358  75.1315842
  71.0189133  31.4048309  74.8986053  71.2153168  32.8588486  75.2704163
  61.9854927  49.6858902  40.1045265  62.0275421  48.9788246  40.7483597
  62.3677750  49.3105659  39.3112869  14.6830130   8.3315630  61.3381081
  13.8402348   8.5584040  61.7311745  15.1503687   7.8611307  62.0284004
  64.4265366   1.5328146  31.9399395  63.9093475   0.7359247  32.0570335
  63.8211441   2.2441471  32.1490746  71.0483093  48.3618088  33.2781868
  71.6763153  48.1806870  32.5788727  70.2829590  47.8315964  33.0560455
  49.7691307  30.7034378  81.0318680  49.2198486  30.1524429  81.5894699
  50.6139832  30.2540722  81.0089188   1.1582919   7.2476239  24.7930813
   0.8271513   8.0444832  24.3788452   0.4889442   7.0165772  25.4371490
  52.2141342  47.5706177  11.4655581  51.9454842  47.1571503  10.6451292
  51.4809265  48.1403847  11.6979446  57.4328690  50.3219414   2.1158960
  56.8150215  50.7378159   1.5146109  56.8993225  50.0656052   2.8681276
  65.5982056  12.2901373   0.9048545  65.0145569  13.0439329   0.8189511
  65.8438339  12.2816057   1.8299633  39.5785332  45.6123161  13.8476334
  40.4139481  45.7780914  14.2844725  39.0968018  46.4351654  13.9318228
  78.2816925  37.6944046  30.4879417  78.9416962  38.2733765  30.1065922
  78.5124664  36.8231163  30.1657143  65.6590424  50.4615707  72.8242340
  66.3005142  50.3453522  73.5251236  66.1391754  50.9181290  72.1334000
  20.3853836  53.8118820  65.8192444  20.4975967  53.4243584  66.6872711
  21.2762127  54.0005913  65.5242157  74.8795700  21.6658440  42.3366661
  74.1649551  21.9302750  41.7573280  74.4854202  21.0212669  42.9243698
   3.9618483  42.2875595  83.6838913   4.3672571  42.8925323  84.3050842
   4.1725812  41.4180374  84.0241089  33.4008064  57.6228943  75.6464996
  32.7515068  57.5015678  76.3392639  34.1683311  57.1381226  75.9500351
   6.5418181  40.2366524  64.2708817   7.2456598  39.6174011  64.0775757
   5.8975310  39.7226334  64.7576141  44.1132317  47.5602417   1.2281318
  43.4111977  46.9149551   1.1445475  44.8958664  47.0403748   1.4110312
   4.9265552  60.7515984  31.9943867   4.3333626  60.0786514  31.6604729
   4.4524732  61.5733490  31.8670788  40.0321121  14.3156414  64.4799042
  39.0989609  14.1906786  64.6526718  40.2615509  13.6065359  63.8792763
  15.5310516  53.3562393  87.9449844  15.7664175  52.4701462  87.6698990
  14.7957706  53.2332726  88.5453796  57.7565079  55.7615356  86.3092499
  58.6235275  56.0622368  86.5814438  57.1654129  56.0903549  86.9865341
  12.4672623  71.2215881  42.2207909  12.9465742  72.0242462  42.0152893
  12.5043259  70.7073441  41.4143066  32.6461258  49.1503487  32.8860626
  32.2480125  49.4458847  32.0672836  33.0634918  49.9331131  33.2456665
  48.4310799  58.9672508   1.6205186  48.6736679  58.4195404   0.8739283
  49.1131248  59.6378479   1.6572522  15.9702291  42.5620117  17.7764683
  16.2670364  42.7714577  18.6620579  15.0202274  42.6744652  17.8093891
  12.7650242  31.1326828  79.9921265  11.8297682  30.9732685  79.8651810
  12.8121691  32.0286789  80.3255997  71.7150421  36.4988518   8.9244261
  71.5574265  35.6516075   9.3410425  71.8176651  36.2934151   7.9951806
  23.1672649  53.3704567  68.2424088  23.8568878  53.9485283  68.5687332
  23.4618740  52.4902992  68.4764252  46.2890091   1.7401338  23.6476612
  45.8097458   2.4639716  24.0508957  47.1061249   1.6882073  24.1434975
   0.8858034  -0.2892069  47.3231812   1.4937449   0.0547623  47.9776459
   0.1442646   0.3157128  47.3437729  67.5463638   5.6930299  13.3858509
  66.8209763   6.1846595  13.0007067  68.0612793   6.3516498  13.8520250
  34.4282112  32.6887283   2.7819769  34.7842636  33.2099304   3.5015650
  33.5308380  32.4913902   3.0503304  83.7967377  22.1046009  35.1877747
  83.3378830  22.3902721  34.3977928  83.3390503  21.3077431  35.4556732
  15.4665937  37.4781876  12.4811249  14.8139477  36.7831688  12.3960848
  16.1337566  37.1106339  13.0608063  46.8924599  46.9292488  77.2722092
  47.3749771  46.4492760  77.9452896  47.2175636  46.5737877  76.4450531
  49.2488251  65.4776001  86.4309921  48.7091866  66.2266006  86.1779709
  49.2102890  64.8890686  85.6770935  18.8109589  64.6649933  50.9480133
  19.1706886  63.8609428  50.5734138  18.1877079  64.9769592  50.2919121
  53.3326797  26.9948711  18.4511299  52.4527969  26.7493248  18.1652126
  53.8444405  27.0354252  17.6432400  55.6502037  64.9974060  44.0953484
  56.1850433  65.4472885  43.4413033  56.2817917  64.6618271  44.7315216
  16.1286469  48.4347038  64.4480743  16.2231102  49.3869972  64.4270020
  16.8840580  48.1301498  64.9509048  21.5327950   1.0760909  46.4253502
  21.3929291   0.5162359  47.1890488  20.9454899   1.8193920  46.5624962
  54.2261124  59.1288948  77.8206253  54.3411636  59.0736809  78.7692795
  53.2784157  59.1819954  77.6969833  12.3395424  10.8368979  13.5413780
  11.8478203  11.2827463  14.2310591  11.9541454   9.9616909  13.4999695
  39.1027145   5.9253759  85.2917404  39.1218300   5.3182702  86.0315323
  38.7477303   5.4095883  84.5677338  19.5280991  53.9392090  13.8511248
  19.5490551  53.2492523  13.1879864  18.6695404  53.8481712  14.2644310
  20.7311516  50.8623619  65.5144196  21.5517044  50.9316826  66.0023956
  20.7516518  49.9838409  65.1349258  47.1835442  35.2609634  54.2919846
  46.3086853  35.0632477  53.9576721  47.6451111  34.4228172  54.2655716
  82.8527908   5.9973626  38.3948059  83.3684540   5.2541127  38.7077026
  83.4310989   6.4479475  37.7793617  78.3880692  53.4146576  15.2389374
  79.3397446  53.4223518  15.3413363  78.1274719  54.3285675  15.3533592
  78.6504059  15.9768944   0.6755825  79.0659561  15.3539448   0.0793583
  78.6699524  15.5420361   1.5280777   3.6203625  31.5919895  19.5714188
   3.3492911  32.5078697  19.5088749   3.3443887  31.3197594  20.4466114
  84.9270477  58.5105247  79.3521652  84.5302811  59.1093407  79.9848022
  85.4940186  57.9470444  79.8787231  70.5455170  17.9891548   2.8514352
  70.8552856  18.8902225   2.7600622  71.0365448  17.4990406   2.1919613
  30.0321789  42.9442711   6.9465342  30.5089779  42.4727631   7.6295967
  30.4039803  42.6188354   6.1267247  15.8476925  10.3672171  30.7900486
  16.4376583   9.6144314  30.7514858  15.1613684  10.1025133  31.4025211
  85.4995270  17.5443497  52.5687447  85.6895752  17.3917122  53.4943848
  85.6186295  16.6891594  52.1555901  85.2072678  69.8990479  61.4700661
  85.6615677  70.6924591  61.7535095  85.8241043  69.1908417  61.6549873
  25.5033112  43.7751923  73.5504761  25.7986546  44.3905067  72.8793716
  26.3095284  43.4669456  73.9642792   5.8762503  28.2753677  26.2249775
   5.4860187  29.1328583  26.0556793   6.7612867  28.4714642  26.5323696
  26.4544125   5.1956115  59.4664879  27.3688927   5.2377949  59.7460938
  26.3324451   4.2898054  59.1821098  66.8921661   7.9270120   8.5075331
  65.9444199   7.8079915   8.4455528  67.0257187   8.8640623   8.3649426
  57.8655815   8.7507982   3.5770581  57.6698227   9.5570078   4.0544844
  58.6744080   8.4277029   3.9740996  42.3008041  69.2500839  35.3643150
  41.5400314  69.0741653  34.8106804  42.0979500  68.8185425  36.1942863
  23.9957294  52.8764000  62.9983940  23.6294479  53.3070145  63.7708168
  23.3312683  52.2363548  62.7433128  22.6175957   4.1171894  78.1017075
  22.6071758   3.7124195  78.9690552  22.4778194   5.0489569  78.2705383
  31.0997963  59.2453537  63.7127228  31.7079277  58.8105888  64.3105392
  31.6538372  59.8173866  63.1816406  28.2602348  61.8553429  83.7985687
  27.4679928  61.5677719  84.2523193  28.3116665  61.2922325  83.0262375
  12.6115503  53.9034271  40.1161613  13.5105801  53.6956940  40.3707695
  12.5212831  54.8389091  40.2977028  69.7193680  54.1433296  63.5422287
  69.2906647  54.8034363  62.9975204  69.0276184  53.5132408  63.7439651
  79.9100571   4.9207187  59.9967041  80.6780853   5.3692942  60.3504601
  79.9947815   4.0193877  60.3075981  23.7092190  34.8081589  84.3430634
  22.8692589  34.8942146  84.7939453  24.2951012  34.4292793  84.9983673
  60.9067001  34.4304504  62.9446144  60.0979042  34.9264107  63.0715027
  61.1847153  34.6491318  62.0551643  14.5263729  54.8576088  65.3705063
  14.6215076  54.1573181  66.0160828  14.0233326  54.4609756  64.6592636
  56.5980186  21.9092999  59.1283035  56.3018875  22.8089333  58.9897461
  56.7407112  21.5656033  58.2464066  44.4476166   1.8912526   7.5222621
  43.5060120   1.7884794   7.3842192  44.8291626   1.0814219   7.1834011
  64.2400589  25.2989330  63.1223984  64.7412109  24.8215294  62.4612160
  63.5817795  24.6722507  63.4226837   2.3997545  39.9243507  32.9985771
   3.2531493  40.2324181  33.3036079   2.5953708  39.4204597  32.2086029
  65.8645477  62.2666550  41.4486313  65.4598999  62.8713608  40.8266869
  66.6801071  61.9981346  41.0255508   6.9635468  46.0275726  35.4606667
   7.5855837  46.2497787  36.1534348   7.4049840  46.2842369  34.6510429
  18.1476822  30.5920277  79.4852676  18.1316757  31.4975739  79.1754837
  17.9305725  30.0706406  78.7124481   5.4124980   8.8526306  31.7486324
   5.1740022   8.2056046  32.4124908   6.3001857   9.1219387  31.9846745
  10.5816431  34.5089188  85.2750397  11.0553312  34.7045059  86.0834961
   9.6581001  34.5431976  85.5242920  69.9661407  29.5438366  62.6299438
  70.2974701  28.7008457  62.9394875  69.2312775  29.7403221  63.2109795
  10.6582117  70.7080688  33.6853104  11.4678574  70.1993637  33.7291603
   9.9823732  70.1107101  34.0056839  14.4089203  56.8746529  36.6180305
  15.0360241  56.5736275  37.2755699  14.2370901  57.7870445  36.8509445
  43.1746368  27.3929329   0.1722825  43.4434395  28.1262226   0.7256964
  43.0712318  27.7757034  -0.6989390   9.9616661  36.3449631  59.5746689
   9.0716753  36.5415802  59.2822800  10.3361006  35.8208656  58.8666077
  58.0444336  47.5799904  62.7402916  57.7438698  46.7044563  62.9838715
  57.2902489  47.9804039  62.3077354  22.6781826  32.7305031   8.0998278
  22.2183266  33.1977654   8.7972736  23.6004639  32.9497757   8.2323103
  47.0258904  28.1825218  74.0961609  46.7100372  27.9151421  74.9592819
  47.9690704  28.0220394  74.1259766  44.2994919  47.4390755  45.7906265
  44.6901932  48.0976219  45.2162552  43.9876480  46.7571030  45.1957359
  14.2746344  57.5219421  65.9799271  14.4229851  56.5859184  65.8454514
  13.3593607  57.6570702  65.7344742  76.8197479   7.8040757  76.2915955
  76.1279907   8.4606285  76.2101135  77.3181000   8.0756264  77.0624008
  76.4376144  13.3502960  56.4466743  75.6098175  13.8025322  56.6093864
  76.5854111  13.4521723  55.5064583  55.6621552  41.6837807  61.5286713
  55.6750984  41.1784897  62.3415337  54.7368736  41.8821297  61.3846626
  41.3129883  34.9852867   3.2792017  40.9863281  34.1122398   3.4967189
  40.8676720  35.2110329   2.4625227  76.7719803  26.1047974   6.1701541
  77.4256516  25.7241058   6.7566867  76.6373978  25.4381523   5.4965801
  72.3486862   0.0134769  37.6911163  72.3541107   0.9660115  37.7853508
  73.2737656  -0.2277988  37.6437836  81.4823380  64.6123886  34.4517593
  81.4609222  64.2338181  33.5728607  81.1701431  65.5095215  34.3337975
  84.5212021   5.5567927  47.7812042  83.9579391   5.8044319  48.5144501
  84.8079071   6.3900261  47.4073715  32.4991226   3.1959043  81.1879959
  32.8427734   3.4934795  80.3456268  32.6849213   2.2570508  81.2042923
  70.7731171  24.2334881  23.5182590  71.2419586  23.5208969  23.0839386
  70.2240067  24.6123180  22.8318176  69.4065475  21.9325962  56.0627365
  69.7205582  21.3594303  56.7621002  69.4780884  22.8152256  56.4261665
  10.2786150  18.6789150   8.5825415  11.1908417  18.7828884   8.3118706
   9.8993025  18.0941029   7.9265327  30.7398167  54.9447861  49.4591789
  30.7181320  55.0957680  50.4041481  31.6716251  54.8950539  49.2458954
  61.8514595  21.8843803  16.4275188  61.9981422  21.9733467  15.4858179
  62.7253189  21.9473839  16.8130417   2.3148181  49.7579842  86.1555786
   1.9909602  50.4801064  85.6171722   2.0227005  49.9704170  87.0420151
  65.1933670  41.8363495  59.4301453  65.0707321  42.7836761  59.4914932
  64.5280609  41.4704704  60.0130119  40.9236145  28.0484276  19.7748108
  41.2970238  27.9584332  20.6515656  40.0055161  27.7983456  19.8786697
  59.5382233  34.8270264  87.6810455  59.3419075  33.9150620  87.4665298
  60.1005440  34.7755623  88.4539490  34.1959648  50.8495140   0.3892820
  33.8782463  51.6794243   0.7450045  34.9189682  51.0971069  -0.1870843
  18.9651623  54.9352570  27.9576645  18.8650188  54.0947189  28.4045429
  19.6361217  55.3959274  28.4614754  20.9006176  45.4645729  20.6412373
  21.6026325  46.0819244  20.8468723  20.5295029  45.7885857  19.8205528
  29.8207531  69.4671707  57.4002457  30.3080463  69.5190353  58.2224922
  29.5324402  70.3649597  57.2356606  78.7789993  50.2312927   2.3599331
  79.5837173  50.5843811   1.9804776  78.4007874  50.9649162   2.8446879
  27.1916485  22.9117031  64.9935074  27.7410488  22.5602036  64.2929077
  27.6698570  22.7088833  65.7975006  67.9184799  35.7048264  18.2949333
  67.6696625  36.6125069  18.1204605  68.6284103  35.5282021  17.6776524
  53.8699379  33.7003746   6.6606355  53.9607239  33.0277100   5.9857192
  53.8707314  33.2140770   7.4851031  11.2592802  71.2076645  78.0298386
  10.7951241  70.7839355  77.3078690  11.3539295  70.5207443  78.6896973
  79.5471191  45.8595200  52.6694298  80.4050293  46.2580490  52.5231705
  79.7134018  45.1569405  53.2978897  85.1031723  11.2184210  33.3483467
  86.0343399  11.1256981  33.5497704  84.8803482  10.4185944  32.8720512
   3.4926155  58.2997551  54.5011215   3.7037835  59.0839195  53.9944382
   2.6057022  58.4558525  54.8255463   4.3854690  66.4387131  53.0897675
   4.0992618  66.3408279  52.1816177   5.0176482  65.7317276  53.2191887
  14.1729937  47.5333481  53.6711693  14.7018204  46.7720528  53.9099197
  14.0484600  47.4514656  52.7256432  82.5323486   7.1869407  45.4974327
  83.1624374   6.5901246  45.0936623  83.0486069   7.9586458  45.7301979
  70.8810196  53.9028854  43.1528206  70.6717453  53.8482895  44.0852661
  70.0486908  54.1198883  42.7328529   5.9780202  32.0597725  12.7720289
   5.7184443  32.7798004  12.1972179   5.1516047  31.6611614  13.0447569
  83.6387253   2.1571286  86.2218475  83.9571533   1.7906300  87.0467758
  83.2914429   1.4042584  85.7434998  18.1662426   8.6868353  74.0119247
  17.7744026   9.0352602  73.2111206  18.1370888   9.4170094  74.6301727
  45.1404915  50.6637459  86.5506821  46.0096626  50.4690132  86.2001801
  45.0061226  50.0086403  87.2355270  75.3245392  14.5877209  67.6554871
  74.8420258  15.3608246  67.9482727  76.2414780  14.8623934  67.6583023
  40.6347542  20.5600929  84.0752563  40.6033134  21.2130966  84.7744217
  40.9147873  19.7554131  84.5114975  16.1692028  54.5700417  31.2310009
  16.0262394  54.9940033  32.0771980  16.7487068  55.1676979  30.7585411
  37.1350937  54.6279106  42.3486862  36.6306915  55.3292923  41.9365234
  37.9155464  55.0635834  42.6911964  79.4687119  68.7092361  56.9040718
  79.7423935  67.8775024  56.5173645  78.5344315  68.7700424  56.7049446
  82.5487671  40.9784889  68.5819702  81.6268768  40.7370300  68.6716309
  82.7897491  41.3266869  69.4404068  31.8430862  40.6682510  80.6195145
  31.9244843  39.7186279  80.7079773  32.7383957  40.9725914  80.4710922
  54.2140846  19.2455349  17.6171207  53.6732025  19.8993759  18.0600338
  55.0260735  19.7076511  17.4089050   8.7439175  37.3614960  81.9095535
   7.9991813  36.8285446  81.6310501   8.6142149  38.2022285  81.4707184
  31.6346455  57.8745537  78.5174789  31.4496841  57.8114243  79.4545135
  31.3450718  58.7540665  78.2749100  51.5451279  66.7218094  47.3350601
  51.8344612  67.3499298  47.9968681  51.2069626  65.9816055  47.8390083
  23.4984512  15.1753826  67.4638824  23.6548729  14.7373724  68.3004837
  23.8122311  14.5546989  66.8062134   5.9863029  37.2998962  12.7512684
   5.9594946  37.1328583  13.6933994   5.2242498  37.8546257  12.5845938
  50.5541344  20.8908482  88.8497696  50.1964989  20.5160618  88.0448685
  50.4306221  20.2069016  89.5079422  69.6237259  21.1616192  48.3969765
  70.3534698  20.7867508  47.9038467  68.9448090  20.4874096  48.3697281
  82.3284302  19.7480431  58.3060608  82.1826019  20.5739231  58.7674561
  83.1980591  19.8413048  57.9170990  55.5973053  60.0997314  47.8723640
  55.8617477  61.0129013  47.9838448  56.3479614  59.6829453  47.4492378
  72.2696991  32.0939064   7.7878923  71.8931808  32.7969933   7.2586174
  71.5637131  31.4530106   7.8719301  68.9157867   5.2219682  16.1824551
  68.9972305   6.1413040  15.9286442  68.5173798   5.2480659  17.0524120
  79.8634033  46.6809807  17.4398079  79.0963364  46.3385468  17.8986912
  80.4145889  47.0445023  18.1328297  38.4003029  17.7610226  69.8685989
  38.5519867  17.3621616  70.7254181  37.6961594  17.2397366  69.4830170
  16.6605358  48.1261406  82.7302017  16.6634598  47.6300774  83.5488281
  17.4903164  48.6032753  82.7363129  10.3795080  19.0888672  69.5679398
  10.2761755  18.1382160  69.6105728  11.2893476  19.2425499  69.8225098
  17.2631111  53.0071220  49.5500793  17.3317871  52.0992203  49.8454285
  16.3892021  53.0680466  49.1643295  13.6927748  56.5868874  11.9239664
  13.3791656  56.3338852  12.7922239  14.4061136  55.9758568  11.7395239
  84.1632462   2.4963479  42.4445763  83.7501678   3.3598008  42.4511833
  83.4310913   1.8808390  42.4082184  84.8795319   0.1809326  24.5317326
  85.6325073   0.6806038  24.2161617  85.0021286   0.1362364  25.4799957
  71.7030258  16.5698547  15.2187176  70.9057617  16.1253490  14.9305868
  71.9356995  16.1361408  16.0396843  82.6002502  44.5498314  15.8325186
  82.4506683  44.8039246  14.9218626  81.7518768  44.2235298  16.1325722
  40.9348259  53.5128021  26.3056030  41.7618179  53.0653000  26.1265526
  40.2658195  52.9368057  25.9356174  36.4103165  71.1825714  87.9334869
  35.7073822  71.8317719  87.9589996  36.0392761  70.4468231  87.4464264
  79.1139755  53.9078751  -0.0956851  79.7039108  53.4120483   0.4720914
  79.1941071  54.8123665   0.2071428   4.5615587  20.6908436  50.0820808
   4.9345570  21.0497513  49.2769165   3.8223927  21.2656841  50.2806358
  25.7557888  65.9213791  47.1220703  25.3946972  66.1741333  46.2723846
  26.1199131  65.0480499  46.9773598  72.5838547   7.3707967  37.2420845
  72.2067947   7.0713029  36.4148254  72.8338623   8.2797585  37.0761948
  67.0752716  19.6688461  46.9982491  66.7782059  20.3307648  47.6226273
  66.6723557  18.8553562  47.3017654  12.1295338  40.6386642  26.6766796
  11.7319632  39.7805519  26.5289764  12.1094913  41.0627823  25.8188019
  58.8564339  56.0939941  28.5809345  58.6044121  56.6585274  29.3117008
  59.0900917  55.2612801  28.9910831  74.1548843  44.0515213  22.8375072
  74.3814163  43.1375618  23.0095310  73.7642517  44.3594666  23.6553135
  28.7063675  15.9393587   2.4294541  28.5086231  16.8750057   2.3883018
  29.4476128  15.8248329   1.8347528  40.1844521  60.7364540  19.4725819
  40.1192245  60.6793938  18.5193138  39.2885780  60.9054565  19.7642670
  81.3011093  30.5045776  15.3800945  81.0993958  30.9553070  16.2000866
  80.5548706  29.9224567  15.2369175  68.1636124  48.7098885  56.2674828
  67.8808441  48.9904366  55.3970985  67.3494415  48.5843887  56.7549362
  78.5719223  51.7992744  69.8309250  78.4532928  52.7464066  69.9023361
  78.0734558  51.5535469  69.0515747  66.6568222  65.9029617  24.6686764
  67.2561417  66.2702408  25.3184128  66.9715118  65.0095901  24.5305576
  41.3360100  41.5338440   8.7482166  41.4667282  41.5965500   7.8020601
  40.4152145  41.2918587   8.8472719   9.1247816  20.1888885  21.5665894
   8.5152664  20.6788883  22.1185169   9.9901943  20.4097080  21.9108753
   2.6668048   2.3900473   6.6505709   2.4628112   1.5040253   6.3512664
   3.3497028   2.6936166   6.0524673  30.5721569  46.1635895  19.8562737
  31.0464077  46.8593979  20.3114319  29.8983841  45.8870354  20.4773884
  61.2485504  43.2644348  44.3029327  60.5501480  43.5655327  44.8841438
  61.3655472  42.3412895  44.5273056  69.1122131  28.3835411  30.4557476
  69.1265793  27.7563839  31.1787281  68.2603989  28.2502575  30.0399570
  47.2773781  11.8689613  79.5914001  47.5528564  11.4615631  80.4125977
  46.8640099  12.6900358  79.8582230  62.9049950  68.4175873  49.4804459
  63.6057396  68.1747818  48.8752747  62.5282478  67.5825882  49.7580528
  24.4761810   3.7079923  18.6868362  24.0814762   3.1260517  19.3362846
  24.2632465   3.3063147  17.8444920  80.0946198  60.8233948  27.1298428
  79.1801376  60.7816887  26.8501968  80.1335449  61.5846062  27.7088699
  82.4788132  28.5514641  76.5014725  81.5328827  28.6471157  76.6124039
  82.8241196  29.4368553  76.6158218  65.7168503  22.1578579  48.1311302
  66.1283340  23.0122299  48.0008812  65.1411896  22.0513210  47.3738365
  84.6316223   2.2524126  21.8088417  85.3359299   2.8057940  22.1463985
  83.9730148   2.8701231  21.4911919  42.8580132  36.3837509  18.9317722
  42.2065468  35.7063103  18.7503986  42.9548950  36.3740616  19.8840065
  85.0458908  17.2476635  17.3042145  84.6288147  16.4426308  17.6111393
  84.4142075  17.6266956  16.6930332  59.5700607  36.0917015   5.1452851
  59.8364487  36.9393654   4.7892809  58.6132698  36.1184044   5.1368999
   6.8104401  19.9305534  68.7938538   7.5808830  20.1867428  69.3008194
   7.0944920  19.1626415  68.2980118  24.7302647  60.4744225  75.2919540
  25.2945747  59.8367310  74.8547592  24.1532288  60.7976799  74.6000214
  52.7701454  29.6534424  39.8830528  51.9570694  29.2189102  39.6255302
  52.7009506  29.7474823  40.8331032  86.6232224  58.7308769  40.2375755
  87.0291672  59.5966797  40.2803459  85.6883240  58.8985634  40.3562164
  73.5276108  64.3138351  15.7388935  73.1483383  64.7946625  15.0032377
  72.7836838  64.1256561  16.3110809  42.3785858  67.1595840   9.7636127
  43.0520325  66.8976135   9.1358585  41.6339149  66.5911636   9.5671558
  11.5816364   2.8357177   4.1498904  11.0599003   2.6232941   4.9237761
  11.7375631   1.9912863   3.7269788  10.8534002  42.2651749  48.3540306
  10.8608904  41.5079041  48.9394455  10.5904589  42.9968987  48.9123039
  25.2177410  66.8728714  44.5850945  25.8158150  66.6166382  43.8830414
  25.4512997  67.7805939  44.7793236  39.5223351  65.6216812  23.8784847
  38.6955261  65.1608505  24.0208149  39.7629547  65.4089661  22.9767723
   6.4368706   9.1248159  27.4733067   7.0107713   9.4283714  28.1766720
   6.2342906   9.9145632  26.9718151  83.6716156  52.4364204  31.6072063
  83.6617508  53.3844337  31.4752731  84.5952682  52.1946907  31.5389118
  62.1615562   3.4307847   5.0913420  62.7485924   3.4856875   4.3372827
  61.6474953   4.2373657   5.0539069  84.6585846  69.6735992  85.2554398
  84.5652466  69.1556854  84.4558868  84.1626282  70.4736786  85.0818176
  52.2221680  22.3357143  35.3598404  51.6736794  23.0758591  35.6198044
  52.1128464  22.2783432  34.4106369  45.0557251  53.4136505   4.7309694
  44.3051109  53.1869278   4.1819639  45.6824074  52.7051277   4.5843444
  52.7705269  58.1746063  31.8870220  53.4588432  58.7943726  31.6454849
  52.5880318  58.3659019  32.8069839  20.7472363  27.6955738  51.6496506
  20.1592827  27.3251247  52.3079109  20.3082199  28.4950104  51.3591385
  22.6801949  27.1184578  59.6633949  23.5270386  26.9963017  60.0925407
  22.4858341  28.0487442  59.7775116  63.6962624  41.5509644  69.9815445
  62.7445488  41.6378021  70.0357208  64.0078430  42.4379616  69.8015747
  25.4950752  44.1654816  80.7797394  25.1243839  45.0162201  80.5450897
  25.4005146  44.1171799  81.7310333   7.6242170   8.6344118   3.1275125
   7.0294676   8.9123611   2.4309144   7.5677414   9.3301725   3.7824614
  56.9891701  30.6720695   6.9376545  56.3034286  30.7864723   7.5956059
  56.5425262  30.2672920   6.1940832  44.8544388  62.7302094   4.7870979
  45.0709000  62.8433533   3.8615847  45.4139633  62.0099564   5.0776196
  54.0608063  60.1316414  24.9600697  54.3858070  60.7120667  25.6483383
  54.5960197  60.3437691  24.1953583  65.2857590  17.3356781  15.9831257
  65.8345795  18.1198730  15.9915380  64.4518204  17.6229725  16.3549271
  72.3063431  33.9505348  40.1758957  72.5777969  34.5517502  40.8695030
  72.4430466  34.4419365  39.3659172  83.3889771  27.4146500  32.6556396
  83.4584732  28.3691673  32.6383362  84.2135620  27.1214619  33.0433693
  74.4465408  29.6582870  62.8210831  73.8223419  29.0675392  63.2425308
  75.3046265  29.2906303  63.0326500   4.5683246  53.7983284   2.3718765
   5.3811951  54.0832100   2.7893903   4.2598200  53.0746574   2.9171798
  74.5481186  13.3830166  65.1513290  74.8998032  13.6011763  66.0144348
  75.2992706  13.0419674  64.6658478  43.5285606  47.2295685  86.4145660
  43.6203842  47.1342621  85.4665604  42.9988251  48.0190353  86.5257263
   5.6263471  61.8064232  60.7143555   5.5431790  60.9559364  60.2830963
   6.4802990  61.7738304  61.1455574  86.2854843  12.4693298  36.9244347
  86.0603485  13.2542629  37.4238625  85.4491196  12.1570730  36.5791397
  24.8320694  60.5065727  57.4012146  24.3896770  61.0414047  56.7420654
  24.1539192  59.9118652  57.7216263  71.5740662   1.6561904  17.6724110
  71.3977356   1.0912552  16.9200897  71.0298080   1.2980422  18.3736553
  17.1578655  65.7262421  16.2767677  17.2062149  64.8077850  16.0115681
  16.2223206  65.9285736  16.2699432  18.5137539  67.5324860   8.7942438
  18.4078217  67.9841003   9.6315317  19.1559372  68.0586777   8.3178549
  63.8487206   4.5371680  53.1285934  63.2803268   4.7782240  52.3971176
  64.7340164   4.5751147  52.7666016  21.0634480  61.8849945  57.8064041
  21.8366508  62.3630905  58.1060905  20.7772312  62.3581123  57.0250778
  63.9412689  49.0474739  12.6594238  63.3343048  49.7680054  12.8287125
  64.0282745  49.0264893  11.7064171  49.3657990  48.5023003  25.1563187
  48.6744919  48.7680473  25.7627068  49.7810135  47.7514534  25.5806541
  31.3997688  59.1559296  27.6757565  32.1532593  59.6045609  27.2920685
  31.7541180  58.3287201  28.0019283  69.5365295  36.9499741   3.1772461
  70.2842560  37.4052429   2.7901309  69.3575974  36.2279930   2.5747826
  72.5001450  27.5368347  46.6972046  72.6394958  27.4383297  45.7553406
  73.0299835  28.2962799  46.9395790   4.9982004   5.1838770  84.8989639
   4.2368603   5.5878239  84.4825287   5.7500849   5.6185174  84.4964828
  36.2002106  71.1365433  36.3155518  36.9643097  71.4548416  36.7962456
  35.5924530  70.8473740  36.9961700  82.6907120  45.9388733  48.6507072
  82.4538574  46.3139572  47.8025093  83.6464539  45.9857864  48.6748581
  76.1450119  51.2920990  48.3103447  76.1545258  50.4576187  48.7791557
  76.8557281  51.7969780  48.7055740  11.4078588  68.4760666  19.6372070
  12.0452013  68.6956787  20.3167610  11.8776569  68.6138611  18.8146896
  62.7769661  56.1459389  13.0027218  62.7609787  56.9232483  12.4443598
  63.3044128  55.5123978  12.5162477  77.2469635  45.9566727  40.8801041
  76.8381882  45.1841736  40.4897499  76.8607025  46.0163155  41.7538757
   5.7123141  64.5376968  67.7709503   5.4915957  63.8868790  67.1046524
   6.3177423  65.1347122  67.3313370  86.4683228  67.3800583   9.1739025
  85.8152847  67.4513321   8.4777031  86.8945999  68.2369232   9.1910782
  63.8974037  46.2258377  43.8179245  63.4540138  45.6924171  43.1582985
  63.6324692  45.8421173  44.6538696  72.7429581   6.6527452  48.8712540
  73.1224365   7.1089935  49.6222992  72.3839798   7.3507290  48.3233643
  56.3168297  41.7033730   1.6676635  55.8053131  41.6351700   2.4738476
  56.1411133  42.5878448   1.3466229  23.6839581  35.4993706   9.7839899
  24.1471939  36.3278503   9.9075270  24.1491718  34.8788681  10.3450470
   8.8982840  56.2427254   8.0304489   8.4936924  56.8052711   7.3700848
   8.1821518  55.6924706   8.3476372  85.9502335  63.6816826  66.7291794
  85.2651825  63.9850388  67.3249283  85.8075943  62.7376251  66.6610489
  59.3045349  24.3621807  11.7378292  58.6529961  25.0629482  11.7634315
  58.9694862  23.7473583  11.0851679  53.4019089  28.1508503  27.3284454
  52.6338997  27.7842121  27.7665844  54.1461258  27.8108635  27.8252163
  54.7570953  66.2066498  31.8542995  55.3611336  65.5284500  32.1566391
  54.2898941  66.4804459  32.6435966  21.8645077  55.8978271  60.2495117
  21.4198112  55.9332962  59.4026260  22.5289249  55.2170906  60.1428337
  17.9097404  15.0475845  72.3637009  17.5798435  14.9201975  73.2531815
  17.8297710  15.9891586  72.2111435  84.9996338  27.7033043  66.8134537
  84.3858795  28.4139156  66.6275253  85.0227356  27.6506290  67.7689285
  29.2066498  33.2584343  21.4455338  29.1858406  32.7998161  22.2854538
  29.4683285  32.5889053  20.8134823  57.9278717  25.6050224  17.3322067
  57.2256699  25.0683308  16.9646397  58.4229736  25.0035191  17.8883533
   2.2109847  65.4661407   4.8645473   3.1471188  65.5547562   5.0435219
   2.1517615  64.7268982   4.2593660  16.9113312  13.8336439  57.1206169
  15.9719210  13.9509497  56.9792595  17.3217049  14.4967794  56.5655708
  28.3073864  36.8062325  11.4328976  29.1889801  36.5807571  11.1359367
  27.7888088  36.0199509  11.2624083  18.6134224  50.4651184  50.7129021
  19.3522072  50.2346344  51.2762032  18.8069248  50.0391541  49.8778343
  84.2788925  36.6207848   2.1598601  84.7692490  36.7656479   1.3506649
  84.9456482  36.6175575   2.8466389  33.5702171   8.8936043  12.7423134
  33.1767731   9.1204462  11.8997116  33.8960953   9.7253542  13.0861549
  57.7839279  32.0333023  34.1798286  57.2397346  32.7439003  34.5191460
  57.4595757  31.2500458  34.6242828  28.3669987  12.0662642  79.0182724
  29.0962315  12.3710012  78.4782867  27.5871239  12.2559433  78.4966888
  38.8606453  56.2520027  53.3834610  38.8028908  56.9347839  54.0518227
  37.9581909  56.1274490  53.0897026  64.2826996  42.5805664  64.9087296
  64.0679703  42.1909409  65.7562714  63.5499802  42.3397141  64.3418655
  69.7137527  27.8659897  52.5383186  69.6561127  27.0753727  53.0748215
  70.2048187  27.5940399  51.7629929  13.2341013   9.5450888  58.9712753
  12.8045216   8.6955690  59.0713196  14.1399050   9.3883390  59.2380714
  64.8360443  64.5829086  86.2439117  64.3265762  63.9608154  85.7246170
  65.7466354  64.3243561  86.1017761  66.3871384  38.9162178  61.1444435
  67.1105728  38.3687248  61.4496078  66.7104492  39.8126068  61.2349167
  40.1979027  34.1364441   7.4150419  40.5658150  34.6116600   8.1600542
  39.4815331  34.6915627   7.1069946  25.1795502  16.3052998  78.1652069
  24.6632843  15.5399799  78.4181595  25.5083981  16.0942211  77.2913971
   9.0467434  47.3232651  23.1506634   9.0033407  48.2738762  23.0472889
   8.8261042  46.9779472  22.2856159  37.2576904  34.9795876  16.8644810
  37.8287201  35.6043625  16.4174747  37.5687294  34.1216660  16.5755939
   5.6099315   0.7385259  37.7792511   6.1956010   1.3119398  37.2848625
   6.1951528   0.1308359  38.2314224  70.9893036  20.6884155   2.2862301
  71.8886871  20.9845695   2.4263384  70.4598160  21.2584763   2.8438253
  68.2561035  60.9696693  40.1597519  68.9080811  60.8483925  40.8500061
  68.5940094  60.4651527  39.4198074  14.5078611  48.5508041  76.3056259
  14.8653479  48.3171921  77.1622849  14.0705795  49.3900642  76.4493484
  46.9930573   5.3168402  27.5894604  46.2297516   5.0023217  28.0738964
  46.6364098   5.6323895  26.7591228  11.9497633   5.8214731  33.5404549
  12.3497419   4.9546447  33.6101532  11.3831692   5.8863258  34.3092194
  74.6332245   2.9892962  12.4456291  75.4720688   2.9323306  12.9031553
  73.9897156   3.1245286  13.1412134  60.0678482  46.1026917  18.9549370
  59.5066185  45.7709732  19.6558037  59.9708557  45.4645386  18.2481213
  52.7478142  32.3619843  39.2802887  52.1125336  32.1464767  38.5974998
  52.6855965  31.6373997  39.9026527  27.1606789  67.2422256  37.9580994
  26.9577332  68.0514526  37.4888535  26.3364010  66.9953690  38.3774529
  39.6043777  69.2028503  32.4039764  38.9584198  69.3906784  33.0849228
  39.6493073  70.0077515  31.8878937  40.2344818  69.2485580  24.3547974
  40.6202507  68.5399094  24.8698082  39.4733810  68.8506165  23.9321861
  69.9952850  65.8370209  80.4186401  69.2918549  66.4860077  80.4338226
  69.6782455  65.1539459  79.8277740  12.9783983  41.0333176   3.9739997
  12.5028677  41.0124626   4.8044615  13.1514711  40.1133957   3.7739389
  62.0193024  63.6356735  17.5884285  62.6725235  63.3571205  18.2302570
  61.1801529  63.5146027  18.0327282  19.2378178  35.3392906  70.9124146
  18.4571342  35.8259163  71.1769257  19.3188496  34.6435547  71.5648117
  58.7585106  68.8663330  58.3196602  58.7809601  68.1885910  58.9952354
  59.6792488  69.0400848  58.1240158  54.5966949  67.0246811  17.1436691
  54.6438866  66.1008759  17.3898220  54.2463760  67.4617767  17.9198513
  40.0442390  44.5760918  34.8106499  40.0173874  44.9698868  33.9386215
  39.3285751  44.9979820  35.2861137  62.1016846  27.5679512  50.7097778
  61.8985405  27.7603416  51.6251755  63.0301743  27.7827129  50.6202431
  31.4998665  58.2574615  68.8343353  31.1645241  59.1444931  68.9645386
  31.7946854  57.9830017  69.7026596  12.7884274  43.8676796  67.6663513
  12.2900734  43.3057289  68.2597198  12.4141979  43.6952515  66.8023758
  55.0340347   7.8626194   6.6567106  55.6413193   8.5705757   6.8717294
  54.9916496   7.8655748   5.7004538  44.2494431  44.1434669  39.1708641
  43.8169556  44.9759712  38.9807930  44.4124680  44.1680450  40.1137581
  70.7069931  45.8820152  51.3075371  69.9844437  45.8425903  50.6809578
  71.3237686  45.2158737  51.0041008  55.0578766  59.7094154  80.6949539
  54.9957275  59.5504532  81.6368179  54.5946922  60.5362282  80.5605240
  30.1166496  49.2657890  38.8201790  30.9562416  49.6434746  38.5581322
  30.2629032  48.3200302  38.8005486  74.4820251  69.4074326  10.1569958
  74.6692123  69.2372284   9.2338362  73.6702957  68.9301224  10.3287468
  75.5191116  20.0542469  37.1241417  75.3286514  19.7422123  38.0087814
  76.4669571  20.1875134  37.1160545   1.9764581  45.9552078  85.5750427
   1.3279651  46.3676491  86.1456375   2.3557041  45.2570686  86.1089020
   0.6742699  19.1448822  50.8311386   0.9296795  19.2634277  49.9162941
   1.4612129  18.8054638  51.2574577  74.0433807  20.1206951  78.8708420
  73.7392044  20.9608479  79.2141418  74.3718948  19.6530037  79.6386795
  44.9710960  24.3128815  43.5096283  44.2736168  24.7931709  43.0634460
  44.5725441  23.4748688  43.7444077   2.9312658  35.6840668  15.5827532
   3.1433926  35.2047691  14.7818117   2.8000190  35.0026207  16.2420235
  29.7704868  23.3252144  87.6039886  29.3554878  22.4626999  87.5952835
  29.5959244  23.6837864  86.7338181   3.3523073  18.8118324  61.7992630
   4.0426998  18.3000660  61.3777351   3.1325374  19.4897156  61.1601944
   2.6452556  54.9754677  11.4006748   2.2002151  54.7957001  10.5725117
   3.5307097  55.2344475  11.1454620  63.7290192  55.7163773   7.8280530
  63.5547371  54.9029846   7.3545003  62.9197426  56.2205925   7.7439556
  56.2071381  47.2972832  45.1483459  55.8081131  47.1435204  44.2919769
  57.0633049  47.6761208  44.9491043  75.7117844  65.0594635  50.1946220
  76.2351837  65.7806854  50.5440750  76.1120911  64.2722321  50.5637436
  81.2914886  69.2321243  60.5963974  82.2124405  69.4743576  60.4994621
  81.2484665  68.7881622  61.4433174  43.5029488  27.4654140  73.8726807
  44.3338661  27.7564793  73.4970627  43.0282898  27.0814190  73.1354752
  48.6654205  65.5700531  77.7697601  48.5659370  65.9637375  78.6365662
  49.5244179  65.8666763  77.4691391  14.5354986  18.9698677  61.4914589
  14.3230867  18.6907291  62.3820724  13.8820333  19.6390362  61.2879219
  36.7604027   9.8758726   6.8053145  36.4612617   9.1097574   7.2950220
  37.7099876   9.8812885   6.9256930  56.2680016   1.4817898  52.0562439
  57.0681114   1.1336809  52.4497871  55.8198013   0.7126021  51.7045364
  75.5393600  64.3108826  45.0234146  74.8315125  64.1101379  45.6356964
  76.3084717  63.8807068  45.3970947  23.4697304  37.5565834  83.5661163
  23.5759430  37.4943199  82.6168671  23.4126911  36.6476822  83.8608704
  54.1592140  11.3659706   7.3568521  54.7494011  10.8687687   6.7905493
  54.5820885  12.2192736   7.4532156  69.0647812  27.7921848  38.4179955
  68.6251526  26.9746132  38.1844635  69.6215591  27.5608521  39.1614456
   8.1962814  36.7973442  49.0604134   7.6190958  36.4821167  48.3649139
   8.5573616  36.0015793  49.4510651   1.7202162  44.7311096  47.2654457
   2.2527766  44.0219727  46.9052544   2.2468987  45.5187988  47.1298790
   0.4071175   2.4271190  86.0899811  -0.0270302   2.1510160  86.8971481
   1.3315953   2.4985282  86.3276215  11.3730612  56.0177727  20.9729939
  11.8951321  55.2219810  20.8710785  11.3867950  56.4257545  20.1072025
  62.9277191  44.2911949  18.8935986  62.9959602  45.0986710  18.3841305
  63.6852150  44.3122292  19.4783993  33.2186584  25.7007942   8.4500990
  32.6114388  26.1165676   9.0621862  33.5259209  26.4167614   7.8940296
  80.5773773  61.8515015  40.7361641  79.9691010  61.1164589  40.6590729
  81.2377090  61.5514412  41.3607979  68.9889221  40.6999397  36.1441345
  68.9660645  39.8285408  36.5395660  69.6666641  40.6397324  35.4708748
  62.8002129  36.5061417   1.0896453  63.5655060  36.4004745   0.5244954
  62.2218475  35.7829437   0.8473429  27.5522404  40.5774345  71.3411179
  27.3895359  39.6362305  71.2787094  26.8795662  40.9740067  70.7875214
  72.2722168  51.4882889  45.7867661  72.2268753  50.9236908  46.5583916
  71.7492981  52.2553101  46.0201569  68.0121002  24.1618271  24.6708241
  67.3550720  24.6877041  24.2147503  68.8445587  24.4264965  24.2794342
  22.8688889  43.1250839  86.7919540  22.5652809  43.9162979  86.3469391
  22.8204422  43.3405800  87.7233276  67.5530472  67.6022263  29.9932709
  68.0246201  67.7320862  30.8160629  66.8880157  68.2906570  29.9871407
  44.4514313  27.0364609   4.5832887  44.3138924  26.9603748   5.5274949
  43.6639862  27.4750576   4.2611208  57.2615242  46.0919456   6.9404969
  57.7631607  46.6299057   7.5530281  57.8965378  45.8347778   6.2720256
  79.1283112  36.5605011  63.9374428  79.1003113  37.5045128  63.7816124
  78.7946701  36.4548149  64.8283691  72.9041672  24.4334393  15.7138081
  73.4725266  23.6721611  15.5969429  73.2775421  25.1015835  15.1389933
  31.5426598  49.9069519  30.3443642  31.4480400  49.3421211  29.5773926
  30.6876259  49.8735580  30.7733555  11.8681889  52.1985512  86.7861633
  11.4539156  51.3556671  86.6013412  12.4186058  52.3676796  86.0215225
  66.3497086  37.9295616  79.0499039  66.4919510  37.7514381  78.1202393
  65.4026871  37.8530998  79.1662598  12.6685734  50.9401588  20.8919716
  12.4908371  50.9129715  21.8321323  13.4969082  50.4711914  20.7911549
  43.6679573  22.6015358  79.7359924  44.4236946  22.6622734  79.1516953
  43.1630135  21.8617573  79.3983612  62.1688881  48.0511856  78.1469955
  62.0855713  47.1084747  78.0035019  62.0311546  48.4381523  77.2824020
  66.7613220  69.6721878  17.7916470  67.6664200  69.5033646  18.0534172
  66.6500244  70.6156082  17.9091187  64.4731522  22.2387123  37.3340569
  64.3418045  23.1809807  37.2286568  63.7368736  21.9532871  37.8750381
  15.6005220  56.6827507  19.4796448  14.7117281  57.0308838  19.4083710
  15.8349876  56.8109856  20.3987827  47.1346893  70.2447281  27.1868000
  46.6394272  70.4173431  26.3860817  46.7976418  69.4056168  27.5006962
  46.1434174  33.1397476  76.5562057  46.3873978  33.1135826  77.4814224
  45.2841454  33.5614052  76.5469284  26.0691910  36.3325043  82.0851822
  25.8158360  37.2237549  81.8449478  25.6444263  35.7780876  81.4306335
  14.8920717  52.3846054  51.5974998  15.6170549  51.7792435  51.7529640
  14.2339172  51.8584785  51.1433449  84.8551712  58.6959190  55.5366974
  83.8990479  58.7402687  55.5466003  85.0895691  58.7861443  54.6130371
  49.3416214  36.6282883  19.4865017  50.2313499  36.9466171  19.3339176
  49.1607132  36.0562325  18.7406750  22.9998875   6.1546540  23.4142475
  22.5948429   5.9871073  22.5633068  23.9022846   5.8516374  23.3137932
  70.6882858  33.0713692  44.4791374  69.8245468  33.3764801  44.2014885
  70.5067215  32.3213463  45.0454712  11.2248106  67.4196320  60.9001541
  11.3046865  67.9603653  60.1143646  12.0291147  66.9009323  60.9167328
  42.8826714  44.2504845  33.1718063  42.2427483  44.8667870  32.8155708
  43.3269768  44.7399673  33.8640709  58.2694817  36.2997513  61.0792160
  58.0712814  36.4184914  62.0081139  58.9414062  36.9552612  60.8919830
  79.6703644  19.3744049   6.7004862  79.8405914  19.5297585   7.6295290
  79.7512283  18.4262066   6.5974574  26.5086250  12.0520277  86.2079849
  26.0249233  11.2590456  86.4391632  25.9585857  12.4866390  85.5562210
  44.4777107  52.3802223  28.2366238  43.8921738  52.3022881  27.4834251
  45.3297920  52.5939560  27.8564835   8.0766239  20.0284767  81.7364197
   8.8287497  20.3382225  82.2409973   7.7984972  19.2307110  82.1863632
  35.9701233  49.5621223  34.6737671  35.8226967  50.3769989  35.1538467
  36.2847252  49.8437843  33.8147430   3.5304956  50.1035156  37.4574966
   3.3577213  49.4302101  38.1155548   3.9131455  49.6262665  36.7212639
  61.8237801  27.8895187  18.7560501  61.0341377  27.6852913  18.2550621
  61.5276337  27.9260387  19.6655540  11.0335226  11.5143528  23.4117241
  10.6734600  11.3050613  24.2735729  11.9262133  11.1696863  23.4349613
  76.6730270  55.6971054  48.0789642  76.7588196  54.9732933  47.4585114
  77.1228943  56.4290047  47.6568527  81.7947159  65.0277481   6.1466880
  81.9433823  64.7034073   7.0349092  81.6430740  64.2390289   5.6259551
  56.7952232  14.8087311  56.2384300  57.6599884  14.7857342  56.6481628
  56.5080338  15.7166071  56.3359795  57.4361076  63.7836494  63.9936638
  58.1348381  63.9637413  64.6226120  57.6100998  64.3796921  63.2651825
  72.0239563  66.6028824  44.5431976  72.1550598  67.0402069  43.7018929
  71.7534485  65.7143707  44.3116837  51.2033691  36.6313591  25.6023178
  50.8905525  35.7736168  25.8898182  50.4237061  37.1865578  25.6129799
  40.0152626  50.1095505  61.3286705  39.7790718  49.2156868  61.0807724
  39.4572563  50.6645699  60.7838669  80.3919449  45.6610909  56.3593521
  80.9116821  46.4400520  56.1610527  80.5222778  45.5184746  57.2968559
  22.7181091  67.6090851  22.1651306  23.1764488  66.7724762  22.0861492
  23.2347507  68.2161865  21.6352787  79.7481308  26.3875217  61.8862267
  79.5142212  27.2547340  62.2170830  80.2076797  25.9693184  62.6143417
  32.1963730  71.0812607  74.9567719  31.6055279  71.8328400  74.9091721
  32.0680122  70.6227188  74.1264114  78.5230942  57.9290352   5.9484591
  79.3433075  57.9302597   5.4550200  78.7302170  57.4590454   6.7561979
  60.1691513  65.4419556  48.0095520  60.3416862  66.1320419  47.3690529
  59.2695999  65.6003418  48.2958298  74.8731842  60.2676659  12.7209749
  74.4629288  59.5048981  13.1285410  74.3430557  60.4372597  11.9422379
  56.7958069  31.8860168  38.0411339  56.1381874  31.4149761  37.5293846
  57.5162582  31.2630806  38.1366997  52.0931435  64.3093262  48.8352776
  51.3717537  64.4385376  49.4510155  52.8821983  64.3804321  49.3724670
  75.2694092  37.3885612  66.5146484  75.5241852  36.5837555  66.9658813
  74.7615662  37.0897255  65.7603149  65.2265930  66.4763794  63.6907768
  65.9622574  65.9541245  64.0105972  64.5402069  65.8353195  63.5059738
  24.3919220  40.6665840  53.3871613  24.0421677  40.3795204  54.2306633
  25.0554943  41.3186302  53.6124191  60.9474869  55.6486244  63.7272720
  60.9057999  54.7160072  63.5157967  60.9935608  56.0852585  62.8767090
  67.1774292  69.3728104  42.5697975  68.0986557  69.4660721  42.3271408
  67.1425781  69.6448975  43.4868507  67.5985565  48.8008499  69.2692490
  68.2871933  49.0222588  68.6423569  66.7951508  48.7910881  68.7489777
  33.0754356  12.3248186  78.7349854  32.2853928  12.0232534  78.2865143
  33.7672577  12.2500820  78.0776978  65.2219086  38.7722321  64.3490143
  64.9986649  39.3614464  63.6284485  66.1715393  38.8523788  64.4385071
  71.1951599   4.8082709  80.8698196  71.8857193   4.8631411  80.2092514
  70.9982071   5.7195401  81.0866776  51.8296967  39.5331802  64.0111160
  51.7870789  38.7211304  64.5160828  52.4609566  40.0760460  64.4833908
   3.1513152   6.3727074  43.8376541   3.4940956   7.2526302  43.9940796
   2.4914653   6.4906845  43.1543427  84.8491364   4.4389014   3.1803472
  85.3455658   3.6260910   3.2759006  84.4660034   4.5885687   4.0446625
  64.2508087  13.8566027  38.4941826  63.4713211  13.8757105  37.9389648
  64.8156204  13.1970415  38.0914421  34.1898270   1.2858138  36.2524300
  33.5067253   0.9707370  36.8443146  34.8439713   0.5870215  36.2480621
  52.3218613  59.1975136  34.5154190  51.4021225  59.4341316  34.6350861
  52.6364174  59.0046043  35.3986359   1.7653201  52.2059784  31.4070969
   2.0123727  51.2836037  31.4735851   2.2026689  52.5144691  30.6135044
  45.6457520  53.9916115  80.4801865  45.4435081  54.8367310  80.8815613
  46.3195343  53.6132851  81.0450821  65.4473877  35.7548332  55.7308044
  65.6059036  36.5968666  56.1575203  65.4571915  35.9550400  54.7948265
  21.6087132   4.4073486  54.2785721  21.2778130   4.7622976  55.1036491
  21.9658527   3.5506330  54.5125008  67.2895889  30.3875713  31.8980885
  67.8453445  29.6084690  31.8789864  66.5450058  30.1643982  31.3394947
  58.8203354  45.8527756  78.4842529  58.9609261  46.6167259  79.0435791
  58.5641670  45.1567688  79.0893860  62.4172211  67.8743286  44.0720596
  62.5331497  68.7976151  43.8477173  63.2745743  67.4796448  43.9126854
  56.0309258  55.6139488  71.5428009  56.9210510  55.8362045  71.2698364
  56.1046982  55.4392548  72.4810257  10.7109299   3.9924183  73.7225037
   9.9541569   4.3384762  73.2494583  10.8134203   3.1004486  73.3906631
   5.2978849  62.1914749  55.3127708   5.4197617  62.5082397  54.4177628
   6.1036696  61.7137604  55.5095787  73.9125366  36.0364456  64.4950256
  73.6978989  35.2067642  64.0686569  73.0648956  36.4553146  64.6443405
  53.6641045  62.3218613  37.7657814  52.9520683  62.9415207  37.6068649
  54.2854195  62.4837570  37.0558548  73.5608368   8.2437010  76.0597305
  73.8733978   8.8336220  75.3737793  73.2691193   8.8256416  76.7614975
   1.6599536   6.5763946  41.5696869   0.9475890   5.9823861  41.3332062
   1.4714569   7.3808188  41.0863609  70.6282883  30.2156277  48.5711365
  70.4990082  29.4460583  49.1254654  70.1036072  30.9004154  48.9858742
  66.4563293  10.7928562  62.4806976  66.9513474  10.9570360  61.6780548
  66.7532120  11.4705153  63.0880432  74.0873795  56.6244164  48.7308769
  73.6318665  55.8436775  49.0458107  74.9598236  56.3122292  48.4908562
  26.3948975  48.4061928  88.8182678  26.4296646  49.3557854  88.9335938
  27.2000389  48.1925545  88.3467407  34.2881279  39.6529274  61.0070457
  33.8176231  40.3975677  61.3817024  33.5992279  39.0462379  60.7357903
  45.2544975   2.9308693  75.9994736  44.8511238   3.0508137  76.8592072
  46.1935654   3.0226429  76.1606064  86.6661987  30.1472416  11.7794323
  87.1144104  29.4036083  12.1823492  85.8943329  30.2874718  12.3278856
  74.3669052  51.2021255  87.0676651  75.0245056  50.9795723  87.7266541
  73.8136368  51.8572044  87.4931030  65.3030701  60.2912369  21.6306190
  65.4440384  59.8446159  22.4654160  64.7651443  59.6843452  21.1221390
  67.9614944  29.0386429  57.7565498  68.2086639  28.4371948  58.4589767
  67.7548676  29.8586597  58.2050056  68.8496017  59.6839943   2.6411600
  69.7410202  60.0143623   2.5295191  68.8899460  59.1490631   3.4339116
  85.3744507  49.8886566  27.2973633  85.2289047  50.5617256  27.9622154
  85.2862625  49.0613823  27.7707233  28.9565887  14.0267296  77.2434235
  28.0112476  13.8784189  77.2672119  29.0682201  14.9152365  77.5815430
  16.1612129  60.6978455  45.1423569  16.2569008  59.7479897  45.0727310
  16.1751118  61.0070076  44.2365646  76.4111557  43.0285873  42.8638420
  76.0153351  42.2998390  42.3858414  76.2241516  43.7977562  42.3256569
  26.3747082  17.6444759  84.8798981  25.4529438  17.8684330  85.0080566
  26.5176525  16.8855209  85.4453888  77.9141312  55.6243629  22.7960892
  77.5973511  54.8301125  22.3659191  78.7957153  55.7512932  22.4454746
  56.7081566  21.5885506  56.4239006  57.0552559  22.4353294  56.1433334
  55.7635498  21.7275429  56.4919243  21.3526096  19.6473656  76.6592941
  20.6444302  19.7248459  76.0199890  21.9594040  19.0180283  76.2694626
  21.3650646   4.6018114  33.1879997  20.9787216   5.3476763  32.7290268
  22.0302734   4.9891181  33.7569656  83.6323318  45.3968315  28.4952698
  83.8413544  45.2514992  27.5725441  84.2199097  46.1024132  28.7657032
   8.0424700  43.8325806  80.0827866   8.9922657  43.7371826  80.1536255
   7.8522258  44.6641426  80.5170059  64.6923523  43.5436020  51.0893745
  63.8528938  43.1599159  51.3430099  65.1745911  42.8207092  50.6879959
  85.6881561  20.9005108  86.4222031  85.1182709  20.2165794  86.0704956
  86.5233536  20.4596291  86.5780869   3.0201485   1.5642048  76.1523209
   3.8820779   1.4199561  75.7618027   3.2059362   1.9657075  77.0011444
   2.2895539  29.4218712  30.6486092   1.5693984  29.5087891  31.2731514
   2.7311442  28.6117592  30.9034634  51.0372887  70.8142242  65.1029282
  51.5569611  70.6328201  65.8860397  51.6152725  71.3377914  64.5479050
  14.5268669  67.3044281   3.0578542  15.1448135  67.9495392   3.4016731
  13.6849108  67.7597122   3.0500560  31.6456413  28.2798271   9.8030415
  31.3473949  27.4512787  10.1782570  32.5920830  28.1728134   9.7080164
  31.4641590   7.9530129  63.4634705  32.3014107   7.5319386  63.2686958
  31.6969833   8.7151442  63.9937325  83.2399216  13.4736891  12.6782370
  82.8724289  12.8493423  12.0526428  82.8720093  14.3181782  12.4180307
  21.2073994   2.3088679  36.9925537  21.7517014   1.6177357  37.3697853
  21.7063274   3.1127515  37.1377220  81.1921387  10.8019028  74.1953735
  80.6251068  10.1080494  73.8588028  80.6912918  11.6065550  74.0614929
  15.3735790  44.9974861  60.6464539  15.3200340  45.3407555  61.5383797
  15.6764736  45.7389030  60.1222534  76.5899200  20.3363400  82.0771866
  76.0644989  19.8160000  81.4693832  75.9500122  20.7312927  82.6694336
  11.8507605  50.6274452  56.6474953  12.2596083  50.2455940  55.8707924
  11.0869017  50.0746574  56.8123474  76.0205307  31.0093975  68.7656174
  76.1941299  30.3551159  68.0888519  76.3763733  31.8232327  68.4088593
  85.5332108  43.3576965  38.3912926  85.2098999  42.4692802  38.5410309
  85.3962860  43.8062210  39.2257462  47.0398941  18.3619080  20.9284859
  47.5590820  18.6787529  20.1893730  47.5362511  17.6172466  21.2681084
  38.4643326  39.1166496  19.9269543  37.6832466  39.3874664  20.4094429
  38.5275230  38.1743660  20.0829792  27.9770832  55.3593597  64.5761642
  28.7750950  55.8266640  64.8232117  28.0832634  55.1814919  63.6416435
  42.2368202  64.1857986   9.4564543  41.3621750  64.5388870   9.2935085
  42.6734009  64.2252731   8.6055317  54.4769211  32.5667229  55.3538742
  54.1883698  32.4929008  54.4441910  55.3843689  32.8653336  55.2938232
  72.1983261  48.8574600  70.7915421  72.4814072  49.4843712  71.4571838
  71.5489655  48.3127251  71.2363205  34.3680305  54.8727684  87.2193604
  34.1462555  53.9792061  87.4812698  35.2928391  54.9667320  87.4476776
  58.4529839  15.2451696  27.8880844  57.6938553  14.8396368  28.3070049
  59.2046623  14.7719688  28.2448654  41.4387474  47.9138908  18.5444336
  41.0794411  48.7618523  18.8053818  42.1950760  47.7876854  19.1173840
  81.7388535   1.4276316  39.5670242  81.0685806   2.0785823  39.3591080
  81.9667816   1.0401984  38.7219353  38.4650459  51.8748741  84.2282028
  38.2490921  52.7218513  83.8380432  39.2905350  51.6237640  83.8137817
  25.0830517  60.6079140  82.8384018  25.0397873  60.7921410  81.9000931
  24.1828003  60.7154160  83.1453552   3.7094710  35.0332298  73.7575607
   3.8142948  34.1351967  74.0718460   4.5538034  35.2483902  73.3612823
  67.3017960  17.9083691  73.0621338  67.9268646  18.5208359  72.6743088
  66.7768250  17.6016731  72.3228302  54.9772377  31.2477951  71.9721680
  55.2876091  30.7049007  71.2474823  55.7467651  31.3669758  72.5288162
  72.8038712  17.0336189  17.9004612  71.9596939  17.3323631  18.2386169
  73.4482117  17.5861397  18.3429222  21.6089573  65.7917480  12.7822342
  21.3472118  64.8723068  12.8306665  20.8003197  66.2795258  12.9384785
  11.7877140  38.5368729  12.2697153  11.8251276  39.4443512  12.5719004
  12.4989967  38.0991745  12.7374020  12.0770950  21.3999329   8.3527012
  12.3547773  20.4876175   8.2702131  11.4594536  21.5283279   7.6327953
   6.2808952  14.2150679  32.4921303   6.0604539  13.4609127  33.0388374
   5.5083261  14.3464375  31.9424858  57.2678261  60.8081017  60.2896538
  56.8428040  60.0509682  59.8867455  58.0340691  60.4445915  60.7334595
  45.5951347  54.4838753  77.1738129  45.0226669  53.8993111  77.6705933
  46.3286705  54.6587372  77.7633667  51.9461632  25.9288387  60.5048866
  52.4808350  26.0301056  61.2923546  52.4161949  25.2828026  59.9776878
  49.5193100  30.2597885  60.9431915  49.8791351  31.0261879  61.3897209
  49.6703606  30.4312954  60.0136757  53.1734848  49.8163643   8.7316551
  54.0732613  49.5670586   8.9425611  52.6367569  49.1218338   9.1134729
  33.9848976  51.5815277  16.4601746  34.6233025  52.2927971  16.4076328
  33.1560364  52.0177269  16.6575298  26.4870205  36.3397903  84.7059097
  26.1004982  36.4262276  83.8344955  26.0915928  37.0476685  85.2146072
  79.8659134  63.0649223  59.0178261  80.2685547  63.8761139  58.7078629
  79.1144867  63.3532562  59.5359497  84.9664307  67.1958923  18.5050259
  85.2074661  67.6946487  17.7244034  85.4911575  66.3971939  18.4504318
   8.2205210  32.7822380  71.5837631   8.0638285  33.4135361  72.2860031
   7.4538274  32.2094307  71.6011658  27.3068066  45.6879349  75.8771133
  27.5091896  45.1612968  75.1038589  28.1084309  46.1829147  76.0462952
  10.4554071  15.9907551  29.8655300  10.7189989  16.8548298  30.1819534
   9.7503223  15.7244425  30.4555855  86.5267715   7.0746908  54.9788475
  86.5773926   7.7332821  55.6716156  86.5615997   6.2373800  55.4413719
  28.4356194  24.0890770  72.7732086  28.6603050  25.0085583  72.9156876
  27.5086670  24.1031780  72.5349045  56.3180466  59.7383957  73.0544739
  55.4804344  59.8953629  72.6185837  56.0959435  59.1978836  73.8125916
  16.5598431  11.0837259  69.9351578  15.8521833  11.3933849  69.3698578
  17.1518784  11.8321819  70.0095749   8.6736794  63.5492325  38.5226860
   9.3765039  63.1300278  39.0192108   8.4270554  64.3083878  39.0509834
  11.3395205  46.0857353  59.1514511  11.8236027  45.3992043  59.6103325
  11.9886684  46.4949608  58.5792885  18.6275959  59.7457199  73.7586212
  19.3886127  60.0652390  74.2433853  18.4685669  60.4157066  73.0937424
  38.7442474  65.7559738  42.5468407  39.2555351  66.4600449  42.1479759
  38.2411003  65.3850555  41.8219299  40.3416557  41.6094894  -0.1509896
  39.9663773  40.8210793  -0.5431724  40.4136353  41.4025154   0.7807898
  72.8679504  17.8728905  21.7790489  73.2690659  18.3055363  22.5328102
  73.4156570  18.1283894  21.0367775  72.6294708  13.7898712  81.1244202
  73.2260361  13.3675756  81.7424927  72.6801300  13.2499208  80.3356781
  49.5818901  14.0065145  22.3075924  48.8775749  13.5698595  22.7866573
  50.3076744  14.0443058  22.9305229  16.4355488  57.7285881  60.4638824
  15.6110735  58.1324844  60.7346916  16.7112427  57.2147751  61.2229767
  59.7117767  19.1659508  82.3727264  59.2695427  19.3954449  83.1900330
  60.6440392  19.1998825  82.5871201  80.1878357  70.9605103  72.5826340
  80.2453613  70.0059891  72.5400925  80.1472549  71.1565323  73.5186691
  17.2711811  12.9538345  30.6979542  17.9273300  13.1103430  30.0188351
  17.0830421  12.0172291  30.6379166  37.4058876  64.2560349  24.2560463
  36.5680466  64.3242722  23.7982273  37.1737289  64.2747726  25.1844769
  66.4622040   3.4131744  14.0300398  66.1650848   3.0893710  13.1796846
  66.8941727   4.2441540  13.8322859  59.3455544  42.6883774   3.1642659
  59.2571907  41.7360573   3.1254747  60.1104736  42.8802414   2.6217549
  78.1858978  52.5513306  79.6595535  77.7336121  51.8062744  79.2638779
  77.9139633  52.5367928  80.5771942  65.8905182  53.9671249  76.2782593
  65.2640839  53.6858978  76.9451294  65.3640900  54.0773621  75.4864502
   3.4527552  60.5872917  38.2046356   3.3069372  59.6574402  38.0304413
   3.7700076  60.9398537  37.3732033  59.0376816   3.9553630  67.3061752
  59.2331619   3.0186071  67.2836609  58.6946411   4.1073537  68.1867752
  28.0673008  58.2681503  80.7476501  28.7424545  57.6903572  81.1033936
  27.7149563  57.7907600  79.9965286   2.1792748  25.3048668  12.3385324
   2.3761890  24.6263905  12.9843855   1.4502437  24.9481430  11.8310928
  38.7693520  67.9756622  29.8295422  39.2939529  68.6902237  30.1906929
  38.3607635  67.5686646  30.5935097   6.4478498  19.5116749  10.0827503
   7.3273911  19.8824539  10.1545897   6.5828061  18.6493607   9.6897717
  74.1324997  53.1552582  48.4629860  75.0433044  52.9408569  48.2612305
  73.6702499  52.3193817  48.4008141  39.1235313  49.1706619  42.1160965
  38.7695580  49.4324722  42.9660339  40.0272942  49.4858665  42.1256561
  50.4896011  42.9118118  43.4758720  51.2516975  43.3961220  43.7934914
  50.0625687  43.5115662  42.8641777  76.4580002  32.7539253  72.3044205
  76.0478210  32.9949417  73.1350174  77.0720749  32.0564919  72.5340271
   8.1988144  29.3483028  81.2843704   8.4008322  30.2076530  80.9143143
   9.0534639  28.9679337  81.4871597  25.7733612  63.5139351  12.1584530
  26.3506241  62.7598419  12.0386820  24.9314919  63.1336708  12.4092226
  11.7955542  25.3161430  77.0151138  11.4935846  25.0493813  77.8833771
  12.0596066  26.2297840  77.1236038  40.9354973  69.3001938  70.4623795
  40.1869965  69.5739594  70.9925003  41.3819962  70.1167755  70.2386398
  76.1547623   3.9751170  31.7980671  76.1219406   4.0180392  30.8423939
  76.7243271   3.2288389  31.9848804  43.7095032  20.5524578  86.9513855
  44.1004219  19.7460518  87.2877197  42.8016586  20.5225964  87.2533112
  76.6777802  68.6707687   2.2927845  76.0479431  68.1256943   1.8211554
  77.2128372  68.0476990   2.7844427  21.1113644   1.0005543  71.5853577
  21.4861069   1.7033466  72.1162872  21.0919971   1.3559414  70.6967850
  39.4017372  -0.0346911  48.7635307  38.5973969  -0.1880552  49.2592583
  39.4825974   0.9183921  48.7271118  52.8059769  12.8206797  70.3843536
  51.9290047  12.4373913  70.3688889  52.8133926  13.3702297  71.1680450
   3.8496552   0.4225506  81.2097244   4.1699576   1.3240402  81.1788330
   4.1163855   0.0447461  80.3716583  37.5452194  19.0832748  78.8716888
  37.6317940  18.9167042  77.9330826  37.1542549  19.9553547  78.9251251
  33.5015488  63.9643402  57.8972588  34.4293060  64.1342316  58.0604706
  33.0443764  64.6657562  58.3611946  48.0131302  62.6601639  47.0300484
  47.5793953  62.8113327  47.8698425  47.9462509  61.7152481  46.8926010
  27.3166199  61.0489960  50.4170303  27.2166748  61.6832390  49.7071152
  28.2618256  60.9154167  50.4875603  83.0883560  68.2578964  71.3683319
  83.3700485  69.0853500  71.7584534  83.8187485  67.6590042  71.5235291
  32.2344666  59.0631752  12.6509609  31.6111794  58.9356804  13.3661470
  32.9104424  58.4024506  12.8017302  39.8099785   3.3041809  41.4284210
  39.8094292   3.3482199  42.3846092  39.1433601   3.9361238  41.1591682
  48.7440147  62.4556236  33.8329277  49.6728592  62.6841164  33.7972412
  48.4280472  62.5973206  32.9405632  18.6767349  51.1777000  46.0227585
  18.9879150  51.1846466  46.9279366  18.2095013  50.3467522  45.9364815
  17.6115074  32.5561867  60.4113350  17.1583328  32.0043259  61.0487633
  16.9353161  33.1498566  60.0849152  65.7615433  49.1255112  52.9726257
  65.2131500  49.7346077  52.4781647  66.4572372  49.6720886  53.3380051
  14.8283949  68.7191010  69.1386337  14.9254322  69.5161285  68.6175156
  13.9144592  68.7286530  69.4229965  79.7172241  14.6118736  31.5831566
  79.4877243  15.3600674  31.0320053  80.4916306  14.8992825  32.0668221
  26.5510559  44.5506172  69.9652405  27.1349678  43.8364868  69.7097092
  26.8114357  44.7639198  70.8613129  20.4685268  51.3171349  79.9510040
  20.1430435  51.4436874  79.0597763  20.1150665  50.4682198  80.2167892
  66.2078705  64.5236435  82.3070831  66.2594299  65.2333679  82.9472961
  65.3400269  64.6178970  81.9143982  71.9182281  30.0389156  53.5892220
  71.5224991  30.6324577  52.9509964  71.2054596  29.8246288  54.1911087
  67.2124481  28.3649616   9.1768866  67.1950455  27.4270115   8.9866753
  66.3083572  28.5795708   9.4066572   0.8124177  40.8986816  62.9789047
   0.9810663  41.7868729  62.6644135   1.2753130  40.8487968  63.8152466
  57.0887909  46.4994164   3.3497579  57.5655479  46.1110535   4.0833163
  57.5846100  46.2348404   2.5749068  75.5304565  14.9301662  10.6266060
  76.4640808  15.1321316  10.5650597  75.4262543  14.1231174  10.1225758
  34.9825897  65.1432419  17.2113190  35.7036247  65.1640015  16.5821056
  35.3527985  64.7200241  17.9859543  59.4749374  50.1501160  74.4942703
  58.8937683  49.5101585  74.0832672  59.8823471  50.6098442  73.7601700
  18.8637333  14.4884310   6.4656906  19.2999477  15.2523670   6.8429856
  18.2891331  14.8497562   5.7907758  11.4308805  39.7230225  59.7777901
  10.6171064  39.4579201  59.3491592  12.0861883  39.1075249  59.4492073
  13.8797779  71.0026932  29.8244057  13.0661631  71.3844528  30.1538372
  13.5964365  70.2685318  29.2794666  42.3291779   1.3270493  50.4886665
  41.4939232   1.6851293  50.7892685  42.8494263   2.0959797  50.2556038
  10.5116205   0.1835835  26.9702396   9.9399414   0.8751159  26.6367779
  10.0958567  -0.6296926  26.6839638  11.4205484   6.2997227  66.0598526
  11.5453482   7.0435014  65.4704056  12.0743036   5.6593609  65.7791901
  28.8924026  28.2282505  65.2211227  29.6213036  28.0020294  65.7988358
  28.3506622  27.4394188  65.1988983  59.7760124  53.2320328  33.4107857
  59.4414978  52.8628006  34.2280998  60.7182465  53.3190193  33.5552216
  46.4182587  65.6534348  67.1128540  47.0603752  65.2479630  66.5301743
  46.7434769  65.4679337  67.9937973  76.1509628  26.3250084  17.5853558
  76.1774979  26.2920952  18.5416222  76.0952606  25.4082966  17.3156033
  48.8140106  28.3732204  54.5920372  48.6186638  28.3491478  53.6552925
  48.8448486  29.3056011  54.8063889  36.3217583  60.5239677  49.7237206
  36.9424934  60.9429855  50.3198242  36.1225052  59.6839333  50.1370926
  49.4194298  48.8442192  54.2045135  50.2907600  48.6229248  54.5332184
  48.8466301  48.7565193  54.9663811  78.3890381  50.0407295  58.4336853
  79.0033340  50.3488274  59.0999832  77.5387650  50.3753777  58.7187729
  56.4407730  46.9264259  20.4666958  56.5823631  46.3245125  19.7360229
  57.0911942  47.6167679  20.3378086  60.5467720  28.3290882  10.6550245
  60.4149017  29.2715359  10.7581367  60.3283348  28.1554394   9.7394028
  48.6740913   6.0258403  13.8744955  49.5856705   5.7456603  13.9566765
  48.6612358   6.9098716  14.2413120  31.0621948  42.2921181   4.3370109
  30.9198608  43.1239052   3.8852341  30.5305977  41.6616173   3.8511083
  51.2465019  13.9775734  62.3891792  50.6520271  13.5584497  61.7669563
  51.6489296  14.6903858  61.8930092  27.8756161  55.4983368  48.9384689
  28.0595989  56.2346992  49.5216980  28.7320805  55.1044273  48.7725334
  66.0542297  66.7920074  83.9765396  65.5741425  66.9314728  84.7928085
  65.4690628  67.1226730  83.2950134  14.7195272   3.7249777  46.0447693
  14.6681976   4.0940771  45.1630898  15.4565773   3.1154363  46.0067139
  17.2692490  56.8383408  67.4694901  16.3143101  56.8090858  67.5283661
  17.5147209  57.6290398  67.9498825  63.5625229  61.1949120  80.2677765
  62.6804085  60.8519745  80.4109497  63.9015999  61.3586617  81.1477966
  28.3914585  18.1689224  87.6254120  28.4126549  17.5530739  86.8929443
  27.6249580  17.9077625  88.1358109   4.9683714   6.8938789  48.6023979
   5.6168771   6.3006606  48.9815598   5.1301236   7.7329063  49.0337906
  59.3003311  26.5966549  23.4698601  59.0845718  26.3355274  24.3651218
  58.8235664  27.4161129  23.3378925  25.5743217  51.6155510  50.4349060
  25.4728870  50.7324753  50.7900391  26.2222328  52.0299187  51.0047684
  51.1576614  34.9338379  58.9559555  50.3728867  35.2056274  58.4800415
  50.8458061  34.7362747  59.8390999  59.0789871  16.8976536   7.7002530
  59.4939690  17.2623577   8.4819260  58.6878738  17.6534176   7.2619796
  25.1609402  50.7872772  68.2256851  25.5644493  51.2822495  67.5126495
  24.6752625  50.0885658  67.7873306   8.2023973   2.5798399  22.7606945
   8.9296989   2.6827877  22.1469631   8.3145094   1.6995190  23.1194401
  49.7290497  25.1309738   6.8052139  49.2423248  25.0606918   7.6264262
  49.8870468  24.2243118   6.5420909  84.8095093  19.5836353  81.9327621
  85.0811234  19.5308533  81.0164261  85.6160049  19.7764187  82.4109039
  16.2326031  14.1696959  21.0273705  16.1857567  13.2868547  21.3942890
  16.3845558  14.7358236  21.7841015  43.6223717  20.7652168  82.5123749
  42.8847427  21.3723164  82.5721207  43.2976494  20.0464153  81.9700546
   2.4223697   0.5716273  49.3030663   2.5894246   1.4523003  48.9673004
   2.4985380   0.6591092  50.2532120  73.3884888  66.0774231   9.2256718
  73.3839035  65.1989975   9.6059065  73.3230743  65.9303207   8.2821064
  36.4981232  47.3259087  11.4596720  36.1426392  47.2965927  10.5714121
  36.6527824  48.2559166  11.6251841   4.3339729  51.4706192   3.6812429
   3.5670431  51.1233673   4.1367283   5.0353308  50.8528481   3.8878570
   0.6658252  50.3155632  66.3938751   1.4425222  49.9714813  65.9527588
   0.4665865  51.1281853  65.9289169  41.2934265  62.9150505  60.2249451
  40.9849091  63.8130798  60.3457451  40.9407959  62.4375992  60.9758949
  75.1840897  38.0684128  16.3578644  74.4541473  37.7190514  16.8690929
  75.4917068  38.8210564  16.8629761  63.1152344   7.2763462  25.8270893
  63.7550316   6.9833307  26.4759598  63.5749435   7.2092576  24.9901905
  22.7444801  38.1182671   4.3200541  22.3045006  37.2785988   4.4527450
  23.3802319  37.9483299   3.6249468  11.7148724  49.3273621  29.0892830
  11.9909420  50.1247978  28.6374931  11.7624655  49.5501175  30.0189857
  64.8375244  57.1150208  53.2574425  63.9927711  56.9920082  53.6904373
  65.0089951  56.2785416  52.8248520   1.1489415  68.0522156  18.7400093
   1.0390325  67.1021194  18.7783165   1.6388247  68.2042694  17.9318466
  71.2952423  21.2750950  11.7037144  71.3718719  21.4859238  10.7731705
  72.1653214  21.4513378  12.0616674  34.9018288  64.5673294  23.2490730
  34.8801727  65.2817383  23.8857727  34.2908707  64.8385162  22.5639305
  43.6165276   0.8461555  64.5116425  43.1983109   1.0977786  65.3350601
  42.9685593   0.2952631  64.0724564   9.6972523  56.3324890  12.4093361
   9.8875237  57.2673988  12.3320646   9.7052393  56.0111237  11.5077314
   4.5403042  40.1345673  51.1703339   5.0546355  40.8790092  51.4825821
   3.8262227  40.0547028  51.8027420  44.8137932  30.5782967  27.4240818
  45.5130348  30.7023716  28.0658779  44.5664787  31.4658794  27.1647263
  38.2026367  68.4644699  55.2402039  37.7243042  67.6390762  55.1617012
  37.5208969  69.1362915  55.2508965  82.1711273   8.5431309  33.7394600
  82.8543396   8.7917385  33.1168480  81.4793777   9.1914377  33.6074753
  79.0640335  69.4468384  75.5846786  79.1603851  68.7101212  74.9811859
  78.1921463  69.3338928  75.9632263  56.7243233   0.3709334   0.4159213
  56.6840744   0.6869273  -0.4867191  55.9239502  -0.1424319   0.5258821
  36.2998276  46.1712570  20.3126869  35.9092674  46.7732811  20.9461384
  35.7201195  46.2145195  19.5522251  48.4719696  66.5705185  21.6328945
  49.0487747  65.8170624  21.7587032  48.2155838  66.8264618  22.5188923
  49.5638657  35.5028725  11.7524872  49.6565132  36.3967209  12.0821571
  48.6231270  35.3957481  11.6118908  46.4776268  68.0211182  31.2561626
  46.8468246  68.8937149  31.1201534  45.5468102  68.1770935  31.4158001
   4.5450969  27.5254555   7.0802426   3.6160872  27.3524971   7.2327490
   4.7666931  28.2137508   7.7074394  50.2034264  38.2137299  22.0672455
  50.8409729  37.5085258  21.9556446  49.5110359  38.0124969  21.4376984
  83.9551239  51.4020348  79.0025864  84.1013870  50.6273155  79.5453949
  84.1178055  51.1020775  78.1082764  85.9475632  70.6923294   6.7627954
  85.5211334  70.0994034   6.1440639  85.6941452  71.5674820   6.4693332
  46.1252747  45.2303581  24.3751736  45.7085800  44.7160301  23.6837502
  46.7878571  45.7504768  23.9205379  55.8862686   5.7210565  14.9151678
  56.5805626   5.1877995  15.3022404  56.3501701   6.4159002  14.4480305
  40.9319000  58.0703812  86.2178116  41.2972679  57.1858139  86.2011948
  41.5465202  58.5931015  85.7027969  67.0316925  32.3237114  76.6983490
  66.1202927  32.5247040  76.4857941  67.5133209  33.1161880  76.4611816
  61.0018692   4.5484757  16.4137917  60.2607918   4.5915456  15.8094902
  61.6173668   3.9464803  15.9954634  73.1847229   5.0639114  78.9581299
  72.6495590   4.9589181  78.1714935  73.8780289   4.4105248  78.8651123
  26.0205345   0.7487168  88.3290787  26.3515129   0.6375601  89.2203293
  26.8037624   0.7331339  87.7790375  46.9286957  28.7736702  70.8473892
  47.0678558  28.8956776  71.7865295  47.8105087  28.7480145  70.4759445
  20.2949009  48.1041794  76.8477402  19.6878433  48.3346672  76.1444702
  20.9668407  48.7851944  76.8169098  78.9953613  52.3606186  23.3389568
  78.2902069  52.7924194  22.8567429  79.1778793  52.9473534  24.0728912
  73.6493301  25.3682652   8.5354328  74.4800415  24.9251766   8.7081223
  73.7289810  25.6842384   7.6354060  33.3380508   2.8958340  39.0342979
  33.0169830   3.5398474  39.6654816  32.6925240   2.9105673  38.3276787
  69.1884384  26.9056149  74.6540680  69.3118591  27.1626720  75.5678101
  70.0430756  26.5714588  74.3817291  54.6486130  39.3507195   0.3097247
  55.1316757  40.0715179   0.7138672  53.7339478  39.5184021   0.5366638
  47.1029167  42.0560570  86.5190353  48.0101204  41.9224281  86.7935410
  46.6170349  42.1550179  87.3377914  43.8994217   4.3436980  50.5760880
  44.7176285   4.4563041  50.0922585  43.7999725   5.1569471  51.0710297
  65.9625702  60.6743431  35.1617203  66.8864441  60.8660736  35.3227310
  65.7230377  60.0543556  35.8505402  69.2869797  25.0963097  50.4885941
  69.9871597  24.6600399  50.0031624  68.7094269  24.3854465  50.7666931
  65.6050186  58.5452156  23.9849072  66.5321579  58.7778435  24.0352192
  65.2379532  58.8425827  24.8174133  59.3445053   5.3488770  55.0645752
  58.4982376   5.7780199  55.1906662  59.1289787   4.5083833  54.6604080
  74.2183304  70.9632797  32.7554169  74.8779297  70.2971725  32.5618668
  73.7546921  70.6256790  33.5217705  66.0841980  31.0511436  68.6230545
  66.3647614  30.2173557  69.0003052  66.8999710  31.5023861  68.4059677
  22.6105118   2.5681250  51.1552849  22.9254704   3.4717832  51.1344528
  23.2041378   2.0940952  50.5729294  19.8219433   1.5761912  23.4070835
  19.3267193   0.7760666  23.2316246  19.8418789   1.6410075  24.3618793
  53.0110245  46.4890976  63.9223366  52.7399292  47.1189156  64.5902176
  53.6052895  46.9814148  63.3560295  50.0867729   4.9960442  37.1077156
  50.6870956   5.0978689  36.3691521  49.4255371   4.3783712  36.7955017
  56.2941818  60.6899834  50.7834625  55.4209900  61.0462952  50.9472046
  56.1633224  60.0454865  50.0879555  58.7969627  56.0197601  12.4394560
  59.2010193  55.1584740  12.3338356  57.8678322  55.8334885  12.5745554
  65.9154358  42.4593430  75.7226639  65.6167908  42.4516029  74.8132706
  66.5847473  43.1431236  75.7491455   2.9776061  17.3619099  82.5138092
   2.9805226  18.1561317  83.0480728   3.8928776  17.2394009  82.2618103
  83.7992935  64.7142792  68.7810898  84.2033920  64.8948441  69.6298141
  83.4651337  65.5625687  68.4895935  80.9902649  12.7640419  84.8001633
  80.4109726  13.1864958  84.1659851  81.8607407  13.1040478  84.5930328
  31.3809452  70.5950012  50.9226418  32.0736198  70.3634033  51.5413437
  31.7232590  70.3289337  50.0692558  37.7647552  41.5898552  35.9099045
  37.5159531  42.4582748  36.2264061  38.7175903  41.6289291  35.8273659
  86.2020035  45.0518150  18.6317348  86.7628860  45.8128052  18.4816132
  85.3534851  45.3041039  18.2675915  55.0786972  64.4069977  47.0576096
  55.7948723  63.9216537  47.4671974  54.6221123  64.8228149  47.7889481
  81.3290787  18.1862698  86.6851501  80.5671463  18.6485920  87.0343704
  82.0796967  18.6249561  87.0856018  74.0531387   3.7462885  35.6846504
  73.3259277   3.8967786  35.0807076  74.8277969   4.0385733  35.2043266
   4.2583303  46.9008636  40.9601021   5.0028467  46.9565315  40.3610802
   3.9948561  45.9811363  40.9298859  33.2700462  59.8999977  16.7024765
  33.8718796  60.3843727  16.1373100  32.6433792  60.5575523  17.0043640
  66.6715240  27.0939922  16.2221394  66.1860962  26.9278698  17.0302200
  66.1597214  27.7638206  15.7686834   0.9472241  19.9000359   4.1421905
   1.2887113  19.0453701   3.8792019   1.7265635  20.4425068   4.2629700
  13.3979330  11.3926115  29.7825909  13.1012363  10.6486292  29.2584782
  14.2039356  11.0864468  30.1983471  52.7425308  32.9446526  33.9528770
  53.1904373  32.4647560  33.2562332  51.9811287  33.3348427  33.5236359
  64.9384384  48.2919579  45.3835945  64.6850204  47.6187134  44.7521324
  64.5892792  49.1054344  45.0194817  42.0880966  49.8581963   0.8100792
  41.5719681  49.8209496   0.0048114  42.5308914  49.0105209   0.8501838
  33.3578148   2.9683361  17.2970810  33.1091805   3.6992526  17.8629189
  32.6028290   2.8428977  16.7221966  40.5096550  43.0165024  85.6306229
  39.5864601  42.8882408  85.4127045  40.7052994  42.3237877  86.2615738
  78.8035736  42.5522919  61.1130829  78.1829224  42.3116913  61.8009338
  78.4887772  43.3970032  60.7912102  74.6343994  20.7633877  28.2237244
  73.8796539  20.5903301  28.7864323  74.7015228  21.7179337  28.1998978
  46.4892693  52.0661850  56.5569496  45.5668488  52.3218231  56.5523376
  46.9106407  52.6789436  55.9542847  28.7903557  53.6863899  81.6628494
  29.1767101  53.1457672  82.3518295  28.1187706  54.2009964  82.1104965
  12.0670586   8.6220293  62.0593109  11.9456453   7.8784885  61.4688568
  11.3717613   9.2345362  61.8192520  62.3848763  44.3525581  11.6008015
  62.5932770  45.0900345  11.0272770  61.6517410  44.6623878  12.1325426
  67.1872559  21.2387276  82.4146881  67.4000473  20.5133953  83.0019150
  67.9026947  21.8629494  82.5360413   8.6427584  67.2192917  25.0104771
   8.6184063  66.3390198  25.3856487   8.7593441  67.0762100  24.0712414
  58.6525841  39.9420891  15.8754225  57.8446312  39.5547791  15.5386267
  58.3687553  40.7431908  16.3157711  25.8142643  48.9656029   7.9816399
  25.0255165  48.4587517   8.1745529  25.8059864  49.6752701   8.6239281
  70.9920197  32.3924561  62.9660873  70.9575348  33.1807594  62.4242249
  71.3998337  31.7333603  62.4043770  50.9154930  63.7906532  75.3741302
  51.0796738  63.7243118  76.3148041  51.7617874  64.0356674  74.9999771
  69.4629288  30.2939339  74.8221359  69.2111816  29.3943291  74.6134033
  68.8262787  30.8352451  74.3553467  35.7628746   0.8373069  28.2568378
  35.2538109   0.0375706  28.3891678  36.4686127   0.7813452  28.9010677
  26.7238960  14.2839251   3.2632027  27.2199059  13.4677439   3.3268766
  27.3250294  14.8971500   2.8403249  23.8261986  61.5077972  60.4535255
  24.4273453  60.7667618  60.3779030  23.9455452  61.9970627  59.6395187
  76.8127747   4.3527741   8.2159615  76.3654938   4.3509388   7.3696947
  76.9785233   3.4284258   8.4012709   3.0084386  40.3566399  40.2261848
   3.2361784  39.9559288  39.3872566   2.4596570  41.1053886  39.9928513
  15.6767778   0.6361565  48.1389885  15.8569174  -0.3035333  48.1113434
  14.9599981   0.7242391  48.7672424  61.2536736  70.3968048  39.6252861
  62.0916786  70.0183563  39.3592911  60.8879700  69.7607346  40.2400322
  79.6142654  42.3785706  29.7808590  78.9813919  41.8048401  30.2127647
  80.4663391  42.0711098  30.0901623  14.9402924  61.2099800  35.9323463
  14.1845598  61.3202019  35.3553276  14.6374693  60.6067429  36.6110497
  73.3432922  51.2541885   6.0811372  72.6328049  50.9118347   5.5387068
  73.7272263  50.4787064   6.4903474  76.2053375  47.4745331   6.7168689
  75.3231354  47.7019920   7.0104933  76.0665665  46.9104004   5.9561276
  51.6827087  55.8122940  77.0771866  52.1834984  55.1633034  76.5829620
  52.2306442  56.0099373  77.8367462  78.0960312  23.8425198  82.8234558
  78.3792343  23.5703659  83.6963577  78.9069214  23.9131908  82.3197708
  53.5224533  52.2381935  38.6110802  54.4343338  52.4816780  38.7705383
  53.0348282  52.6591988  39.3190384  81.4243927  63.3475838  73.6258163
  82.1657333  63.0377312  73.1055832  80.6526489  63.0614738  73.1371613
   5.5103445  59.1609077  59.6513824   4.7279253  58.6097107  59.6360130
   5.9108105  59.0323563  58.7915382  65.3465271  64.0588455  67.0822983
  65.3489761  64.9686737  66.7849045  64.7719269  64.0586472  67.8478470
  76.2589951  43.8409920  78.0231934  76.6158829  44.1484833  78.8564453
  75.3677979  44.1895981  78.0011215  79.4929352  57.2322350   3.0721068
  79.5734329  58.1848679   3.1194847  79.9500885  56.9930420   2.2658627
  60.8066025  24.7677364  83.0557480  61.7136574  24.4828529  83.1667633
  60.3750496  24.5166893  83.8724289  73.4225006  24.0594540  84.3833160
  74.0846176  24.4238873  83.7959213  73.3338699  24.7116241  85.0783310
  74.6758728  70.3457413  63.8033981  75.1527252  71.1724854  63.8764992
  74.8844910  69.8766708  64.6112823  53.1176186  55.6723938  48.1814499
  53.7919960  56.2966042  48.4494209  52.6668167  56.1037712  47.4555550
  17.4090023   3.1593766  48.0990372  16.6798344   2.6645703  48.4728165
  17.0826435   4.0571108  48.0374298  74.5200806  56.6501579  58.3574600
  74.6080170  57.3173981  57.6768036  74.4371719  55.8267746  57.8764191
  16.1996384  36.8058662   5.9494081  15.5596991  37.5104218   5.8478513
  17.0261211  37.1887436   5.6551924  71.3634949  48.4275093  35.9591751
  71.5543900  48.6133499  35.0397987  71.3445816  49.2877655  36.3785019
  46.5436172  28.8739147  84.8656235  46.2579842  27.9630394  84.7952576
  45.9243126  29.2725754  85.4769897  25.8664093  28.1380634   7.9722004
  26.5437241  27.5125389   7.7149172  26.0300922  28.9066238   7.4256163
  69.3987961  45.6065674  65.4186172  69.7374802  45.7792778  66.2970810
  68.6457214  46.1911964  65.3330383  48.3180962  63.5193520  39.4776001
  47.6894684  63.5326271  40.1993256  47.8638649  63.9548073  38.7562943
  67.2635803  36.8656807  22.2747650  67.1380768  37.6882553  21.8016319
  67.2880096  37.1211128  23.1969299  17.7200832   4.1957941  65.6816330
  17.3099689   3.9456899  66.5095749  17.0820885   4.7739186  65.2633438
  42.9743423  26.0651894  42.3078728  43.0141754  25.7937813  41.3908234
  43.3530731  26.9442520  42.3141556   6.3729062   9.4626122  11.0234756
   6.8186541  10.3096714  11.0177689   6.5171890   9.1219797  11.9063025
  84.7960358  18.1296368  88.7688065  84.2552948  17.4056683  89.0845566
  85.6420898  17.7280636  88.5709152   9.2020788  31.3094807   4.9988966
   9.0699673  31.6839809   5.8698316   8.3444023  30.9612122   4.7553153
  51.5750656  58.3180046  73.9159622  50.8756905  57.7640915  74.2627869
  51.7922173  58.9090919  74.6368637  58.7969093   6.6719041  88.1051178
  58.0134239   7.2160883  88.1841507  59.0821037   6.5301285  89.0077820
  72.1002808  49.5583839  65.3263245  72.3147659  49.0228996  66.0901871
  71.5626144  50.2691956  65.6754608  74.3835373  33.7607841  19.4888592
  73.8198471  33.8935051  18.7267113  74.8012466  32.9137115  19.3332214
  27.7906818  63.3904152  49.3669128  28.5866547  63.1707344  49.8510590
  27.5923576  64.2898407  49.6275482  60.0373421  36.0597191  21.5186806
  60.6876793  35.3921127  21.3005123  60.3981514  36.8712654  21.1616840
  63.0327530  27.7414455  67.3576736  63.9595757  27.5038643  67.3295822
  63.0197372  28.6074581  67.7652130  82.6080551  56.5727882  24.1993389
  83.3724365  57.1327820  24.0638657  82.8519669  56.0078239  24.9325199
  59.5134315  34.6431427  14.4112425  58.5907021  34.3911476  14.4473209
  59.8384399  34.4898682  15.2984343  58.6625900  40.0155830   1.3033779
  58.2726440  39.1888084   1.5873175  57.9289894  40.6298943   1.2772206
  74.8484650  54.2844582  56.9426384  74.9077606  53.6092262  56.2667809
  75.2369003  55.0611267  56.5399780   1.2731715  60.1819496  80.0024490
   1.3757160  60.2493477  79.0531540   0.3263029  60.1917038  80.1423645
  13.1945953  34.0600471  64.1474686  13.9013777  34.7039604  64.1020279
  12.5896940  34.4139748  64.7994385  32.9978294   3.3125408  64.6001968
  32.2229538   2.8190184  64.3314209  33.7293053   2.8533456  64.1875076
  13.6124439  61.6682434  17.2900620  13.3621273  62.5734901  17.1053905
  12.7873898  61.1832581  17.2724972  58.9999237  50.2089157  55.8011284
  58.9793510  51.1608086  55.7026176  59.7548752  49.9307213  55.2825813
  20.4597130  69.8988647  53.3780251  20.9134502  69.7893143  52.5423470
  21.0530071  69.5165634  54.0246162  15.0610218  39.3894882  10.2664995
  14.1723862  39.2887535   9.9253082  15.0906878  38.8142662  11.0310059
  77.0317383  29.3698215  70.8213959  76.6074066  30.0526237  70.3018265
  77.9659805  29.4800892  70.6445618  13.3169222  38.2865143  74.0833282
  14.1632566  38.6705093  73.8542023  13.3813362  38.1072197  75.0213699
  50.4015198  36.2370186  30.2897148  49.8087463  35.7662468  30.8755684
  49.8235435  36.6695824  29.6611748  50.5942345  45.5542068  66.1922607
  51.4286346  45.7954407  66.5945206  50.2588310  44.8464165  66.7425079
  24.0903320  46.7727127  50.4319344  24.4931641  47.5098839  49.9730873
  23.5389442  47.1791687  51.1005096  39.5296173  15.3249245  10.6402998
  39.9100189  14.4794178  10.8782997  40.1799316  15.9681015  10.9225168
  56.1149063  26.2256966  22.9440422  56.4808998  25.6506252  22.2720509
  55.5746880  26.8486347  22.4578915   6.2352262  48.4363022  47.2454376
   5.3496528  48.6518784  47.5378761   6.3210130  47.4978104  47.4130898
  41.3092117  71.7623138  18.1346912  40.3814545  71.9408646  18.2883701
  41.3737526  70.8073196  18.1420898  23.7860985   1.8329818  20.4315701
  24.4275379   1.4685580  21.0414734  23.2227669   2.3824983  20.9764748
  76.4190750   3.7279420  37.4898987  77.0944061   4.3648901  37.7232628
  76.1638794   3.9652131  36.5983772   4.6362181   1.9796104  72.1898193
   3.9888840   1.2820983  72.0865326   4.8928242   2.2026429  71.2950363
  41.3359528  44.6817131   3.1312513  41.2756195  45.5432320   3.5440185
  41.9626350  44.8013725   2.4176807  38.7012329  29.3735962  69.2005997
  39.1408272  28.5943794  69.5409088  38.7572479  30.0105152  69.9129410
  81.5757294  14.8434620  63.1919746  80.9213028  14.5057650  62.5804939
  81.9239883  14.0639114  63.6246986  73.1678696  52.9612236  65.3167953
  74.0323715  53.3236237  65.1230469  72.8618851  52.6111984  64.4800873
  60.5767593  58.9316750  45.2308235  61.4087868  58.4702873  45.3360863
  60.7509460  59.5889854  44.5571480  70.8451462  68.5902863  54.3180428
  70.8533936  68.9778214  53.4428406  71.3336029  69.2105484  54.8592529
  35.9256592  11.9724655   4.5839796  35.7774849  11.6143713   5.4592195
  36.5017433  12.7234373   4.7268200  79.5792465   7.2704577  12.3402643
  79.0405655   6.5449743  12.6560612  79.1594162   7.5430450  11.5243759
  60.0117416  69.8021469  55.0339012  60.4629898  70.6037979  54.7694092
  60.3958626  69.5797424  55.8819695  86.7231598   2.4615552  28.5167503
  87.0612793   2.7666605  27.6748390  85.9212646   2.9669273  28.6501541
  28.5086174   7.9170132  75.0056610  28.6998100   8.5138950  75.7291260
  29.2931004   7.3738484  74.9295807   6.2532215   4.0598049  73.5837631
   5.5824943   3.3940668  73.4316177   5.8097658   4.7329979  74.0998917
  81.1687088  22.3811264  80.7231750  81.3798218  21.6475868  81.3007431
  81.1444626  23.1427746  81.3024292  75.5471039  33.9126091  33.2884941
  76.1663208  33.9379387  34.0179863  74.7866821  33.4464378  33.6358757
  14.7516012  38.7407494  18.1414032  13.9515247  38.4751053  17.6880360
  15.3310738  39.0481949  17.4443245  48.2042542   7.7888241  47.0970879
  47.5461349   7.5446086  46.4463425  48.6473427   8.5472326  46.7166634
  69.3732681   8.3551588  57.7471390  68.9853287   7.4827042  57.8146439
  69.5081635   8.4853277  56.8084717  47.6832123  57.7341614  36.9359550
  46.7390594  57.8711929  36.8583031  48.0714951  58.5282059  36.5685806
  38.6776428  48.7768326  25.3851109  39.3759651  48.1487312  25.5696850
  38.0767822  48.6913147  26.1253014  43.6673889  61.2232513  55.9697304
  42.8463554  60.7890015  55.7383003  44.3096008  60.5146980  56.0115242
  71.2739639   9.2983303  63.4749870  71.1955414   8.8578367  64.3211823
  71.5951233  10.1741056  63.6897125  31.7884483  57.9809761  42.9996262
  32.0887871  57.3034821  42.3937950  31.9582748  57.6175117  43.8686981
  50.3739281  12.5592537  74.9996185  50.0694160  13.4412756  74.7862167
  49.8202629  11.9811802  74.4747238  41.3291168  13.5629778  18.5314178
  41.9195061  13.0609636  19.0932522  41.9103622  14.0435295  17.9419632
  55.8838387  50.4190292  57.1319199  56.3962746  51.0781364  56.6637115
  56.2419052  49.5822639  56.8355331  40.3371010  64.0027237  75.8587189
  40.1215324  64.7196579  75.2622528  40.6879845  64.4358444  76.6368713
  20.7446938  55.5352936  86.2337036  19.8770065  55.7440567  86.5797806
  20.5726910  55.1353951  85.3812256  27.1792259  35.9729156  88.1548157
  27.5323677  36.0724411  89.0389099  27.8176327  35.4214172  87.7025757
  17.3696308  47.6723557  33.9596329  17.0123920  47.3193283  33.1447792
  16.6684608  48.2214279  34.3105087  37.9820061  25.8197803   1.3810190
  37.6303368  26.1200657   2.2191064  38.9135361  26.0363636   1.4207419
  62.5139847  14.1159706  45.9756355  62.5279121  14.4534092  45.0799942
  62.5649490  14.8970003  46.5266609  49.5254898  46.6115913  80.0761871
  49.6044083  47.5231895  79.7951431  49.5438995  46.6532745  81.0323029
  75.0413971  64.8872833  73.5520096  74.1280594  64.6875992  73.3466568
  75.5430756  64.4450073  72.8672104  48.4662437   5.4883943   6.2360110
  47.6729317   5.3084846   6.7405152  49.0634308   5.8932886   6.8650236
  84.4408798  18.1500282  10.1706495  85.0102005  17.5841351  10.6920633
  84.7596512  19.0357494  10.3441782  70.2559891  24.8437061  26.3363838
  70.7080460  25.6740532  26.4860477  70.8371658  24.3564625  25.7523804
  49.9950066   6.7194076  67.7249908  50.6482391   7.3336682  68.0599518
  49.9439087   6.9111509  66.7885818  39.6637535  54.2799911  51.2914009
  39.0735474  54.7889557  51.8471375  39.2220154  53.4380493  51.1808128
  44.0724182  49.0225220  57.1007614  43.2049217  48.7009125  57.3462219
  44.0074997  49.1933746  56.1611748  46.4354897   7.9026599  51.3492966
  46.9783325   7.5714655  52.0647430  47.0618324   8.2518091  50.7152443
  56.0879211   3.1112566  79.0807495  56.9330711   2.7396116  79.3333893
  55.4433060   2.5799017  79.5480499  33.6809731   8.8323660  86.7726212
  32.8758240   8.6481733  87.2564011  34.0465088   7.9692774  86.5784683
   0.4889140  65.2025528  56.3109360   0.8686956  64.8273621  57.1054344
   1.2356205  65.5730209  55.8403893  85.3273926  30.5562305  30.0636826
  84.6997147  30.8053493  30.7420521  86.0944214  31.1027069  30.2347565
  30.4254208  38.9331093  60.9133301  30.5748177  39.8728065  60.8089867
  29.6250572  38.8743134  61.4350510   2.4448404   1.3557236  35.3933792
   3.0875313   1.2394212  34.6936264   1.6225234   1.0407828  35.0180931
  34.1704941  47.8783951  15.1344576  33.9604034  47.6145782  14.2386379
  34.5809860  47.1052856  15.5217915  56.5297737  61.0017128  77.2453690
  55.8199883  60.3842010  77.4217682  56.3628349  61.7342720  77.8384323
  18.5576286  65.5864563  62.0285110  19.0852909  66.2389603  62.4889908
  18.8568401  64.7468567  62.3774910  67.5578918  41.5915794  84.2715683
  68.0401764  41.4728088  83.4533234  67.5503769  40.7228508  84.6734238
   8.7401686  44.0101357  30.5999203   7.8710909  43.7138596  30.3294468
   8.9992523  44.6389084  29.9263096  82.5413971  10.8824692  50.5640335
  81.6424026  11.1395512  50.7688560  82.7410202  10.1883106  51.1921501
   5.5667729   5.2928100  29.7163963   6.2340360   5.6998143  30.2689705
   5.7724795   5.5938568  28.8313599  49.9047012  65.2672272  41.8506699
  50.0742760  66.0681229  41.3546410  49.5763779  64.6472015  41.1995125
  24.2498302  63.2313232  21.1136551  24.2174969  63.5330658  20.2058353
  24.6970749  62.3861923  21.0693569  72.3769073  31.9372978  15.0083561
  71.9519577  31.0857906  14.9054604  71.6829758  32.5736771  14.8360062
  35.0661697  49.7456055  41.7267876  35.3279648  50.2319908  40.9450417
  35.6045761  50.1119728  42.4283028  52.5565567  30.3638363  29.3864841
  53.2105827  29.8243065  28.9421978  51.7492867  30.2157974  28.8939095
  59.9254036  46.2113609  40.7387581  59.0641365  45.8045311  40.6442108
  60.4884605  45.7223434  40.1387062  62.3892212   4.3455153  42.8290672
  61.8647079   4.7651038  43.5110207  63.2775269   4.3305426  43.1853256
  66.8725510  69.9410934  12.7556019  65.9952698  69.8072357  13.1143379
  66.7897034  70.7191544  12.2042570   8.4780722  59.7612610  21.5144520
   8.7900667  59.0383148  22.0587330   7.8104944  59.3674240  20.9527893
  54.0513229  35.2818489   3.1026905  53.7896690  34.7320023   2.3641531
  54.7405128  35.8446884   2.7499058   0.7230822  20.6334324  74.1257401
   0.6020036  20.8923512  73.2122116   0.8371089  21.4594822  74.5957184
  70.2147827  67.3349152  46.3333702  70.3942032  66.7575378  47.0754433
  70.7055283  66.9507446  45.6068611  37.6524887  42.1097488  59.7903786
  38.3660202  42.0665359  59.1537933  37.2690392  41.2327652  59.7802505
  63.0221596  19.1451511  53.0125694  62.6577339  19.5171471  52.2094193
  62.4074516  19.4067211  53.6980934  31.3080578  56.8501472  88.3886948
  31.3470650  57.5682793  87.7570267  32.2045250  56.7684555  88.7141266
  40.4162140  17.4070530  83.0926437  40.1364288  17.5545979  83.9960709
  39.6115799  17.4747562  82.5786285  70.4128036  53.1722565  46.8134956
  69.6344604  53.7235794  46.8938675  70.2067261  52.3907242  47.3263016
  83.6430664  59.2785988  40.2147865  83.3817368  60.1407089  39.8912086
  83.6746979  58.7284851  39.4320984  71.0428162  18.9928799  72.2456970
  70.3099365  19.3541336  72.7443085  70.6870956  18.2056732  71.8333893
  57.7624893  18.6080456  28.5767460  57.6561089  18.1694145  27.7326374
  58.7067909  18.7402878  28.6606197  46.3915215  47.6653900  40.0992317
  46.1312943  46.7464180  40.0359573  45.9804077  48.0833778  39.3425941
  64.1377640  68.4019089  52.8701935  63.9524765  69.0153961  52.1591911
  64.5173264  67.6385040  52.4350204  56.0879250  66.8553619  69.4587479
  55.8427849  66.5477066  68.5861206  56.7759972  67.5016556  69.3003235
  51.0929298   2.4774895  23.7751369  50.4798241   3.1802926  23.9905415
  50.6385117   1.6756495  24.0335732  53.7073975   3.9590535  60.8603058
  53.3559151   3.4141290  60.1562119  52.9440536   4.4163036  61.2130928
  42.6450424  41.7772827  39.2986145  42.6513939  41.3598061  38.4372787
  43.2750702  42.4938354  39.2221298  77.9662094  32.0441093  85.7602921
  78.8273926  32.1160965  85.3486938  77.3461761  32.1751938  85.0429230
  50.5819778   5.8514137  89.0652161  49.9737129   6.5900941  89.0407715
  50.5222702   5.4629989  88.1924057  62.2328415  62.3291092  49.9613724
  62.3635101  61.5850372  50.5491791  63.0256805  62.8559113  50.0619583
  55.8997383  38.2597351  69.2735291  55.5173798  37.5185432  68.8037720
  56.7957764  38.3170700  68.9417801   8.8263025  15.1357212  79.0623398
   8.2461300  15.3413191  78.3292847   8.7087555  15.8639288  79.6723633
  34.4872208  71.8265839  72.2648392  34.2685471  71.1371460  72.8918076
  34.5384560  71.3761902  71.4217758  65.7240143  65.2066193  78.3742523
  65.7664642  64.9625015  77.4496841  65.2484894  64.4875488  78.7902451
  54.5437393   6.4313450  35.3781471  54.1454430   5.7644825  35.9375114
  54.8342438   5.9511962  34.6027145  18.8322067  27.1615810   8.0115051
  17.9118958  26.9907455   7.8113170  19.1013126  27.8129177   7.3637581
  85.6276321   6.5699110  26.4850903  85.1290512   7.3791633  26.5980301
  85.0415115   5.9940147  25.9941387  43.4596558  63.8044701  30.3540726
  43.7525215  63.4969864  29.4962177  43.0196228  64.6351013  30.1733704
  38.7663689  57.0103035  30.0287971  38.9393730  57.9353790  30.2035389
  38.6111374  56.9697571  29.0851383   1.8677394   8.2285643  33.2731438
   2.2416389   8.0523825  32.4097824   2.3611448   8.9814043  33.5987396
  76.2511978   9.1381416   0.4781066  75.8509521   8.3127575   0.7515616
  75.5456619   9.7812223   0.5481022  18.6246872  69.7939301  68.7521057
  18.9197426  69.0333786  69.2528381  19.3183155  69.9411163  68.1091080
  59.7584572   2.8339267  41.0045471  60.3877296   2.2184100  40.6285362
  59.8578644   2.7299242  41.9508743  85.9243088   2.0458882  62.1088791
  86.3063812   2.8633068  62.4283867  86.3801727   1.8744369  61.2848511
  50.1220894  42.9508209  67.6730270  49.6947365  42.7707405  68.5103836
  50.8991928  42.3919487  67.6756439  72.0691147  25.8153858  59.1885452
  71.2798767  25.6094513  59.6894760  72.3927002  26.6290359  59.5751953
  83.6250916   1.7016189   9.7324715  84.2406082   1.3245234  10.3610973
  82.7678680   1.5997990  10.1460361  51.0186348  60.5832176  67.0180893
  50.9063530  60.5262413  67.9669724  50.1876984  60.2715378  66.6594391
  50.5934143  67.7772369  11.1067753  51.1731453  68.1272659  11.7832518
  49.7975311  67.5302505  11.5777321  10.2736244  59.4360428  52.5564613
  10.6842499  58.5810394  52.4276581   9.3788977  59.2333298  52.8295975
  19.7655315   2.6518950  64.5240936  20.2135525   2.5679421  65.3657913
  19.1875973   3.4068799  64.6346436  75.4067764  39.0343475  27.1324749
  74.9743576  38.7125626  26.3414631  74.9383850  38.6096458  27.8511314
  39.7289810  67.4192657  87.9635010  38.7869186  67.4425125  87.7955399
  39.8338394  67.8680649  88.8024368  85.9640198  28.9089832  52.2884102
  86.5715179  28.2545319  51.9436264  85.2407150  28.3971443  52.6504555
   1.0756854  65.4491882  67.3444138   1.5194684  65.2361069  68.1653214
   0.4242792  64.7560501  67.2373734  80.7621841  41.3600159  73.9389267
  80.2643661  41.7984657  73.2488708  80.5415421  40.4336777  73.8417587
  19.3261490  18.4799519  12.4803133  19.2308025  17.5807133  12.7941790
  20.2487183  18.6884251  12.6274109  81.8562469  17.3011341  52.2910423
  82.3515396  18.0898075  52.5121956  81.4149780  17.0592308  53.1052895
  19.6826153  56.1318855   7.8936090  19.3913345  57.0432854   7.8664412
  20.1079674  56.0416985   8.7463541  43.1605949  18.3439274  83.9628677
  43.8415070  17.8983097  83.4588623  43.4321442  19.2617435  83.9731140
  45.3976669  18.9832268  75.1021652  45.4146729  18.3737545  74.3642654
  45.6042709  19.8339024  74.7149963  86.4514923  65.2668991  64.1088104
  86.1793900  65.8127213  64.8465500  86.9124527  64.5313797  64.5122452
  58.4253845  47.4373932  74.1878204  58.0809479  46.7300797  73.6425629
  58.5868797  47.0277100  75.0377121   4.8734059  10.4051609  85.2070465
   4.3633714   9.7217665  84.7722321   5.2448416  10.9194736  84.4902878
  71.7548523  47.4471130  86.7254791  72.0463028  46.8896866  86.0039749
  70.8580399  47.6888885  86.4941711  71.3089447  49.0722389  52.6429863
  70.5140839  48.8777542  52.1463928  71.0432434  48.9968452  53.5594711
  45.0968094  61.9244614  58.7623253  44.7434464  61.3976555  58.0455017
  44.9183846  62.8290787  58.5052910  38.1691360  51.7177963  51.3996429
  38.2929688  50.8786087  50.9561806  38.1263733  51.4934616  52.3292007
  57.4892998  29.3013916  51.5498428  58.2480736  29.3981133  50.9743958
  56.7571106  29.1380196  50.9553337  63.3659592   2.4422293  45.8271790
  63.4500923   2.9406533  46.6400299  62.4227829   2.3975196  45.6701698
  70.9698792  16.4406700  53.6955109  71.5013657  15.8003416  53.2225037
  71.1018143  16.2260704  54.6189651  50.7702103  61.1710014  55.5616341
  50.3089752  61.8743591  56.0185623  50.9888535  60.5418358  56.2490768
  66.0716934  41.6782455  45.3459015  66.1013031  41.1300201  46.1299934
  66.9416962  42.0744781  45.2976990  47.4186821  37.4733047  61.1847267
  46.7572937  36.7999840  61.0252304  47.2275314  38.1543274  60.5398216
  71.6891251  64.0963974  57.0655479  72.6353149  64.1530609  56.9323730
  71.3608627  64.9622726  56.8232117  10.6192722  28.3554153  82.4561615
  10.8314667  27.6736279  83.0936279  11.0732574  29.1341248  82.7782440
  11.0485420  35.3209686  72.8232651  11.4131203  34.4437065  72.7061157
  11.8141985  35.8896255  72.9047165  82.9586105  20.7711220  77.0602875
  83.2311554  19.8608475  77.1758423  82.5987778  20.8027134  76.1738586
  24.3460407  31.5533867  87.0444489  24.0539341  32.4647903  87.0285416
  25.3000546  31.6085663  87.0996094  71.0515594  51.1231995  58.5518646
  71.7537460  50.4895821  58.6991463  70.2801056  50.7234535  58.9534836
  21.4799156  39.9892120  77.7925262  22.1359329  39.8150368  78.4674606
  21.9891529  40.1315880  76.9946289  77.5561676   1.7172933   4.5868931
  78.0162506   0.9978672   4.1544857  77.7314453   2.4796376   4.0352221
  48.4810982  55.2247391  15.9817762  48.5256271  56.1404610  15.7066393
  47.5649414  55.0920906  16.2252769  72.7701569  22.4965935  36.3473206
  73.1515961  23.0555363  37.0243149  72.2991180  23.1017265  35.7744598
  53.8091812  69.6303711  40.3032379  53.6576195  68.8645096  40.8570595
  53.9153290  69.2715988  39.4221916  20.8532352  49.5010567  58.6795540
  20.6639099  50.3760910  58.3408775  21.5492382  49.6383629  59.3221703
  14.5581884  47.2518730  29.9682446  13.9079666  47.9504242  29.8942833
  14.8443012  47.0947266  29.0684242  20.1465130  42.0983658  55.8778954
  21.0086117  42.4347000  56.1226273  20.2362213  41.1469498  55.9326286
  43.8311844  52.0347557  70.6710739  44.6034927  51.9672775  70.1096344
  43.2150841  51.3982544  70.3084183  50.9894753   2.5065806  32.3391609
  50.0442238   2.4118319  32.2219009  51.1716232   2.0756092  33.1742172
  67.7984085  66.6770706  48.8393364  67.1899414  66.2381744  48.2448883
  68.0381851  67.4840393  48.3837738  36.6249580   1.1419667   9.4503174
  37.1615486   1.0769225  10.2402983  36.5314789   0.2381882   9.1491899
  78.0507355  13.2045250  71.6909485  78.2792816  12.5354795  71.0456772
  77.8291473  13.9753666  71.1685181  47.9006691  64.5857315  88.8328323
  47.2478638  65.2821655  88.9039383  48.5637589  64.9386673  88.2395554
  55.2669296  39.2652092  28.9649239  54.9900322  39.6876183  28.1518250
  56.0275650  38.7404900  28.7152557  11.8248806  26.9110584   0.6027413
  11.9390602  27.1002159   1.5340923  10.9846859  27.3110046   0.3783576
  67.3216248  39.3407745  85.8086319  67.1450958  38.5735779  85.2641296
  66.9851608  39.1036873  86.6728134  37.9964066  10.0247698  79.3773117
  37.6459579  10.0274115  80.2680511  37.2296791  10.1489315  78.8179016
  22.3888054   9.3407059  21.0225544  21.4915276   9.5652494  20.7761707
  22.9255295   9.6769218  20.3048363   0.6348037  55.9645157  43.3433151
   0.9908311  55.5527649  42.5559540   0.3919811  56.8470116  43.0631905
  14.1092291  10.6672716  77.9639359  13.5478582  10.6177988  77.1902084
  13.5632048  11.0854702  78.6296616  83.4630585  45.2006378  32.2875710
  83.7839355  46.0946312  32.4060745  82.5337830  45.3048439  32.0830688
  17.8086891   2.4302824  87.1700134  16.9955235   2.7694256  87.5441437
  17.6001129   1.5302171  86.9197845  18.5697727   7.5627418  87.5634079
  18.1840191   8.4342279  87.6524963  19.4261627   7.7194166  87.1655579
  57.6968918  23.3615208  30.2969418  57.2120056  23.5555172  31.0991154
  58.4393692  22.8321228  30.5879726   6.9733691   9.1161480  74.7136765
   6.6928978   9.9517841  74.3404694   7.0570722   9.2887125  75.6514664
  76.8247223  16.1968803  21.3450756  77.6906967  16.2004147  21.7528801
  76.3000336  15.6218128  21.9020615  17.5737247  69.4387665  80.9871063
  16.6668510  69.4732590  80.6827698  17.7376060  68.5093079  81.1467438
  58.5871315   9.0702791  18.3003635  58.7865868   9.9797916  18.5222569
  59.4363441   8.6288052  18.3133736  65.0801849  51.4800682  16.1700993
  64.3154449  51.7670784  15.6710663  65.2858353  52.2208176  16.7403851
  52.8075104  21.6098900   6.1802864  52.4339333  20.8346329   5.7611833
  53.5388603  21.2732983   6.6980362  83.6231537  49.0911942  62.4501801
  84.1461563  49.0072670  61.6528969  84.2484283  48.9557419  63.1621590
  55.5804901  64.8045044  84.0115509  55.7051353  63.8643417  83.8819885
  56.1919365  65.2137985  83.3992996   9.2716455  12.3846569  68.0534439
   8.3348207  12.5594387  68.1431274   9.6564560  13.2380314  67.8536835
  13.0223236  18.3363800  27.7703667  13.1043949  19.2834492  27.8824291
  13.3687077  18.1679783  26.8940735  54.2906303  58.4525490   0.6662380
  54.0529900  59.0382576   1.3850615  53.5300980  58.4656906   0.0851635
  80.1363525  66.3493652  25.2874603  80.7933121  66.7486420  25.8577328
  79.3413925  66.8588943  25.4444866  13.9566040   4.5311508  20.6441689
  14.2935238   3.9203935  21.2996788  14.2624912   5.3895788  20.9370270
  58.4417496  56.0467148  39.9016762  59.2116241  56.0735245  40.4698334
  58.4215164  56.9081879  39.4849243  31.2056732  11.4116726  73.8492203
  30.2669792  11.3784647  73.6648788  31.5485458  12.0567694  73.2307434
  52.7997551  25.5404911   7.9215717  52.6803055  25.4197140   6.9795647
  53.4404869  26.2480183   7.9929872  78.8617554  52.5392609  85.2387314
  78.1568756  52.2649002  85.8253403  78.6527863  53.4478264  85.0217590
  62.3293877  40.3521614  87.1980209  63.1882019  40.6621284  87.4854050
  61.8825951  41.1392784  86.8864822  41.8612595  58.7352562  58.9459343
  42.2752151  59.4982567  59.3492966  42.5931053  58.1990547  58.6407738
  18.1713123   4.2163329   8.3846722  18.3569756   4.8973193   9.0312157
  18.0128460   4.6952300   7.5711746  55.5170860  40.3735542  46.3606796
  54.9468765  39.8737907  46.9449120  55.7478256  39.7568588  45.6659317
  35.8669052  36.9608727  67.6218643  36.0290642  37.1874809  66.7061157
  35.0568962  37.4206657  67.8425598  60.8939247  56.7603874  84.8338013
  60.3370590  56.4674339  84.1124725  61.7793999  56.5108871  84.5693741
  17.0633869   4.2741585  68.3052216  17.5277386   3.5788262  68.7711868
  17.2717228   5.0704455  68.7938538  75.0874405  12.6367817  50.3218803
  75.5455704  11.8439713  50.0429535  75.7844467  13.2744274  50.4762230
   0.1833794  43.3431206  49.9982300   1.1308954  43.3461494  50.1340103
   0.0026276  42.4964142  49.5900040   8.6692753  39.5907516  72.7011108
   8.5703154  38.6805763  72.9804230   7.8490829  39.7937889  72.2513351
  81.1351166  47.8610573  63.3914757  81.8215942  48.4675865  63.1137886
  81.4581299  46.9983788  63.1313286  73.6897278  20.2159729   4.0297542
  73.0500870  19.9157982   4.6754956  73.6108017  21.1698589   4.0399566
  52.8455162  43.0182152   8.5162077  52.2831612  43.6018486   8.0069370
  53.6186218  43.5456352   8.7171221  60.7691765  14.5255222  60.9041824
  60.0908394  14.8866930  60.3335266  61.5926743  14.7727232  60.4835014
  19.1141663  52.5781746  29.6199818  18.4583797  52.0415573  30.0652008
  19.8673534  52.5750504  30.2106857  13.7122126  13.9505014  79.9935913
  13.2715425  14.5683527  79.4102402  13.9217682  14.4649220  80.7731400
  67.3060989  23.6777878  35.6394768  68.1886826  23.7617683  36.0003433
  66.7742310  24.2744484  36.1661110  67.7236176  53.7791595  33.1451149
  67.5495377  54.6803780  33.4166527  67.2931442  53.6980515  32.2940292
  16.4809055  53.5909805  56.7125664  15.7342396  53.2501526  56.2200623
  16.1335716  54.3517952  57.1781349  74.4518280   0.6709239  47.3085213
  74.0128860   1.0665460  48.0615463  73.7457733   0.4879319  46.6886520
  56.9420967  67.0891495  48.3924675  56.2057991  67.4220123  47.8793449
  57.6301346  67.7445374  48.2771225   3.8149633  41.2118912  87.8505554
   4.0588861  40.2927246  87.9594727   2.8798363  41.1890907  87.6474533
   3.2847786  37.5289383  71.0810852   4.0078726  37.8342896  71.6289291
   3.2391670  38.1657219  70.3678818  15.6947117   5.9409251  55.5142708
  15.9769640   5.9527740  56.4288330  15.7604170   6.8530402  55.2314949
  77.5876389  60.4984894  26.7333984  77.2114182  60.0202141  25.9945202
  77.3106842  60.0040131  27.5047741  68.7713776  21.5389824  24.9708538
  68.9788666  21.2333126  25.8538857  68.4841156  22.4439888  25.0920010
   6.5931659  46.6750870   4.0969768   6.7321811  46.6443443   5.0435290
   7.4368868  46.9522820   3.7398610  21.0988464  58.4305992   1.2454849
  20.7315559  58.1579666   2.0863175  20.3855705  58.3032913   0.6199756
  35.4823875  42.7951927  11.4258900  36.1093826  43.2123032  12.0167627
  35.7710495  43.0521660  10.5501776  71.1849594  54.8233337  78.9484558
  71.5813522  54.0962143  79.4284515  71.0584564  54.4846077  78.0621719
  69.7134552  13.5969362  56.7409859  69.6052322  12.6468163  56.6986618
  69.0608139  13.8841267  57.3795853  39.0457115  58.7680435  50.1966171
  39.5686188  58.1301689  50.6823273  38.9041977  59.4835052  50.8165550
  63.3481522   0.7789924  68.6370621  63.0025902   0.8915823  67.7515411
  63.8983078   1.5492883  68.7792053  32.6829109  70.2200851  41.3732834
  33.3751259  69.6388321  41.0583076  32.1352768  69.6627274  41.9261703
  79.5900574  10.4423475  81.7229462  79.8413467  11.3472300  81.5378189
  79.9492111  10.2672005  82.5927505   7.4523630  70.4177856  39.9539108
   7.9329596  69.7690964  40.4681702   6.9606738  70.9212799  40.6027298
  34.7452888  17.4554520  13.6069622  34.3918457  16.5800591  13.7650671
  34.0849075  17.8859119  13.0639801  62.7185249   3.4320011  29.3458996
  62.0975266   4.1595039  29.3824024  62.4182281   2.8265240  30.0237293
  86.0740204  48.7649002  35.3337975  86.9653397  49.1086082  35.2733650
  85.6511383  49.0522346  34.5245743  29.3468075  33.1445084  11.7518711
  29.2416706  33.7496758  12.4860020  29.6360817  33.6969109  11.0256453
  63.1855202  35.0686226  51.5908508  62.7335510  34.3534126  51.1431541
  64.0616760  34.7255211  51.7665329  18.2903996  46.4239197  69.0985718
  18.0253410  47.2477646  69.5075378  17.6539459  46.2894478  68.3963776
  13.1562090  17.4602184  20.8376179  13.1186152  18.3022041  21.2913570
  12.3235483  17.4033279  20.3689270  41.4391670  17.5963001  78.6196365
  41.0575066  16.7363796  78.7959900  42.1795616  17.4155293  78.0405197
  16.1539440  19.2683449  65.5706100  16.9226151  19.7824306  65.3234406
  15.9600601  19.5431557  66.4667816  64.7240906  33.5910683  20.4158363
  64.8526917  32.8143082  20.9602032  65.3663406  33.4993172  19.7120380
  17.3792000  16.5440788  64.6116486  16.8853207  15.9062061  65.1268539
  16.9233818  17.3732567  64.7563095  24.0188408  41.5780411  15.5632935
  24.0628891  42.1777039  14.8185148  24.9172993  41.2669067  15.6737423
  58.1579437  39.9852142  76.0538254  58.5463028  39.7332916  76.8916473
  57.2391510  39.7273979  76.1285553  67.8694763  68.6915894  68.4599304
  67.1809540  69.3466415  68.3455658  68.1356659  68.4657745  67.5686493
  63.4164619  18.4878120   5.8189821  62.7507133  17.9238701   5.4253087
  62.9548111  18.9517460   6.5174627   0.7662980  67.3201523  52.2307625
  -0.0011042  67.8826599  52.3352165   1.1847024  67.3235321  53.0916672
  51.7457047  17.2880764  23.4832096  52.6304512  17.4293938  23.1463356
  51.8521805  16.6249447  24.1652279  61.1245422  66.0209808   5.3388481
  60.3446846  66.3666306   5.7731061  61.8207397  66.6349487   5.5724812
   5.8758125  56.2632370  21.3194237   6.4988575  55.7860374  21.8674450
   5.0772786  55.7363281  21.3501167  59.5695953  63.4335518  19.2949409
  58.8437614  63.4179840  19.9187660  59.2919502  64.0527344  18.6198444
  59.6495361   9.8927879  41.3036613  60.3956985   9.3384237  41.0752907
  60.0129776  10.7771845  41.3481979  79.8874054  64.5943909  36.7624130
  79.7822266  64.5286636  35.8132820  80.6367493  65.1781464  36.8804970
  37.6885262  35.4071121  68.8494568  37.8102760  34.7816544  68.1351624
  36.9740791  35.9716377  68.5543213  84.3677292  41.9331512  35.9943581
  83.9725113  42.4769783  35.3129730  84.9886780  42.5138779  36.4341469
  23.0299263  65.0869293   7.7680001  22.7121735  65.8452225   8.2581701
  23.5552158  64.5961609   8.4000177  79.8711090  66.1812973  82.9809418
  79.5738678  65.3123779  82.7110138  79.7201538  66.7348022  82.2147293
  18.3561897  35.1017342  67.9128876  19.0984020  34.8525314  68.4635696
  18.7156315  35.1330872  67.0262909  20.6021862  47.8674240  41.0425758
  20.5834846  47.5421028  41.9426003  21.5325031  47.9035034  40.8202209
  62.3332520  42.8860512  72.7365112  61.9742088  42.2626953  72.1050491
  62.3835144  43.7121124  72.2555466  76.6743011  36.4408417   6.8179765
  76.5434647  37.2160606   7.3640075  76.1263809  35.7679977   7.2220802
  63.9893188  38.0736771  80.4444427  63.1177940  38.3915482  80.6803055
  64.4681549  38.0505371  81.2729416  52.8619728  56.3745117  79.6405334
  53.4341774  55.6391945  79.4211731  53.1143074  56.6168633  80.5315018
  31.9376850  12.1031828  84.5075760  31.2480354  12.6972637  84.8036957
  32.6853027  12.6738377  84.3296738  41.5078278  42.4090004  66.4385681
  41.3509293  41.5424271  66.0635147  42.2043419  42.7814713  65.8978577
  23.2676601  43.9049530  34.3963318  23.2453861  43.5211906  35.2729492
  23.9444695  44.5798912  34.4474716  70.8913956  63.9800301  54.0249863
  71.4720993  64.5974197  54.4697838  70.0484467  64.0834274  54.4665527
  55.7056160   5.9113984  41.0114059  56.1723518   5.2907743  40.4517479
  55.8633995   5.5967703  41.9015427  26.8825264  57.9707832  30.4574718
  26.0735722  57.8087234  30.9428158  26.9733906  57.2107277  29.8827629
  67.4332581  29.1660500  46.2201996  67.7813034  28.4434624  46.7426605
  66.7054443  29.5081234  46.7393379  43.4927177  34.2424622  76.6537399
  43.6830711  33.6137733  77.3499756  42.6615829  33.9453354  76.2833862
  62.6380081  37.4213104  24.1373901  63.1760979  37.8024750  24.8312244
  63.2666779  37.0025902  23.5494404   2.3071775  34.9722328  36.2327309
   2.8358133  35.5381927  36.7952805   2.9471612  34.4870987  35.7118683
  63.2123528  18.0969810  67.9757843  63.1973343  18.8741302  68.5343933
  62.9687042  17.3780975  68.5589447  57.8290596  43.3474770  70.2380447
  57.5624275  42.7446175  70.9320908  57.0390511  43.8509789  70.0415726
  24.0937195   3.8584938  11.2273836  23.1756287   3.5990663  11.1496830
  24.2322865   4.4687657  10.5030909  50.0320854  19.7799110   6.5745664
  50.5678520  20.4622192   6.9790916  49.5174446  20.2408123   5.9120350
  25.7501125  55.3171883  31.8298645  26.1210823  54.7399063  31.1625137
  24.8218918  55.3785744  31.6043186  12.9353828  33.5761757  59.1192856
  12.8562298  32.7989235  58.5662537  12.1944551  33.5174255  59.7224503
  31.4456711  53.5152130  68.3261719  30.9417152  54.3167267  68.1853333
  32.3566933  53.7794495  68.1979141  79.6299820  68.3464584  44.1807976
  79.1103210  69.0069962  43.7226791  78.9826431  67.7939072  44.6188278
  42.9550896  39.5042038  21.8294487  42.4234085  40.2798538  21.6508083
  42.3436127  38.8791847  22.2189159  65.4776993  46.8269234  84.6883011
  65.2630539  45.8946419  84.7200470  64.7220459  47.2603302  85.0850067
  76.4121704  12.9599295  15.6907024  76.8910599  12.2840357  15.2110500
  76.7359467  12.8911486  16.5888519  23.0693741  58.4315147  30.7258682
  23.5260963  59.2355461  30.9731998  22.4578533  58.2725601  31.4448986
  17.7637501  15.0338469  24.9107361  18.5449963  15.5859604  24.8782330
  17.7466011  14.6955748  25.8060074  10.9120445   3.4885638  24.4300632
  10.2319212   3.5865858  25.0964394  11.7235022   3.7247834  24.8794727
  29.8362923   5.3954048  79.2745819  29.6379261   4.4928293  79.0251083
  30.2896271   5.7598977  78.5144119  85.6966324  66.7478027  22.6105213
  85.5623169  67.6816406  22.7721672  85.1950760  66.3110046  23.2989159
  49.0438728  59.5538445  75.1275711  49.3995171  58.7204247  75.4360580
  48.4234810  59.3099289  74.4406586   1.1424433   5.8412681   7.2713337
   0.7555248   6.7022057   7.4304323   1.9140296   5.8171520   7.8372884
  44.3563042  26.7725906  86.5632553  43.7146530  27.0760670  85.9210587
  43.9108391  26.8588104  87.4060822  69.3001709  12.4820929  76.4754181
  69.6490173  13.2166758  76.9803238  69.6191025  12.6304283  75.5851898
  49.6483803   0.6315431  89.4702225  50.4886856   0.3702683  89.0935898
  49.0377808   0.6072581  88.7334595  46.8507614  59.3798103   8.6048069
  47.7400246  59.4492874   8.2575035  46.6916389  60.2242928   9.0264235
  80.9321442  46.6957245  66.0578613  81.7570114  47.0160828  66.4228363
  80.9401398  46.9952087  65.1487579  68.5233307  37.5925598  35.5199928
  68.6752472  38.1271935  36.2992973  67.5765839  37.4521332  35.5066986
  62.6590004  10.9677181  51.4692078  62.6853104  11.9222364  51.4026222
  61.7311478  10.7609253  51.5812607  34.3362541  52.3720245  78.8413315
  34.8498840  53.1797447  78.8398209  34.0410118  52.2742348  77.9360657
   6.2809963   4.0738387   2.4307280   6.7083836   4.3668346   3.2355413
   5.4397159   3.7213433   2.7209463  54.5981789  16.5755138  37.0352783
  55.4826164  16.6939430  36.6889076  54.1659164  17.4154243  36.8805885
  24.7178898  25.0739193  78.4633408  24.7888165  25.9223003  78.9008865
  24.1702003  25.2446575  77.6971054  19.0103531  51.1717110  77.6815948
  18.6746845  51.7679176  77.0121918  18.3245525  50.5111885  77.7796707
  28.1586246  42.7547722  24.2817688  27.8993683  42.1683578  24.9924984
  27.4293175  43.3693428  24.2002354  54.2420845  30.2819958   7.6682239
  54.1724548  30.8119392   8.4622917  53.3352165  30.1097584   7.4149361
  41.9044266  25.2304440  17.6975498  42.5860596  25.4035854  18.3468761
  41.1890869  25.8190823  17.9384460   6.5895643  60.6528130  70.0852737
   5.8540702  60.1030540  69.8150101   6.2413054  61.5442429  70.0680008
  49.9374580  52.9605598  56.4721909  49.7823296  52.4562950  55.6735153
  49.3476639  52.5727081  57.1186790  31.0781307  33.3614197   2.4278600
  30.5678768  32.5520058   2.4009473  30.8709602  33.7469597   3.2791364
  14.7462854  68.6819077  14.8791542  13.9747086  68.5388794  14.3310261
  15.3735666  68.0205536  14.5869884   3.7196815  25.8867893  81.5855103
   4.2306271  25.8370285  80.7776184   2.8990571  25.4399471  81.3778076
  17.3339157   8.6311903   8.9765615  16.4939079   9.0185452   8.7304401
  17.3257999   8.6298990   9.9337263  66.4610214  63.9783707   1.4265132
  67.1498871  64.3176193   1.9980125  65.9318161  64.7454376   1.2079140
  66.8883438  33.2157822  65.4246521  66.2130890  33.2456169  64.7468796
  66.4580383  32.8030319  66.1734467  76.9993286  65.7520294  80.1528702
  76.4398651  65.9801407  79.4104385  77.8890152  65.7846603  79.8012695
  12.0217400  62.8522110  72.0647125  12.3833609  63.1247368  71.2213898
  11.9404287  63.6646652  72.5642471  36.4043922  43.4168320  68.2419434
  36.2090683  44.2131577  67.7480316  36.5660820  42.7528763  67.5716782
   9.3340292  21.1014938  24.2567158   8.8163099  21.9008751  24.1608582
   9.8042364  21.2182198  25.0822525  46.2043762  51.5955925  34.3894768
  46.2916298  51.5683746  35.3423042  45.3351021  51.9670372  34.2390747
  42.6090393  18.7495975  21.8551636  42.0744133  17.9616966  21.7571125
  42.1283989  19.4260788  21.3780975  69.9811630  67.2694016  37.6657867
  69.6863632  68.0303345  37.1654816  70.0814667  67.5950851  38.5602722
  63.5152473   3.7096996  18.1730747  63.6221962   2.7930088  18.4269867
  64.0909882   3.8172638  17.4159870  55.2593040  49.4600830  66.6966476
  55.6385384  50.2653542  66.3445892  54.3145523  49.6130562  66.6800690
  65.6424561   0.5187699  29.6559124  65.4538651   0.8088233  30.5483990
  64.8628998   0.7604001  29.1557751  59.5161095  14.8162069  57.3769417
  59.4013176  13.9520273  57.7722244  60.4614525  14.8984365  57.2512550
  18.5556965  34.1105309   2.0942497  18.3842697  34.7274857   1.3827670
  19.4280682  33.7643929   1.9061359  29.3250008   5.9194579   4.9551134
  29.6665211   5.8435960   4.0641351  28.5395813   6.4591813   4.8654151
  20.5169945  23.9899311  59.7466240  21.3476505  23.9126434  59.2772942
  20.6919403  23.6095200  60.6073875  45.9062386  41.7111397  79.8125458
  45.3678780  42.0535545  79.0989914  46.7809448  41.6263046  79.4331741
  10.2189026  43.9338646  16.5752068  10.0594549  43.2576637  15.9167528
   9.4497499  44.5015564  16.5266457   6.1324849  69.4752884   4.9427733
   5.9249153  70.2497253   5.4656463   5.7411547  69.6519699   4.0872755
  46.8894348  51.8557854  82.3102646  46.7798767  50.9054184  82.3423691
  46.2708969  52.1902618  82.9597015  75.2277985  60.3602791  86.6804047
  74.5465851  60.2816849  86.0125732  75.5160751  59.4607925  86.8354950
  16.3145046  24.3608303  60.7716026  16.9550095  23.8599167  60.2665596
  15.8920135  24.9283333  60.1268768  69.4745865  50.4094505  19.2090492
  70.3526382  50.0312080  19.1622257  69.5192871  51.1880417  18.6540432
  68.4760437  45.0364075  85.0198364  68.8527832  44.5366020  84.2956238
  68.5852890  44.4703026  85.7839203  42.3468933  20.2777081  16.8082466
  43.1323471  20.1836357  17.3471756  41.8190079  19.5071926  17.0177078
  57.5285339  48.0266037  52.5145950  58.2944450  48.5811501  52.6632004
  57.8693085  47.1328468  52.5507050  57.9132500  39.1978722  62.0066605
  57.3271713  39.0121536  61.2729988  57.3288651  39.4442940  62.7235985
  81.9265900  65.9968109   9.5663815  81.2398376  65.9429703  10.2309914
  82.0900269  65.0873337   9.3166294  66.7019577   7.7767906  62.9079857
  67.5342865   8.2417564  62.8227348  66.0580521   8.3636799  62.5115318
  40.1701012  71.3269043  76.4952393  40.1685982  71.2031174  75.5460815
  39.8068581  70.5126724  76.8435516  30.3263855  13.4491158  10.8603210
  31.1897850  13.8372393  11.0022163  30.4204750  12.5423899  11.1522570
   2.8443971  43.4439545  50.9181519   2.5791550  44.2905884  51.2774429
   3.7480359  43.3311348  51.2130089  66.0934067  40.3219948  70.1870422
  66.2093658  39.9636116  71.0670090  65.2346420  40.7440796  70.2115784
   4.2028098  20.5939178  68.4939346   3.8197095  21.0967445  69.2127075
   5.0377841  20.2790909  68.8402481  48.5265770   1.5976321  82.6978989
  47.5911827   1.7881277  82.7684708  48.8733711   1.7729205  83.5726776
  23.0495644  55.6147118  34.0498238  22.8660450  56.2407455  34.7502785
  22.7218304  54.7794342  34.3831902   3.9244101  40.8722458  70.9845123
   3.6145585  40.1911583  70.3875656   4.8733778  40.8862381  70.8600311
  52.1737518  47.5890999  71.4087982  51.4331093  48.1845055  71.2940140
  52.8979874  48.0168686  70.9519272  30.1848354   2.4320579  67.8169708
  29.3131752   2.0365336  67.8167877  30.0972710   3.2049246  67.2590790
  77.7209167   1.1472265  72.9225464  77.3227310   1.3783126  73.7617569
  77.8863602   0.2066292  72.9868698  83.8850479  15.9055204  29.1730576
  84.0749664  14.9675369  29.1543179  84.4382629  16.2756920  28.4851913
  13.0875626  43.6154633  33.5929718  12.3415670  43.2989540  34.1024246
  12.8782854  43.3787193  32.6894302  51.2804604  33.0894127  67.5454941
  51.8075600  32.3207169  67.3275452  51.9172707  33.7979927  67.6383667
  49.5330315   4.0382648  67.5567932  48.9016571   3.6255631  68.1460876
  49.2713699   4.9586711  67.5319901  57.8015671  61.7038498   8.3829126
  57.5570564  62.4859886   7.8882360  58.7261543  61.5685349   8.1754093
   6.5093164  64.2560730  64.4634399   6.2455840  63.3371277  64.5106049
   7.3760920  64.2359772  64.0578232  73.6816101  66.3119431  63.6077881
  74.2569275  66.0087814  64.3101654  72.7991791  66.2332230  63.9702072
  81.3804245  35.4431229  46.0188217  81.7450256  35.2307968  45.1596260
  82.1328583  35.7370415  46.5323219  47.0587044  67.3527908  14.8403006
  47.7352600  67.9692535  15.1204309  47.4166069  66.9468842  14.0507536
  78.1629181  53.1623116  56.9379921  77.3463287  53.3044434  56.4592285
  78.0272751  52.3367958  57.4031334  54.0613098  41.2086868  37.2958984
  53.6985703  40.7146683  36.5606461  53.2954559  41.5651741  37.7460213
  41.5985413  39.7865753  77.7078018  40.9874382  39.5499725  77.0100861
  41.6543541  39.0021515  78.2535095   7.8388572  24.4522572  78.7834320
   8.4291143  25.1897049  78.9383392   8.4170036  23.7305603  78.5361786
  60.8123360   1.6022911  83.2934494  60.1973915   0.8689908  83.2748108
  60.3954277   2.2501068  83.8615646  49.6624756   6.8979278  10.9603167
  50.3512688   6.3355360  10.6060390  49.1141014   7.1098156  10.2049227
  16.8238602  63.3503151   6.2955651  16.9341450  64.2751312   6.5164442
  16.2375889  63.0108261   6.9717798  54.5451813   2.3402076   4.8486032
  55.3458290   1.8658438   5.0725994  54.0933456   1.7680129   4.2283878
   0.4632398  23.8775501  58.3283501  -0.0290751  24.5344601  58.8206177
   0.6299449  24.2889786  57.4803123  69.6425018  55.0518608  72.5401764
  70.1178818  54.2388840  72.3689651  70.1803284  55.5127716  73.1840134
  11.4426403  64.3156662  56.0435562  11.6538267  63.4518280  55.6894112
  11.3581934  64.1738739  56.9864235  69.0866394  63.9797859  10.2007360
  68.4174118  64.3687439  10.7638283  68.5916901  63.5324326   9.5143518
  82.5670853  44.4190102  37.9521065  82.5935364  45.3222389  37.6363335
  82.4370117  43.8931084  37.1629677  27.6379776  49.9168129  74.2646332
  27.0558052  49.1943550  74.0293427  27.7688599  50.3952904  73.4459991
  77.0580978  55.0901527  39.3129997  77.2187881  55.8268509  38.7233505
  76.2176056  55.2915497  39.7243843  37.1865158   1.5569421  55.1422462
  36.6488380   2.2708786  54.7995682  37.4648743   1.0724247  54.3650780
  83.7676544  49.7493057  88.8742371  83.1522217  49.0598106  88.6250992
  83.9709015  49.5687714  89.7920227  70.0964661  64.8472900  73.8860703
  70.4837570  65.5352020  74.4273758  69.3458252  64.5377502  74.3929825
  13.8531952  61.1159401  73.3638535  13.3032856  61.7881126  72.9613495
  13.4845028  60.2883263  73.0550613  53.5501823  57.8451729  23.4638081
  53.7820892  58.5982056  24.0073071  52.9643097  57.3245544  24.0133038
  45.8548355  13.8388910  87.5214462  45.6683998  14.5325279  88.1541748
  45.4864426  14.1600914  86.6984406   2.9243162  15.1054764  65.3072128
   3.0181255  16.0393982  65.1195374   2.0596282  15.0278635  65.7103577
  36.1573486   2.2889135  17.9814930  35.2748566   2.4612279  17.6532478
  36.3873215   1.4356329  17.6137199  85.0724030  14.9500647   1.3429317
  84.9734421  14.9308500   0.3910549  85.4120407  14.0833874   1.5659673
  13.3852463  67.7413940  41.9112511  14.2257309  67.2858582  41.9592400
  13.4700794  68.3214874  41.1545944   9.5761461  13.4465513  17.2692165
   9.4164467  13.9495106  18.0678158  10.4550247  13.0855303  17.3852634
   6.5300179  68.9217072  31.3592968   6.2840033  69.3336716  32.1875458
   7.4816031  68.8314667  31.4100304  79.2410355  55.7460747  57.4986839
  78.9491501  54.8949242  57.1722221  79.2550659  55.6455460  58.4504890
   8.9360886  48.4158897  72.1017303   8.6751060  48.2759628  71.1914902
   9.2854900  47.5704193  72.3833923  56.1466103  25.7488060  66.2013855
  56.9267311  25.3217430  66.5553055  55.4862862  25.0563965  66.1736145
  61.4850082  32.7456055  13.9113560  61.5403290  32.1585960  13.1573067
  60.7221336  33.2951126  13.7316504  38.8969345  20.8724594  81.8715134
  39.4583549  21.0680466  82.6217041  38.6261406  19.9641724  82.0053711
  44.7723236  43.9709053  74.2667160  44.5827789  44.4574890  75.0689240
  45.4864159  44.4572372  73.8546677  36.2636337   1.8926367  67.3637543
  36.3415718   2.5453548  68.0595398  35.9277573   1.1119848  67.8042145
   1.7276268  26.7690125  15.7138443   0.7837379  26.7015133  15.8578911
   2.0998635  26.0500698  16.2245235  12.9863310  49.0709763  62.4496918
  12.2293739  49.1661644  63.0277786  12.6110344  49.0149269  61.5709190
  69.4025345  32.5476227  49.1831512  68.4780350  32.6080093  49.4237556
  69.4784241  33.0767479  48.3891106  46.3672600  11.8839531   4.6952095
  46.1228333  11.3050756   5.4172831  47.2823410  12.1067820   4.8661027
  71.0625381  23.9082012  48.8595238  70.7729874  22.9965305  48.8241844
  71.8923798  23.8776588  49.3356209  69.1313629  67.7793198  70.6273499
  68.8153305  67.9539642  69.7408676  68.9382172  68.5813446  71.1128311
  44.3279419  61.1622353  41.1778793  44.5513496  60.9158249  42.0754318
  45.1717834  61.3310394  40.7587547  32.8448181  66.9278336  73.8589096
  33.4610443  66.3533249  73.4045715  32.0090637  66.7806396  73.4161072
  23.1671886  10.3937674  85.5597229  24.0895691  10.3310642  85.8077393
  23.1831188  10.5487127  84.6152802  78.8568649  43.9496918  77.4780426
  79.1195679  44.8700867  77.4874115  77.9021759  43.9724274  77.5435181
  45.9090843  47.3832245  17.6374569  45.3475151  47.2797318  18.4056759
  45.6956444  46.6334686  17.0819950  16.5973377   9.8303165  78.8027191
  15.7552729  10.1183472  78.4503021  16.7538872   8.9827089  78.3864441
  37.7103653  34.0853729  62.0798569  38.6055679  34.4073105  61.9740219
  37.7710037  33.1465683  61.9032211  52.3916168   8.4138517  34.5563164
  52.9159431   7.7344580  34.9802704  52.6781502   9.2292099  34.9678001
  21.3076344  46.0864067  34.8630981  21.5352440  45.3664818  34.2747650
  20.8536777  46.7176132  34.3047676  64.6551514  53.7029686  55.6376724
  65.5874100  53.7253609  55.8535995  64.2613754  54.3636017  56.2075272
  62.9437485  53.0141563  20.0067616  61.9879990  53.0646896  19.9917336
  63.1797371  53.2103233  20.9134369  50.9795685  10.3777285  57.1056633
  51.4844704  10.1811190  57.8947449  50.0660858  10.2887735  57.3774605
  21.3523808  70.1792374  34.1611366  20.9575291  70.3266983  35.0205421
  20.6070461  70.0643768  33.5716324  69.4095001  26.1107521  86.3326035
  69.8883896  26.8830547  86.6333466  68.7572632  26.4557743  85.7228699
  79.6637344  65.1220779  22.7625084  79.7744522  65.7857666  23.4433060
  79.1802444  64.4165115  23.1922169  82.3221588   7.1498647  14.8657961
  81.4002228   7.3686428  15.0014229  82.3232269   6.5859156  14.0923672
  86.6263657  68.8931961  72.7312775  86.4498138  69.7495499  73.1207962
  86.2500992  68.9474792  71.8528137  70.9817429  34.2227097  77.8080750
  71.6929169  34.8170128  78.0473709  70.9166489  34.2981644  76.8560715
  12.9068136  63.4500618   8.4475527  13.8428164  63.6501160   8.4580250
  12.6154432  63.7130203   7.5745182  10.4446926  55.8101006  30.5660076
  11.2079592  55.5821190  31.0967426  10.4045401  56.7657700  30.6022987
  37.8020859  -0.3338622  80.2947311  38.4798279   0.2458947  80.6422577
  37.2100296   0.2482909  79.8184967  17.1851940  48.8052750  46.0155945
  16.2910500  49.0837517  46.2135620  17.1235008  47.8553658  45.9151001
  71.3324356  19.6755543  83.7601013  70.3872757  19.5396442  83.8266449
  71.5007782  20.4526291  84.2930603  62.6943588   5.4716654   2.1449826
  62.8176270   5.5603428   1.1999041  63.5818214   5.4016814   2.4967525
  25.9324570  13.8825445  82.1939240  25.1850300  14.4797888  82.2236633
  26.5435448  14.2938690  81.5826797  36.6605034  50.9996376  43.7044144
  37.4382820  50.5750237  44.0663490  36.8790588  51.9314995  43.6945572
   3.7344337  29.2967949  50.5863228   2.9269812  29.6747246  50.9347801
   4.3933482  29.9790134  50.7153244  81.2172165  31.1781940  19.7256622
  81.6696777  31.2046471  18.8825665  81.5761185  31.9194584  20.2134609
  64.8645859  22.0743618   8.6746225  65.1206894  21.3280659   9.2165489
  64.8053284  22.8067169   9.2881165  53.9380264  69.1983566  73.0627975
  53.7117882  69.9518967  73.6079788  54.7382851  68.8500137  73.4558334
  64.4908066  25.5073967  77.4907455  65.3304520  25.4194870  77.0396347
  64.7018738  25.9701138  78.3016510  15.3141260  42.4406395   3.6294074
  14.3857889  42.2454224   3.7571251  15.7344160  41.5822296   3.5772269
  47.1221962  59.9933434  47.8018913  47.4207001  59.1543045  47.4509773
  47.5740814  60.0761414  48.6416359  28.9294033  51.3123283  50.9914970
  28.9358902  50.3794899  51.2059746  28.3284855  51.7001801  51.6276588
  73.9585800  44.1862221  81.7686234  74.5691528  44.2024574  82.5056229
  74.1335983  44.9992065  81.2946472  19.0232868   5.6834502  24.9485016
  19.4510021   5.3226471  24.1718998  19.7408638   6.0345483  25.4758015
  47.9770088  27.7797146  25.4635258  48.0264168  27.0307999  24.8694572
  47.0407104  27.8960896  25.6248646  44.5436516  35.7274323   6.1110959
  45.0365295  35.5538826   5.3091083  43.9893951  34.9551582   6.2234511
  38.1998901  38.9090080  15.9062948  37.3118973  38.9156456  16.2635841
  38.0872765  38.6583176  14.9893961  79.7335663  49.2194939  85.5744476
  79.2405930  49.1305389  84.7587891  80.6184921  49.4542236  85.2950974
   0.6950989  31.7456360  62.2696724   0.9285431  32.6002235  62.6321831
   1.5275750  31.2777386  62.2041931  69.1914749  33.6957283  40.1409645
  70.0239334  34.1671486  40.1727180  69.2963104  33.0727196  39.4218674
   6.8829250  65.6431274  47.7848930   5.9446831  65.4560699  47.7542076
   6.9487052  66.4567871  48.2847710  36.1978531  60.2069550  35.7389183
  35.6032448  59.7482872  35.1453781  36.0269470  59.8182411  36.5967789
  81.3136749  70.0632553   4.5943742  80.3751144  69.8781967   4.6273222
  81.6144943  69.6338577   3.7935283  61.1313553  45.2740479  60.8791924
  60.5196266  45.9918633  60.7155914  61.2945709  45.3085823  61.8217430
  71.5688477   1.2129778  12.3882246  70.9317780   1.4537034  13.0608549
  72.3972321   1.1320145  12.8609400  37.5532150  49.6924324  22.8106499
  37.9028244  50.5562439  22.5919456  37.8510437  49.5332527  23.7063026
  83.3989639  10.2298288  85.1393356  83.9793015  10.6406231  85.7801895
  83.9900818   9.8572073  84.4851456  30.1304760  48.5945663  71.9513016
  30.2899513  48.0395584  71.1879120  29.2209606  48.8773079  71.8560562
  58.6879272   7.1469340   7.3211923  59.2752533   7.2066860   8.0746593
  58.2587166   6.2969556   7.4188919  74.9195786  56.6574478  73.0126572
  75.7846298  56.9164314  72.6950912  75.0990601  56.0183487  73.7022705
  54.1272583  68.1754150  65.4221878  54.0038528  69.1241379  65.3918991
  53.4876060  67.8711090  66.0659866   6.3438621   0.3298257  21.0725651
   6.1145382   0.8509426  20.3030987   7.1442776   0.7349819  21.4063549
  15.7033463  42.4672279  21.0641994  16.3550816  41.7736511  21.1663036
  15.0877924  42.3252258  21.7833385  61.3105621  19.7361965  78.9616089
  61.4535103  18.8809128  79.3669281  61.7322006  20.3565369  79.5562744
  23.2483425  18.7399025   2.9225702  24.0129604  18.2039318   3.1331081
  22.7441826  18.2069111   2.3077729  60.7746277  62.5626106  82.8589859
  59.9523964  62.3861923  83.3162003  60.8526955  61.8511353  82.2234192
  82.4408417  71.0346756  21.6529427  81.9377670  70.2436600  21.4594555
  82.3287430  71.1654892  22.5945129  32.1253929  30.6281967  11.6483116
  31.9208107  29.9749374  10.9792604  32.8272438  30.2311401  12.1640482
  42.0146408  53.2500496  47.3665390  41.8135490  53.2062531  48.3013535
  42.6622734  53.9510918  47.2934494  85.7285156  22.6708488  16.5903835
  86.3664398  21.9614449  16.5126972  86.0701141  23.3631668  16.0244846
  53.4120903  62.2099571  66.3672333  52.4697838  62.1066208  66.4999313
  53.7321358  62.5714874  67.1937332  57.9386024  60.7709351  13.5853081
  57.8263855  61.2642975  12.7727613  58.8190155  60.4008217  13.5211458
  76.2184906  55.7875404  35.4917755  77.0671692  56.2041016  35.6416130
  75.5789795  56.4279900  35.8033638  54.4165382   0.7418823  77.8103104
  53.7898788   0.9867343  77.1294479  54.1202087   1.2128776  78.5891495
  45.8503799   5.6572442  15.7671118  45.0816002   6.1524129  16.0499821
  45.8159294   4.8487239  16.2783260   3.3564260  69.8790665   4.2404308
   2.4264581  69.7091675   4.3905168   3.3881707  70.7861557   3.9364395
  50.9459190  57.6343536  82.3311157  50.4078865  57.8665886  81.5742645
  50.4330215  57.9212303  83.0866699   8.0627594  14.5443268  26.6463566
   7.1700697  14.6643677  26.9702797   8.5180492  15.3486948  26.8952255
  80.0484924  25.3933392  11.5080566  80.6158447  25.0315266  10.8272972
  79.4611893  25.9867973  11.0399542  31.4746895   0.0342320  83.5969467
  32.2047119   0.2358732  83.0115967  31.0500870   0.8783676  83.7498550
  18.8888435  37.0969849   0.8347150  18.6715412  37.4170151  -0.0408382
  19.7075977  37.5409164   1.0556182  78.7266235  52.1960106  36.1335869
  78.6641235  52.9906807  35.6036606  79.1548462  52.4797859  36.9412575
  85.8977814  20.8947105  33.1198578  86.2031174  21.3932877  33.8777657
  85.3381271  20.2128220  33.4914017  85.4848785  42.9323540  20.2185020
  85.6258163  43.5178757  19.4745064  85.0462799  42.1689949  19.8428020
  69.7769318  63.8232574  78.6913910  69.6038437  63.2607689  77.9364853
  68.9742355  63.7804031  79.2110672  84.7554855  38.5856094  75.0211334
  84.5232773  38.7431679  74.1059875  84.3154373  39.2853546  75.5037842
  61.9977951  21.2344761  34.0230026  61.4708252  21.4694843  33.2592583
  61.4977760  21.5642147  34.7696533  20.0412407  18.0606079  86.9238815
  19.8018017  17.1451588  87.0682831  20.0371189  18.1619835  85.9720764
  59.1564980  43.5954437  39.7588577  58.3668785  43.3947601  40.2613068
  59.8272667  43.0203171  40.1269989  65.7806473  43.5171013  85.0571060
  66.1526337  42.7521324  84.6181564  66.5061417  44.1392822  85.1099243
  57.6330948  48.8613396  35.9758263  57.8320808  47.9276581  35.9059906
  56.7091751  48.9280167  35.7346725  80.0634537  40.1102333  83.3645554
  79.1971207  40.2659950  82.9884720  79.8909912  39.8885384  84.2796173
  70.6547165   5.9572353  62.7786102  70.2185440   5.3853984  63.4102669
  71.5145187   6.1273479  63.1633720  49.5318413  51.4364624  54.1685638
  49.3462715  50.5231133  53.9504204  48.6694756  51.8335533  54.2905426
  52.7500076  55.2406883   5.8590927  52.4319420  55.4437408   6.7387719
  52.5530891  56.0246048   5.3463268  63.3705978  19.3097782  32.0037575
  64.2745285  19.4637642  32.2783890  62.8397102  19.6749554  32.7115936
  31.4981079  38.5856209   2.5898964  32.1484489  38.4192238   1.9075474
  32.0072556  38.6358871   3.3988912  21.0171986  52.6799393  42.7363548
  21.2171059  52.0505638  43.4292870  20.9765644  52.1527901  41.9384232
  82.0187683  34.1969261  16.1586437  82.8872681  34.0222092  15.7961397
  81.7436905  35.0121422  15.7391300  40.3076782  63.9594994  43.9359703
  39.7974854  64.6401367  43.4970245  39.9127884  63.1380577  43.6435165
  49.2322731  60.0552254  86.5536041  49.1712036  60.6089821  87.3319702
  49.0543709  60.6479912  85.8233871   5.2723198  33.6624794   1.0743628
   5.5313053  32.7847633   0.7936864   6.0419340  34.0055504   1.5284861
  22.8303890  29.7845497  14.3314266  23.0994358  29.0704651  13.7535601
  22.9346428  30.5743275  13.8007526  83.8425446  36.4014587  76.5813675
  84.2274780  37.0573196  76.0000763  84.5698166  35.8187561  76.7999191
  72.3029022  37.6303482  68.7409668  72.5458832  37.8784065  67.8489685
  72.9068146  38.1205864  69.2988129  21.9783401  17.0888481  46.5175056
  21.1090260  16.6887188  46.4969139  22.4712639  16.5586643  47.1437340
  80.8436813  14.8934908  56.5801964  80.1415482  14.5013180  57.0992661
  81.0589447  15.7038460  57.0419540  52.2213745   3.9436991  42.0986710
  52.2079964   4.3894548  42.9456406  52.5717354   4.5948520  41.4908257
  79.6704941  14.1666279   6.0599475  79.8309708  13.2637758   5.7854743
  78.7230072  14.2132940   6.1877451  21.3208275  62.5412216  72.1468964
  21.3942375  63.4954987  72.1609497  20.4656200  62.3725891  71.7514114
   5.1233501  36.1912003  44.3431358   6.0380621  36.0341377  44.5773697
   4.7403250  35.3167229  44.2737579  84.2157288  40.6243896  23.8899403
  84.5063553  39.8112526  24.3029423  83.2743683  40.6564522  24.0603828
  56.8864288  21.8968163  87.4024811  56.0820694  22.0164146  87.9073944
  57.5256195  21.5814495  88.0413971  76.1581802  44.7888451  83.6112061
  76.2784271  45.2791481  84.4244537  76.8255234  44.1034126  83.6438675
  19.1411362  51.1740074  13.3749409  18.8946419  50.3423347  12.9702282
  19.2141266  50.9739151  14.3081436  28.9421368  52.4575310  28.7434731
  28.2443409  52.2108421  29.3504791  28.4824715  52.7578163  27.9594021
  67.5577087  57.7547569  81.7271957  67.4532394  58.6147804  82.1342316
  68.4140549  57.7937698  81.3013153  72.2265625  42.9194107  54.5647316
  72.4773560  42.3521729  53.8356400  72.7754669  42.6296616  55.2934151
  34.2677803  46.4011765   4.2213569  33.4757729  46.5751228   4.7299805
  34.9810867  46.7282715   4.7694750   3.9775596  32.8453140  48.7709312
   4.8606782  33.0346756  49.0879097   4.1095839  32.2392693  48.0418854
  44.2554169  68.5808029  11.0642948  44.3320312  68.1944962  11.9367228
  43.6317482  68.0170441  10.6066494  36.4458923  29.1841011  86.1547165
  35.5583496  29.5386906  86.1021576  36.8840141  29.5181465  85.3719711
  84.5895920  64.5159836  38.0743332  84.4222717  64.6206360  37.1376991
  84.0192947  63.7947273  38.3403931  66.9158173  51.4405174   5.6580906
  67.6082153  50.8481979   5.9512892  67.3058929  51.9226532   4.9289718
  45.7607727  69.1034775  35.2495766  46.6799431  68.9954681  35.0052490
  45.3301353  69.3862381  34.4428368  13.4732103  54.7216454  56.7432289
  13.1986504  54.0474052  56.1217384  13.8635168  54.2340965  57.4686203
  57.9844704  11.7197094  12.5881147  58.2686806  11.3574657  13.4273033
  58.7450027  12.2036877  12.2662649   4.4588017  27.6286736  85.9571457
   4.9053478  28.3082523  85.4521713   5.1653786  27.1446362  86.3845673
  55.0757179  38.4530449  49.9311028  54.3049088  38.9136276  49.5995140
  55.3359184  37.8746223  49.2141953  26.0336800  63.9340477  62.3247719
  25.1689129  63.5237122  62.3308525  26.1899796  64.1768875  63.2373695
  61.6909981  58.2187538  88.1070404  62.2413750  57.4730225  88.3462219
  62.2759171  58.9746437  88.1593170  17.9455776  65.9227829  77.7083054
  17.1282177  66.3520966  77.9609756  18.0068398  65.1639328  78.2885056
  79.3220444  11.3143806  40.6517906  78.6682892  10.7744274  41.0959549
  80.0295105  11.4072552  41.2898369  11.5182438  34.3074646  88.0793762
  11.3126383  34.9740334  88.7348480  11.1691132  33.4951706  88.4461517
  19.1299191  15.9131088  13.2827559  18.6673965  15.2836256  12.7295332
  18.6918697  15.8530617  14.1317196  79.3826065  47.2512398  80.6320267
  79.9291916  48.0030518  80.4034424  79.9393463  46.4907379  80.4649506
  51.2307587  26.0791016  12.7683392  51.5484734  26.9806519  12.7183771
  50.9054337  25.8906689  11.8880615  14.8454056  46.9508743  62.5145645
  13.9711628  47.3256721  62.4075241  15.2837095  47.5375862  63.1309204
  16.1316452  18.1726017   6.6282420  16.4307880  18.2754498   5.7248220
  15.4466057  17.5058517   6.5792732  45.3566818  69.4752197  68.1108475
  45.3536720  68.8492203  68.8349609  46.2475281  69.4348068  67.7630081
  70.0601273  13.4304962  84.7177963  70.9174194  13.8144131  84.9018784
  70.1008224  12.5564098  85.1058044  62.7109604  52.9944496  34.1386528
  63.3912430  53.6364403  34.3418579  62.5542068  52.5412369  34.9670601
  77.7154617  65.1919785  40.0100174  78.4429321  65.4221497  40.5879860
  77.0137482  65.7944794  40.2566299   7.3956652  69.7307434  16.6778107
   6.9061480  69.7761230  15.8565025   6.7475586  69.4604721  17.3283043
  70.2701645  59.3839684  49.3064995  70.3529587  59.8514748  48.4753456
  70.3824081  58.4620094  49.0749283  58.1615829  15.3858929  87.3854675
  57.7827187  15.2324610  88.2509995  57.9824333  16.3088512  87.2057800
  70.6952057  53.2270813   8.5820665  70.2440796  53.8084221   7.9698892
  70.6756287  53.6960106   9.4163036  11.2259102   8.0591269  85.8452835
  11.3774261   7.4083982  85.1598434  10.9130325   7.5505571  86.5934143
  72.6097488  62.5156174  80.4502640  71.9991760  61.8046074  80.2556076
  72.5989685  63.0623970  79.6646805  12.4161510  50.6861572   5.1507988
  13.1562977  50.3476639   4.6469755  11.8947802  51.1732101   4.5126901
  62.9734726  53.2661476  53.5658951  63.5245094  53.3664474  54.3421211
  62.1845322  53.7700996  53.7654877  18.7440510  55.6588516  24.0336876
  18.1059856  55.8896332  24.7088490  18.3040695  54.9922256  23.5061817
  76.4252930  13.9107246  32.5724640  76.3080750  14.7699785  32.9776535
  76.5740128  14.1009722  31.6462269  63.9041138  45.1655388  61.9262352
  63.1132126  45.4674187  61.4794884  64.5359344  45.0194893  61.2221718
  14.3182564  60.9537697  76.1829071  13.4966965  61.3625565  75.9105759
  14.6837978  60.5902824  75.3763733  64.4581451  21.8644981  29.9382114
  64.6559906  22.7730160  29.7108746  64.6755142  21.7974720  30.8679924
  61.1093445  33.0683250  24.9463215  61.3104362  33.9529228  25.2517433
  60.9387856  33.1711845  24.0100727  36.9771805  40.4621887  26.9683323
  36.6221924  40.6461182  27.8380356  36.9252930  39.5100403  26.8849106
  64.0588150  53.1634903  13.9351511  63.7034607  52.3383675  13.6048021
  64.2496414  53.6741600  13.1483641  80.3698349  68.8698425  20.9880657
  80.5160599  68.0788269  21.5068569  79.7347107  68.6056976  20.3224201
  70.0540009  57.4481430  78.1466370  69.1197739  57.3148804  77.9863586
  70.3306580  56.6622543  78.6178894  19.5895805  50.4042778  35.8662529
  20.3433704  50.3135490  36.4491768  19.6126404  49.6180534  35.3207664
   1.4202749  67.4068527  21.6814823   0.6827561  67.1111145  22.2151833
   1.0873849  67.3928528  20.7841415  16.0992012  10.3378220   1.3451387
  15.6635227  11.1833296   1.2377498  16.6073933  10.4308805   2.1509385
  74.1173782  36.9300842  28.7777348  74.7449112  36.2147865  28.8815918
  73.3804779  36.6853867  29.3374958  85.9286880  62.1486931  87.7787857
  86.6618576  62.6661224  88.1118851  85.1607361  62.5075150  88.2234497
  56.9190712  50.6809006  62.9547806  56.7667503  50.0321236  63.6418877
  56.3844070  51.4320793  63.2118645  46.4764900  43.1642303  51.6951294
  47.3670769  43.4763298  51.8553658  45.9140244  43.8604736  52.0344048
  45.2815056  37.2018623  18.0393982  44.3915253  36.8494873  18.0401325
  45.3299942  37.7316704  18.8351288  37.9222870   3.1073904  46.0754128
  37.8085861   3.7487388  46.7768211  37.0485992   3.0088937  45.6969910
  13.1884766  36.1297798  57.3900223  13.0262814  35.3344650  57.8973656
  13.9494286  35.9179611  56.8493614   6.4878244  66.0949173  88.2342834
   5.9688621  66.8366547  87.9232635   7.3212166  66.4815750  88.5029526
  43.0591927  25.4347458  67.8811340  43.1809616  24.7735195  68.5624466
  43.9362602  25.5755806  67.5245590  81.7695389   8.5548220  55.9065285
  81.6845093   7.7078910  56.3443756  82.5898895   8.9165125  56.2418404
  48.4049149  51.2581177  18.6560955  47.5097847  50.9320869  18.5629330
  48.4814224  51.4865379  19.5824871  83.3946152  26.5875511  21.6799183
  83.1550980  27.5074234  21.7926140  84.2686310  26.5188274  22.0641117
  62.0438805  30.8540745   6.7847800  61.3495407  30.9197311   7.4403801
  61.6020699  30.5309486   5.9995255   2.6299193  55.8843689  19.0564270
   1.7882035  55.4315300  19.0046425   2.8839400  55.8132591  19.9765625
  37.9661026  68.2842941  59.1181145  37.7582512  69.1293945  58.7195740
  38.6021080  68.4922256  59.8025780  72.2094650  56.4296761  43.5649185
  72.1789780  55.4949493  43.7688522  71.6583481  56.5234032  42.7879295
  58.3769684  41.4326859  52.1688576  58.8162041  40.6295586  52.4486618
  57.6089859  41.1294327  51.6846390  82.0296326  10.9527721  54.1472778
  82.9559937  11.1290369  54.3116417  81.8556442  10.1338272  54.6112709
  39.8227196   4.1608248  69.0181580  39.1441154   3.8366573  69.6103134
  40.0561638   3.4021695  68.4832001   3.0739853   4.8329725  26.5278950
   3.7697601   5.3956966  26.1880856   2.9886646   4.1373520  25.8759270
  65.9961548  70.9830704  74.3147736  66.2672195  70.6719208  75.1784515
  65.1911774  70.5000305  74.1279373  15.0580969  30.0429039  77.0284653
  15.9987326  30.0751705  76.8541183  14.9936285  29.7837524  77.9476624
  23.5909958  15.5327291  72.1053009  23.0052414  16.2791309  71.9787827
  24.4620132  15.8750696  71.9043884  29.9972782  63.0734520  44.9415245
  30.8488178  62.6370010  44.9665108  30.1154747  63.7939072  44.3224869
   1.7085742  40.7066727  74.0155334   1.0730001  40.9381599  74.6927948
   2.5548248  40.7333794  74.4620514  49.2781219  42.8778572  55.6239204
  50.1812744  42.8906898  55.3070831  49.2030182  43.6636925  56.1652641
  78.0135727  17.7367077  52.2558289  78.5404434  17.0210762  52.6115112
  77.2915573  17.8340702  52.8766670  77.3158569  64.2791672  64.8233032
  78.1286392  63.7866211  64.7092285  77.5964584  65.1290512  65.1627274
  25.5159473  39.8378296  66.8949356  25.5477257  40.2089272  67.7767029
  24.7703857  40.2711182  66.4794540  65.3315811  63.9566231  27.2167778
  64.8328094  64.7677460  27.1191616  65.9030762  64.1158066  27.9679680
  76.6248932  18.4592724  54.3739243  75.9507217  19.1384411  54.3954086
  77.4323578  18.9157543  54.6102600  30.7349739   1.8261293  86.8348923
  30.9234009   2.2951031  86.0220032  31.1351166   2.3626375  87.5192032
  52.6491432  46.2511597  47.4856987  52.9867325  47.1022682  47.7647705
  51.7508430  46.4293976  47.2072678  49.3269501   1.7734551  20.1232529
  48.3938026   1.7954549  20.3353367  49.6432114   0.9608511  20.5180759
  84.5034637  50.2964821  18.8313808  84.2843781  50.0375862  17.9362774
  85.4458160  50.1436996  18.9010525  24.5974579  46.8294182  87.0901947
  24.9950676  47.4731903  87.6764450  24.9442329  47.0470390  86.2249680
  24.7557163   7.3209391  14.1403513  25.0172062   7.4090681  15.0569143
  25.3034401   7.9518790  13.6732922  32.4603195   8.3305836   7.4850945
  31.6310596   8.8059063   7.4337897  32.2731209   7.5829411   8.0527391
  68.0236664  67.0620499  14.8232927  67.9616623  66.7515564  13.9199753
  67.1218567  67.2703705  15.0673828  80.8184509  34.4381752  12.7501421
  80.4639282  33.6116714  13.0779209  80.1702728  34.7414818  12.1144466
  53.9623032  24.2612972  19.8229046  53.5767212  23.6077271  19.2394619
  53.7703590  25.0999260  19.4032707  86.5921555  53.3856316  76.7071075
  86.4077148  53.2603455  75.7762375  87.1248398  52.6282768  76.9497833
  23.4754372  67.1363297  48.3619347  23.8011703  67.4056702  49.2207603
  24.2557831  67.1064072  47.8084030  32.3364639  37.2518730  63.9682465
  31.5030022  37.6041946  63.6560860  32.6625443  36.7256775  63.2381630
  63.7245445  65.3187485   7.9130692  63.3129807  66.0117569   8.4293909
  63.6722221  65.6301041   7.0094361  52.8930016   5.0235395  44.7933540
  52.0452538   5.4050603  45.0213814  53.5075073   5.7554069  44.8480034
  17.7704620  60.6024704  40.3146095  17.9421501  61.5211334  40.5215149
  18.3737850  60.4012756  39.5992393   9.1069269   8.2668600  23.4764881
   9.5448799   8.3415070  24.3243408   9.2218685   7.3497982  23.2274551
  71.3542938  67.9181290   5.8066440  71.7981720  67.2066269   5.3451676
  70.9477692  68.4369354   5.1125188  74.2463303  45.7168579  32.6127930
  73.5347366  46.0905685  32.0929756  74.6455612  45.0639114  32.0378990
   0.4508671   8.4792662  80.1839676   1.1269742   8.9035139  80.7122955
   0.6590131   8.7284918  79.2835312  46.9731407  29.1362629  12.1585293
  47.1949348  29.3404198  11.2500372  47.8132591  28.9350204  12.5707617
  37.2777214  48.4100571  64.9666748  37.6199913  47.5165520  64.9938049
  37.8345947  48.8606873  64.3318100  86.3802948   8.1438551  57.4946022
  85.7154770   8.0890665  58.1810684  87.1549911   8.4889383  57.9384422
  86.6402893  66.6142731  61.8013268  86.5339661  66.2680130  62.6873474
  86.8139038  65.8428268  61.2619247  56.9710999  16.6578083  15.9717302
  57.3275032  15.7721367  15.9024754  56.0396423  16.5571785  15.7755327
  54.2666855  48.2197304  18.4712296  53.3217010  48.2383270  18.3199368
  54.4095993  48.8557892  19.1721134  36.5077248  59.5327377  87.1800079
  35.6673965  59.5856133  87.6352921  36.2976952  59.1352425  86.3349533
  25.7793674  34.5485611  50.1656532  26.5245285  34.4710236  49.5698700
  25.0162525  34.3550377  49.6211929  72.5983887  27.8217716   3.4105523
  73.1805954  28.3827038   2.8980894  72.1491318  28.4225330   4.0051007
  48.6725578  51.5967712  21.3462505  48.2018738  51.9059563  22.1202583
  49.2731171  50.9309311  21.6812382  45.9377556  48.4566078  53.7321777
  46.3585014  49.3055763  53.8680496  46.3513031  48.1080017  52.9424400
  37.3264694  19.3325882   8.7108049  37.2967072  18.7272129   9.4516611
  37.1630554  18.7821064   7.9449725   0.9244455  70.4277878  53.1868591
   0.1208518  70.7222824  53.6155090   1.1715728  69.6337509  53.6608467
  65.7690887  61.7405853  31.0496941  65.1883698  61.7160301  31.8102131
  65.7292557  62.6478271  30.7471180   5.8900189   9.5501556  15.5953045
   6.3750014   9.4689636  16.4165421   4.9752584   9.4157743  15.8430672
  38.7278061  66.6534882   5.3875060  38.6125679  66.5537109   4.4425206
  38.0354156  66.1154480   5.7713566  64.9004898  10.4200487  30.6812248
  64.1042404  10.0662231  30.2849693  65.5059738  10.5269861  29.9476147
   9.9826975  26.3080578  68.6369781  10.7942810  26.5894794  68.2146454
   9.3186035  26.3796291  67.9513474  32.2915497  60.9485397  10.8275671
  32.1562119  60.3051338  11.5232258  31.6137085  60.7492218  10.1817856
  60.6228142  61.6705093  70.4879608  60.5636482  62.6212006  70.5823669
  59.9761925  61.3278427  71.1049576  44.8537254  19.0223503  69.0812149
  44.4886398  19.8072929  68.6727905  44.3568344  18.2996502  68.6977615
  38.5105247  45.6945915  68.4983368  38.8528442  44.9434128  68.0137939
  38.7462387  45.5195351  69.4093933  42.6298599  60.8792686  29.2017937
  42.8492775  61.1548882  30.0918045  43.1645966  60.0992546  29.0539265
  16.2063313  20.8439293   7.2260075  16.8687859  21.0478554   6.5658550
  16.1214523  19.8910465   7.1937656  73.6450806  36.1666794  83.7339783
  73.4178314  37.0703735  83.5150757  72.9405899  35.8761368  84.3132095
  25.3458786  63.9854851  42.8395576  24.8296452  63.7135735  42.0807419
  26.2440529  63.7386932  42.6190834  21.8724804  21.5963955  43.8704338
  22.6589432  21.8574982  43.3913383  21.9605045  20.6492596  43.9772797
  11.3527651  41.3712234  52.5710869  11.0426111  40.7703323  53.2485619
  10.8947258  41.0944252  51.7774811  18.5069122   0.0793518  50.5960007
  18.1465073   0.2919765  49.7351112  18.3509350   0.8641021  51.1214256
   5.0529070   8.6142788  65.0064011   5.4089894   8.3508139  65.8549423
   5.6574163   9.2861567  64.6911545  84.4196091  63.2967949  22.2933884
  83.4848557  63.3566437  22.4905567  84.8277206  63.9434776  22.8691330
  85.1206970   0.4449944  27.3153725  84.5450897   1.1504896  27.6106434
  86.0042877   0.7643270  27.4984493  59.4713287  57.4243355   8.7263412
  59.1634712  56.5832710   9.0640783  59.0823364  58.0742950   9.3115463
  81.4225922  38.9278831  25.9192715  81.9753571  38.9693413  26.6996346
  80.5276794  38.9422379  26.2586269  22.4306107  66.0890884  56.4340057
  21.9010830  65.7659531  57.1629906  22.5993271  67.0065079  56.6487236
  72.6019440  40.4013977  81.7850266  71.9724579  40.6532059  81.1093216
  72.7755203  39.4751091  81.6174088  12.1964874  62.3749237  63.6918182
  11.3096228  62.4229698  64.0487442  12.6279507  61.6976395  64.2127380
  76.1715012  22.5728264  77.0660324  76.3728409  21.7317200  76.6558685
  75.8752136  22.3447800  77.9471893   4.0002770  35.4438057  57.3297424
   4.4393020  36.2042389  56.9486542   4.6397643  35.0799751  57.9420471
   5.0906096  46.7531204  78.1021729   4.6853561  47.5235100  78.5002975
   5.9985819  47.0133629  77.9469604  73.8798065  64.6787796  86.8257828
  73.6098404  64.5368042  87.7330856  73.3279572  65.3993301  86.5216522
  37.8233910  61.4557495  28.0766716  38.4847107  60.7693253  28.1644783
  38.3256874  62.2509117  27.8987827  16.1464767  42.0382652  43.5693817
  15.7694740  41.3910866  44.1654205  16.1588383  41.6011276  42.7179184
  48.9118919  23.5440483  85.8959579  48.1284599  24.0403252  85.6589508
  48.6640396  23.0698490  86.6896362  71.5765305  42.1369133  79.3555527
  70.7204285  41.8104820  79.0784912  72.1676636  41.8936348  78.6430817
  69.6196823  12.8985329  81.7364044  70.3993378  13.2976875  81.3503418
  69.7097778  13.0570393  82.6760788  80.1783524  32.3844719  63.6621056
  79.5269699  31.7089748  63.8508835  79.6764526  33.0974922  63.2672234
  28.4659824  30.7944622  13.2415676  28.6797390  31.5054054  12.6373348
  28.9551258  30.0420170  12.9087048  32.0029297  56.8622360  28.9087658
  31.9779243  56.8767395  29.8655300  31.4439144  56.1242256  28.6657219
  55.2682114  23.5243473   2.3604198  54.8210030  23.3865719   3.1954389
  55.4510002  24.4636822   2.3387449   7.2461123  41.6346054  83.7930756
   7.4080486  40.9501228  83.1438522   6.5862803  41.2599716  84.3766022
  17.0502071  32.2848701  20.9425793  16.7504711  31.6169777  20.3258877
  18.0045052  32.2114677  20.9300079  28.3074379  66.7943115  40.4611359
  27.5445309  66.3130722  40.7814674  28.0401707  67.1230698  39.6028099
  10.4478493  59.4140625  68.6878662  10.3364487  59.7212715  69.5875549
  10.8153658  58.5349121  68.7787476  72.8651733   1.8999640  68.0575256
  71.9856949   2.1686447  68.3231506  72.7419815   1.4896834  67.2015381
  72.7655334  55.9294090  71.2186279  73.5210648  56.1920662  71.7443771
  72.5388260  55.0580902  71.5436401  86.1268692   0.0930910  73.8186569
  85.7902222  -0.0750395  74.6987915  86.7705231   0.7914817  73.9377823
  25.4184513  24.9196167  83.3054123  25.6761627  24.1868591  83.8647690
  24.4994297  24.7507591  83.0977631  85.9392395  59.4345856  49.8107338
  85.0939789  59.6694565  49.4278526  86.3350906  58.8417320  49.1719398
   4.1435399  24.2496662  49.2999191   3.6716988  23.4187832  49.3567886
   3.6850159  24.7392387  48.6170540  54.6868210  46.3426666   0.3121115
  55.0809669  45.4713211   0.2716179  55.4071045  46.9408417   0.1130827
  62.3223610  18.9041595  37.2993164  63.1619110  19.3532104  37.2006264
  62.5184975  18.1486969  37.8534279  26.8327656  54.7488670   1.3471472
  27.3065567  55.4385185   0.8822444  26.1507683  55.2125397   1.8330719
  24.2552013  10.3853436  66.1928558  23.3619976  10.2472401  66.5080490
  24.6787682  10.8902559  66.8870316  84.6079025  51.0010071  73.3958511
  85.4235611  51.2674103  72.9716263  84.4275055  50.1299362  73.0424042
  34.9433708  60.1246567  38.2962494  34.3253174  60.7629852  37.9401894
  34.4893532  59.7457428  39.0489273  65.0459824  53.6024132  88.5198669
  65.0343399  53.1012650  87.7044296  65.8137741  54.1686897  88.4420395
  73.2574081  35.6254616  78.3383102  74.0239792  35.2388077  78.7615051
  73.4852905  35.6530914  77.4090424  72.7254562  20.6063080  88.7129822
  72.0896835  21.3129807  88.6005630  72.8627243  20.5558605  89.6589432
   4.3341842   2.8080056  78.4909286   5.0949020   3.2728581  78.1424255
   4.3969550   2.9229553  79.4391251  25.6629848  42.7330513  54.8193741
  26.4741306  43.1967010  54.6112862  24.9909630  43.4146767  54.8202858
   9.3751431  59.9419861  35.8798409   8.4371634  59.9378433  36.0706520
   9.4804478  60.6182709  35.2106781  23.2364159  63.4862099  58.5039520
  24.0063457  64.0142593  58.7151413  22.4961300  64.0066223  58.8160095
   0.9034108  50.8981705  68.9205551   1.6758153  51.4616623  68.8747101
   0.8444247  50.5014572  68.0514374  80.4259491  35.2070084  50.9938927
  80.2654495  35.9444084  50.4050713  79.7367325  35.2737961  51.6547585
  82.6555862  41.2556267  58.9257812  82.3809967  41.7642746  58.1628227
  83.1479416  41.8763657  59.4629059   7.1116767  39.9134636  81.5784531
   6.2723637  39.4922256  81.3931274   7.0165052  40.8002510  81.2309113
  49.8047180  57.0385094  75.4569855  49.0470963  56.5071259  75.2122879
  50.3737488  56.4373245  75.9376221  21.2383614  46.1499329  59.2366600
  20.6074600  46.2891464  58.5303955  22.0805054  46.4037247  58.8590164
  20.2921391  31.3469124  63.4139977  19.8798294  32.2107086  63.4045944
  19.7712059  30.8261948  62.8026772  45.8777542  71.6137695  43.6081429
  45.0437164  71.9161377  43.9675560  45.7180748  70.7011795  43.3674812
  77.3818893  32.0782509  21.9917889  76.9251633  31.9535580  21.1598740
  76.9183121  32.8018188  22.4134254  14.0699291  42.5095100  64.2385406
  14.5563183  42.2797165  63.4468040  14.3744507  41.8845978  64.8965607
   3.1669817  32.9478188  84.6549683   2.7180426  32.9970589  85.4989243
   2.4612348  32.8806686  84.0118179  28.2638931   3.1063812  55.9575691
  27.8821125   2.8621089  55.1144753  27.8606682   3.9485984  56.1680717
  56.1742516   7.4846992  17.7847099  56.8898544   7.9574790  18.2097015
  56.5301247   6.6121402  17.6167068  48.7596512  45.8171654  38.0261421
  48.3224754  46.3346252  37.3498726  48.1412506  45.8064156  38.7566872
  43.4546623  52.0322227   3.1755435  43.5814781  51.1398544   3.4977663
  42.5402107  52.2316246   3.3761542  77.4564972  60.7161179  75.5703278
  77.6426697  59.7773628  75.5525513  76.8249130  60.8216095  76.2818069
  67.3516464  27.4316387  19.4160461  66.9589539  28.2337589  19.0716228
  68.2527847  27.6770248  19.6257286  43.0456810  43.9005852  84.9278793
  42.1716042  43.5167885  84.9980774  43.4013596  43.5393829  84.1159363
  58.7882919  11.8545427  66.0560303  58.9308929  12.7501659  65.7498322
  58.0752144  11.9289227  66.6902390  33.4877281  65.0690842  47.5301323
  33.0885124  64.6585464  46.7631149  32.8471260  64.9427643  48.2300644
  45.5013809   4.7746959  20.2143116  46.1478767   4.8833747  20.9117813
  45.2060204   5.6643753  20.0207539  55.3454132  59.1274109  40.4624290
  54.7367439  59.8018723  40.1610146  54.8895340  58.7001572  41.1875916
  56.4129982  44.9034843  63.0437317  56.1058044  45.1511917  62.1716614
  57.0378799  44.1958694  62.8855095  62.6846848  51.4450874  27.6788254
  63.0374222  50.6304092  28.0367489  63.4186249  51.8359871  27.2047348
  39.8472061  53.9951439  68.9520798  40.4414825  54.7288170  69.1095352
  40.2740135  53.4846077  68.2640228  49.1243515  38.2978096  66.3689651
  48.3436127  38.4062119  66.9120407  49.2209930  37.3501587  66.2749100
   4.3881202  46.3340111  49.1479073   3.4859085  46.6373482  49.2490654
   4.4843707  46.1777725  48.2084618  69.2054749  53.5363159  22.1878986
  69.0516510  54.4679565  22.0310173  68.4200287  53.1040726  21.8525257
  17.4913788  65.5111618  48.8663826  18.2785950  65.2233658  48.4041100
  16.8205853  64.8761368  48.6153603  74.5741806  40.0671310  51.5529480
  75.4483566  39.6774979  51.5375938  74.3142014  40.0359497  52.4736366
  78.0041428  24.5116215  36.1672821  78.6348724  24.6887970  36.8651543
  78.3962860  24.9006996  35.3855705  59.3300858  26.5737305  64.6876297
  59.1024208  26.9030666  65.5570755  58.9361649  27.2023125  64.0826950
  61.0067902  24.8922672  61.5065002  61.9556732  25.0127716  61.5429611
  60.7587128  24.6715298  62.4042587  42.4425774  17.5950432   7.6331034
  42.7997932  18.4268227   7.9441833  41.5284462  17.7893944   7.4261589
   6.3805871  15.7955027  71.0602417   6.8770928  16.5344067  71.4120026
   5.5527244  16.1791992  70.7710190  56.2372856  41.6352730  31.7511673
  55.9410591  42.0750809  32.5480690  56.8203621  40.9428749  32.0623512
  65.5554047  15.2172022   5.1480546  65.4544830  16.0883274   4.7644053
  66.1075211  14.7438841   4.5256672  10.9153872  45.8541527  36.7311478
  11.7964411  46.1977234  36.5830421  10.7890959  45.2102890  36.0342064
  57.1085587  61.4452744  40.0424385  57.7270927  61.2980118  39.3269272
  56.5965118  60.6377411  40.0864067  56.3884430  29.4113464  22.7788105
  55.8436356  28.7707348  22.3216114  55.7847595  30.1169930  23.0108910
  49.7527008  41.6569939  33.3739243  48.8312988  41.7705078  33.1407661
  49.8169289  41.9940796  34.2675018  46.6398163  25.2792072  79.5289078
  46.1581421  24.8779392  80.2522354  46.4876328  26.2186184  79.6317520
  74.3713303  47.6541710  73.3056183  74.4537048  47.4153328  72.3823624
  74.0388794  46.8626900  73.7290268  71.7319107  21.9299679  58.4063416
  72.1273956  22.4290123  57.6916580  72.4308853  21.8452950  59.0547981
  83.3516235  15.7772951  85.0692825  82.4859924  15.5426197  85.4037094
  83.5781021  15.0656118  84.4705811  74.1902084  22.3189583  56.3913689
  75.0567551  21.9208870  56.4741745  74.1894608  23.0272160  57.0352631
  31.4388065  70.2970428  13.6016970  30.5581722  70.0873184  13.2906799
  32.0182838  69.9927902  12.9032202  69.6717834  52.0911140  31.8689632
  69.0073700  52.6051712  32.3277893  70.4505005  52.6477280  31.8733101
   4.4493594  41.7197990  26.1211967   4.3039365  41.3026886  26.9703751
   5.3998637  41.7090073  26.0086937   7.4270644  42.6812973   0.1932724
   8.0658751  42.1355934  -0.2653753   7.9321809  43.4337082   0.5014382
  44.6570244  68.2568893  15.7290373  45.5410538  67.9766312  15.4920092
  44.2027359  67.4466324  15.9599752  10.0798359  39.1327553  75.6597290
   9.4331512  38.9120178  76.3300323   9.5584364  39.3731537  74.8938446
  21.7186146   6.7977624  59.4394150  22.6128426   6.7782884  59.7803116
  21.7939377   7.2415509  58.5946617  86.8896713   9.1539135  40.8245773
  86.1340485   8.6745958  41.1644669  86.5397797   9.6676044  40.0966148
  49.5329170  60.5944748  13.7716007  50.0073204  59.9849815  14.3370113
  49.3353386  60.0867424  12.9845791  39.0140305  61.7396317  43.5305328
  38.5970650  61.0206413  44.0053177  38.9785919  61.4725227  42.6120415
  83.9993896  64.6718063  59.2448196  83.1557693  64.9737549  59.5815125
  84.5168076  64.4847412  60.0280991  57.1085892  55.9739304  65.7564011
  56.4609032  55.6215668  65.1460114  56.7013206  56.7661133  66.1068420
  45.8076210   3.2316792  44.8500175  46.6270370   3.3097219  44.3614426
  45.3644981   4.0684543  44.7097359  34.3395119  58.4251060  19.2611580
  34.6622353  59.2837677  19.5346165  33.9116249  58.5867119  18.4203091
  51.8574371  67.2080994  25.6351185  52.6667824  67.1186447  26.1382961
  52.1474609  67.4542694  24.7567596  80.8546448  44.8703270  31.9985027
  80.1923599  44.2095490  32.2009544  80.8944321  45.4176865  32.7827492
  76.1441727  33.2224693  17.0154095  76.7904968  32.9686584  16.3565655
  76.2908401  32.6156731  17.7410259  55.5393829  40.4840622  15.2508812
  55.5359077  41.0377464  14.4700775  54.9518318  39.7602463  15.0338449
  15.0661430  70.8689423  86.1561050  14.4642038  71.3144073  86.7523117
  15.0498323  71.3988724  85.3591537  65.7467270  69.0233078  71.0831833
  65.9745407  68.2936859  70.5069962  66.5490189  69.5421295  71.1413040
  53.3980408  55.3326302  55.0667725  52.9872055  54.8058777  54.3812218
  53.6883583  56.1263390  54.6173592  81.2555084  63.2344017  11.1848793
  80.4882202  63.2439384  10.6126814  80.9781494  62.7290840  11.9490509
  77.0859528  58.4637947  67.9357224  76.3812485  59.0714455  67.7112732
  77.8053131  58.7052383  67.3522339  37.8719788  67.6171799  37.9084015
  37.5769386  68.4142151  37.4680405  37.1804771  67.4231720  38.5411911
   4.5899277  40.7660370  34.6008911   4.4776559  41.7125053  34.5124207
   5.5381374  40.6354561  34.5919991   9.2127466  27.7374306   1.4977298
   9.6605949  28.2124329   2.1977568   8.8714266  26.9505043   1.9225570
  63.3508759   4.7487049  55.6247902  63.4111824   4.6862311  54.6715355
  63.4611015   5.6810932  55.8111610  62.5495644  11.0718040  60.7547150
  61.6054726  11.1181231  60.6037865  62.9320488  11.5742855  60.0353737
  26.7819080  57.2983131  37.0982399  26.7148952  58.2313805  36.8954430
  26.5816402  56.8586273  36.2719193  43.1060829  48.7745399  31.5528107
  42.1633377  48.8189240  31.7124786  43.2278252  47.9620247  31.0616608
  63.0964851  66.1418991  47.0842552  63.6489029  66.8784180  46.8223267
  62.2260399  66.5237045  47.1973267  47.9320679  21.1825409  12.5171585
  47.6072884  21.8609009  11.9250650  48.5528412  20.6807156  11.9889088
  40.5004311  44.5476646   9.4961662  40.9289970  45.2917328   9.9191618
  40.7337914  44.6307602   8.5715742  53.4841423  22.0074596  83.1675415
  53.3752556  22.1799259  84.1027603  54.4295998  22.0507641  83.0244904
  86.3657990  35.2231255  76.9049301  86.4259415  34.4567680  77.4752884
  86.6810760  35.9483871  77.4442139  70.2886200  40.8696213   8.6689978
  69.8069305  41.1500320   9.4471874  71.1247025  40.5491829   9.0073843
  82.9951706  61.1351929  76.9784164  83.0144043  60.2441368  76.6292953
  83.9116058  61.3392258  77.1648254  70.1120300   0.6518031  10.0845461
  70.5360260   0.8208598  10.9259024  70.8010254   0.2683295   9.5418968
   7.3407817  30.9056644  47.6362648   7.6956325  30.8072987  46.7527313
   6.3922982  30.8474159  47.5212975   0.4340205  15.5965204  61.6094627
   1.1121993  15.0041103  61.9340515  -0.3890120  15.1897764  61.8804054
  20.5454559  17.5894814  84.2382736  21.1462727  18.0277042  83.6355972
  20.0167675  17.0210361  83.6782761  60.0299416  42.5122299  26.6957874
  60.5159760  42.5642738  27.5187664  59.1585846  42.8450165  26.9107761
   4.9742818  12.0948992  30.8196239   5.3619599  11.2268343  30.7082634
   4.5544052  12.0612192  31.6791592  33.9877357  36.3647995  73.6446609
  34.1642723  36.8105774  74.4731293  33.0386772  36.2404671  73.6370697
  15.2181845  55.0039139  53.2322769  15.9120312  54.6356850  52.6852722
  14.9725695  54.2898598  53.8205261  80.5299759  39.4280968   7.0187049
  80.8165131  38.6177254   6.5974874  79.7248230  39.6654320   6.5586658
  67.0058441  25.5980625  41.6238022  66.6490479  24.8585148  42.1157341
  67.2347412  26.2428799  42.2931709  31.6970005  69.4163971  80.8733749
  31.5925140  68.6010208  80.3829880  32.1446953  69.1560516  81.6783752
  26.7159996  41.5731812   2.8840005  27.2450600  41.9745026   3.5733979
  25.8626747  41.4260635   3.2919524  11.2302713  12.3918476  88.9016418
  10.8461361  11.8110218  88.2448959  10.6992550  12.2513762  89.6855545
  86.3406143  30.5933571   0.4964502  85.9877701  29.9889088   1.1494232
  86.9999619  30.0815659   0.0278759  38.0283051  59.5270996  81.9712524
  38.4578247  60.3792763  81.8968277  38.6303673  59.0005341  82.4970703
  59.8059311  32.0273514  87.2737732  60.6254158  32.0307503  86.7791443
  59.8524590  31.2350826  87.8089142   2.0153701  50.6871948  76.8317108
   2.0348775  49.9532204  77.4458237   1.2396175  50.5288506  76.2937851
  10.0324011   0.8282589  21.0167294  10.6881075   0.7603067  21.7107506
   9.8927498  -0.0742367  20.7299709  21.4647923  57.3129272  11.6890678
  21.9695301  57.5596161  10.9140739  21.6942730  56.3964157  11.8426113
  84.7039719   0.3939686  45.2931213  85.0092468   0.6506035  46.1632805
  84.1089554   1.0965204  45.0311928  56.6514397  12.6482611  38.7834091
  56.4709587  13.1832771  39.5563354  57.5845261  12.7786865  38.6143913
  46.0453873  56.7373314  13.1259947  45.8271065  57.3715286  12.4430780
  46.0089722  55.8885117  12.6850748  44.4370232  57.0832138  33.3162918
  44.7294350  56.1730537  33.3646507  44.8293228  57.5018501  34.0825005
  14.0167322  62.4963989  19.9452477  14.0296249  62.1392326  19.0572720
  14.5407934  61.8813782  20.4584160  42.6151543  45.7254791  59.9588852
  42.0804672  45.0008011  59.6345634  42.3512039  46.4752579  59.4255943
  58.3161774  31.7793751  62.7925797  58.0903168  32.5437927  63.3225670
  57.4760056  31.4582539  62.4651222   1.9607025  19.5048294  58.6396408
   1.4652667  18.9421387  59.2347488   1.2932366  20.0162334  58.1822701
  16.0137806   2.2334778  36.6799049  16.8725548   2.3084958  37.0959663
  16.1501446   1.6198125  35.9580650  54.5195312  39.5227432  71.2974548
  54.9608536  39.1864777  70.5174637  53.5867767  39.4287987  71.1041336
  42.0352211  13.6291800  66.2150497  42.4217529  14.3083868  66.7677765
  41.3941765  14.0940638  65.6772995  11.7110529  22.6569157  75.5097885
  12.2243557  22.8264904  74.7198563  11.9756117  23.3455276  76.1197510
  44.6261482  33.3221321  27.3061237  44.6278725  33.4698601  26.3603954
  44.5638618  34.1987915  27.6853657  10.3333960  71.3107758  37.6085625
  11.2544088  71.0829239  37.4818649   9.8556480  70.6945267  37.0533791
  75.1901627  60.7007027  41.1948280  75.5953522  59.8662376  40.9587822
  75.8471756  61.3587151  40.9677086  83.4241867   9.2120161  59.3491707
  83.9781189   9.9850540  59.4578209  82.5621719   9.5642700  59.1276398
  12.3684444  51.4768791  34.4961700  12.2543488  51.1238823  35.3785553
  11.6920385  51.0436478  33.9755745  64.2049942  40.0401077  24.5718746
  65.0628128  39.7105904  24.8398094  63.5792313  39.4894371  25.0424194
  80.8149490  42.5709953  63.6950798  81.3769073  41.9498863  63.2317657
  80.3113174  42.0304527  64.3036880  83.2093277  49.3979416  68.6534882
  82.3317719  49.6581459  68.3734665  83.2588425  49.6700211  69.5698624
  74.6697998  28.3162041  12.7667475  74.7238235  29.2610588  12.6233521
  74.0051498  28.0173759  12.1461306  10.1669321  48.7601013  19.9280586
  10.2680130  48.8027611  18.9771671  11.0624552  48.7076149  20.2619991
  18.0103397  61.9771652  68.6001282  18.6095505  62.3145142  67.9342651
  17.3258247  62.6430206  68.6657791   9.4513798  42.1328087  14.5069437
  10.1712980  41.8503990  13.9428577   8.9860573  41.3249626  14.7239494
  32.5405693  68.1295776  22.6609535  32.9956284  68.9687347  22.7314777
  32.3553162  67.8807297  23.5664864  45.0815315  41.8955307  70.2733612
  44.1646233  41.7152443  70.0659866  45.5661926  41.5792656  69.5109253
  42.5357399  40.0934944  49.6058235  41.8544769  39.4600410  49.3803215
  43.2411804  39.5642509  49.9779625  44.1567307  18.9467773  58.9082985
  44.9308052  18.3883209  58.8364372  43.7582664  18.6976929  59.7422142
  34.7835236  20.6710892   0.2006903  34.9274750  21.1293354  -0.6272705
  34.3286934  21.3084469   0.7512661   7.4194031  54.7041206  80.3317642
   8.2513819  54.2674446  80.5143967   7.0182924  54.1761780  79.6413879
  63.6058197  63.3671417  19.7141151  64.0238571  62.5326385  19.9264336
  64.0188141  63.9986153  20.3031063  62.6732254  34.3314133   9.4422235
  62.2638588  35.1082115   9.0611305  62.1766930  34.1679993  10.2440863
  73.6460648  48.4021454   3.4178913  73.7540054  49.2096405   2.9153619
  72.8745422  48.5599861   3.9620152  31.8289642  50.8586693  67.4617386
  32.6973038  50.8113747  67.0617599  31.9174957  51.5189667  68.1490479
   7.2956848  62.9034157  45.5100136   7.0815434  63.6417084  44.9396591
   7.7938952  63.2926178  46.2287178  42.0333710  21.1733570  20.2036839
  42.5965462  21.8470173  20.5847969  41.3012772  21.6596127  19.8244362
  67.7357483   5.5352616  18.7992611  66.7932358   5.5912695  18.6418686
  67.8768005   6.0494928  19.5941849  77.3341599  69.4895096  73.0230560
  76.6069031  68.9462967  72.7193146  78.1020966  69.1332321  72.5763245
   2.5621095  10.4749889  28.5257759   2.7718294  10.1826448  27.6387672
   2.9425783   9.8058414  29.0947380  77.4948196  63.3170967  47.8031540
  77.6110153  63.4501610  46.8623962  76.5914230  63.5840149  47.9730301
   0.4084490  35.3994484  13.6707659   0.4915890  36.2734375  14.0521593
   1.1732696  34.9232826  13.9941006  26.6037598  14.4088440   6.3539324
  25.9594097  14.2451706   5.6652694  27.2204208  13.6801920   6.2830367
  68.5927887   2.1141114  67.0973206  68.5466995   2.3966155  66.1839218
  69.1279373   2.7809913  67.5275726  71.3871307  37.8977203  39.0808792
  71.8387070  38.0358467  38.2482719  70.6621094  37.3109856  38.8656693
  26.5526142   0.8884076  14.1850729  27.3476982   0.6723533  14.6723022
  26.0389118   0.0807880  14.1946917  81.5924988  23.8258820  73.0006104
  82.3789444  24.1983318  73.3993759  81.7148972  23.9583492  72.0605545
  46.0896950  56.2358360  56.8986511  45.9673271  56.1967621  55.9501076
  47.0341301  56.3403397  57.0142059   2.3470840   1.2321047  63.0425034
   2.2915716   1.5420020  63.9464493   2.5141265   2.0220158  62.5283356
  67.8455658  55.2819176  80.7026443  67.6675339  56.0858498  81.1907349
  68.7557144  55.0715256  80.9114380  81.6275024  17.7313614  38.5349998
  82.0895996  17.2279072  39.2052460  82.2201614  18.4536285  38.3268700
  61.7197418  46.7066765  45.9356232  61.7144775  46.5886612  46.8855057
  61.0055962  46.1521492  45.6214142  53.4038887  21.5324173  71.3738937
  53.5216904  21.3511829  72.3063736  54.0155792  22.2451477  71.1892853
  21.1977558  34.9578896  85.7391205  20.8278580  35.0657310  84.8628922
  20.6859322  34.2495422  86.1296539  16.8390751   5.4449267  79.9872437
  16.1385651   5.1853781  80.5857010  17.6428242   5.3254538  80.4931488
  49.4625282  55.1107407  26.5836353  48.7710152  55.2112122  25.9294605
  49.0095520  55.1819382  27.4238586  48.3377876  20.1129246  65.6391068
  47.6496315  19.4682198  65.8035202  48.0016174  20.9243832  66.0195770
  23.9597187  42.0160561  28.1966877  23.2728939  42.1889191  28.8405991
  23.8054981  42.6581650  27.5037651  19.3102093  37.4551392  62.9877930
  18.5473061  38.0260582  63.0786934  18.9865341  36.6990128  62.4981613
  12.2345009   9.3910646  50.1537743  11.4409056   9.9214621  50.0822411
  12.9500837  10.0263929  50.1307564  66.9604187  57.4618645  38.7514153
  66.8602371  56.5767822  39.1018791  67.5784836  57.3641129  38.0270729
  39.8899956  29.5980968  88.5801468  39.3673019  30.3997974  88.5974731
  39.2474632  28.8917637  88.6470642  21.6849995  21.8913555  46.8083916
  22.4159718  21.2788429  46.8904839  21.5435238  21.9703789  45.8650093
  58.8275909  38.5090675  68.5988007  58.8740082  38.0393677  67.7660599
  58.6762466  39.4212151  68.3511810  50.7533493  38.6353683  85.2222290
  51.4903564  39.2140541  85.4176178  50.7970276  38.5033264  84.2751923
  60.1030045  23.3953362  67.6085281  59.8158951  24.3079033  67.6405029
  60.9034195  23.3775501  68.1331711  83.8645477  16.3344955  20.8349953
  83.4497147  16.8955116  20.1797009  83.3107071  16.4224148  21.6107292
  34.8501549   0.5807447  14.9093990  33.9195023   0.4990722  15.1178541
  34.8752594   0.6701848  13.9567175  27.1311398  26.7192612  84.8624115
  26.8349953  26.6890392  85.7721481  26.6066360  26.0535107  84.4175491
  53.6183052  59.9985161  72.2510300  53.1844406  60.4978561  71.5591812
  53.0177422  60.0480118  72.9947433  34.1511230  29.3460484  13.6160030
  33.6340218  29.9508095  14.1480789  34.9496269  29.2027531  14.1240244
  21.1308231   7.4488125   2.7676229  20.5959129   7.9760790   3.3609979
  22.0320072   7.6216578   3.0400584  55.6171989  35.2414322  60.1416779
  55.6916008  34.4357109  59.6302948  56.5223274  35.4934769  60.3245583
  25.6622620  68.7139130  72.0547638  25.0087242  69.2950058  71.6655960
  25.1868229  67.9017334  72.2295685  47.6200066  51.2854729  50.0677414
  47.8775024  50.5587387  50.6350060  47.3319473  50.8660240  49.2569885
  64.5640182  33.9217567  57.5027313  64.6037216  34.5127373  58.2546616
  65.0071182  34.3977318  56.8003502  54.2300835  54.1932907  83.6013641
  54.3886986  54.7524986  84.3618622  53.5362968  53.5970192  83.8830566
  54.9800339  51.8950539  59.4542809  55.2158432  51.1851845  58.8570251
  54.0373421  52.0075836  59.3321953   5.9116139  19.8123016  35.4705734
   6.8015013  20.1633587  35.5036163   6.0213199  18.9091549  35.1730423
  30.0276566  65.9205322  17.0863438  30.0118408  66.0339050  16.1360130
  30.7816086  65.3532028  17.2473583  59.4829445  46.7308693  82.1759109
  60.1190758  46.9692078  81.5015488  59.6715965  47.3237076  82.9033585
  80.1745834  13.2712917  73.2393341  79.8886337  13.5626688  74.1051102
  79.4266815  13.4470215  72.6683731  44.0874786  58.6464996  28.4254093
  44.7285233  58.4603462  27.7393742  44.1837807  57.9238358  29.0456657
  16.6449375  71.1840210  71.2864075  16.7191505  70.9100723  70.3722534
  16.6017628  72.1394501  71.2473755  69.4927750  47.1751900  57.9943275
  69.2772522  47.8629570  57.3644447  69.0835953  46.3868446  57.6375198
  79.5856705  49.3795013  65.1416550  78.9549637  49.8219337  64.5735931
  79.9918365  48.7192841  64.5800781  79.0889206  43.9614868  41.6663170
  78.4193420  43.7295837  42.3098412  78.8115005  44.8129387  41.3282433
  51.8972206  52.5727425  17.7770996  51.8807640  51.6753349  18.1096973
  51.2306213  53.0303230  18.2894440  55.8034363  17.2528057  52.6501884
  56.5886917  16.7132149  52.7421150  55.2540703  17.0048904  53.3938065
   5.5179057  11.1020803  59.8501701   5.1538053  10.2699184  60.1521149
   5.0130639  11.7678995  60.3171310   9.3267441  57.9847221  23.6660404
   9.2547531  58.8554916  24.0569515   9.0246067  57.3887634  24.3514442
  56.9405975  21.7072945  18.5854912  56.1181335  22.0601654  18.9250011
  56.7416916  21.4638596  17.6813850   8.0439825  19.5717182  75.7402573
   7.9256620  18.9257545  75.0438690   8.7231512  20.1593037  75.4090424
  60.6091194  12.6052828  31.7057419  59.7271385  12.9243069  31.8969498
  60.5121651  11.6549368  31.6451206  81.6355820  45.2948303  62.9640465
  81.4910202  44.3489380  62.9890747  82.4289474  45.4020691  62.4393578
  70.2683258   8.2060480  41.7281952  69.5372162   8.3954077  42.3162918
  70.8986740   7.7354155  42.2735367  69.6440277  68.4747162  73.8410339
  69.9518814  68.9730072  73.0839691  69.9165268  68.9948120  74.5969925
  70.4402847  13.0520277  74.1155930  71.1258774  12.5130119  73.7210617
  69.7926483  13.1630659  73.4195557  59.0963364  54.9336624  83.4899673
  59.3190994  54.5081062  84.3179245  58.4924469  54.3258934  83.0631638
  58.3006439  25.8868656  71.1442947  58.4286766  26.8339310  71.1981812
  59.1852570  25.5230961  71.1812744  71.1675720  37.6462822   5.2318807
  70.5676575  37.1831207   4.6472321  70.6833420  38.4261513   5.5030847
  85.7939072  11.4905853  60.6544495  86.6791763  11.1431246  60.5457954
  85.4030762  10.9419622  61.3345184  61.5965691  25.9489956  22.0208206
  60.8243561  25.9376259  22.5863190  61.3304405  25.4600182  21.2421627
  52.0917053  45.7007484  41.9209328  51.7414055  45.1920128  41.1896935
  52.0129852  45.1189461  42.6769333  46.8275528  45.5319061  73.5634155
  47.2061768  46.3737221  73.3100052  47.5613556  44.9183922  73.5264587
  68.2558212  19.4828014  86.9053040  67.3260803  19.4322014  87.1272430
  68.6197968  20.1018276  87.5382004  58.5219917  32.8485146  53.3927765
  58.9530907  32.4042969  54.1228867  57.7301941  32.3347282  53.2336884
  67.1004639  48.9340897  20.1889267  67.8344803  49.4674644  19.8840313
  66.3533478  49.2376709  19.6732922  32.1462593  43.9472237  19.0205574
  31.9962406  43.1238251  19.4850388  31.5732536  44.5768700  19.4580917
  17.4056969  52.8761749  76.0769958  17.5710258  53.8002892  76.2638321
  16.5913525  52.6801109  76.5402832  31.8941040  67.7670364  28.5509396
  32.1958694  68.4972687  29.0912399  31.6225872  67.0992966  29.1807327
  23.8812904  65.2945709  35.5065117  24.5107307  64.8553848  36.0784798
  24.4216824  65.7537918  34.8636093  34.7242088  39.0686226  86.6884766
  34.6775131  38.2168694  87.1227112  34.7719460  39.7007904  87.4056320
  61.8725853  33.8398743  84.9786606  61.4903755  34.7084656  85.1039276
  61.1859932  33.3369827  84.5405655  64.9819336  55.6801949  26.8387985
  65.2157059  55.0975876  27.5613995  64.1137085  56.0109367  27.0690784
  57.6275978  52.7110329  59.4640465  58.1393738  52.2465515  60.1262932
  56.8026466  52.2278862  59.4165077  24.1549568   2.9986598  59.6263618
  23.2493343   3.0293787  59.9348030  24.6595497   2.7239656  60.3919716
  46.6261330   8.1747255  43.1624374  45.8398361   7.9080596  42.6861420
  46.9085960   7.3832030  43.6206284  82.2067108  60.8929634  42.7519112
  82.3879471  60.1092186  43.2706909  82.0676727  61.5828171  43.4007568
  73.1112213  15.1958961  42.2342110  74.0167160  15.2370749  41.9266205
  72.5896759  15.1249208  41.4347153   8.2238531  13.1326456  60.3203773
   7.8599143  12.2515678  60.2338791   7.6311889  13.6874447  59.8132477
  45.7074928  26.1223946  71.9952011  46.0588074  26.7333984  72.6428757
  45.9339180  25.2566948  72.3350906  63.4878426  60.4897537  44.1796341
  62.7809105  61.0464935  44.5060043  63.4069862  60.5338173  43.2268753
   7.4631047  31.2778530  14.8541012   8.1080284  30.6849804  14.4683456
   6.8906164  31.5162277  14.1249466  75.0132904  28.5002480  40.6328697
  74.9456940  29.3296852  41.1058350  74.6468506  27.8513966  41.2336540
  28.9470234  61.4210892  73.0222244  29.4087467  62.2358208  72.8240967
  28.3640862  61.6463699  73.7472534  59.0063171  44.2336082  16.1776314
  58.0533104  44.3102684  16.1313972  59.3293343  45.0904198  15.8987684
  83.0372543  65.1035767  83.0130386  82.7951813  65.1903610  83.9350433
  83.5766449  64.3134995  82.9803619  54.4286156  32.4064980  48.3523216
  53.7709274  33.0979767  48.4267387  54.9374542  32.6423988  47.5766487
  80.6432419  19.7334309  75.1474380  80.5538177  20.6857910  75.1827087
  81.2506256  19.5765076  74.4244614  60.9252968  59.2773170  54.8193130
  61.2835884  59.3733253  55.7017212  60.8040390  60.1753616  54.5110245
  30.5898418  59.4908028  14.6518478  29.6954918  59.4821053  14.3108282
  30.5725594  60.1423759  15.3528357  65.1676788  25.2710705  26.5477772
  65.7025604  24.4779377  26.5150471  64.9978333  25.4071178  27.4799137
  39.0025024  42.0491638  21.3769112  39.7549362  41.8294258  20.8275566
  39.3497086  42.0513611  22.2689171  47.4338951  55.2581520  78.6710434
  48.3482437  55.0196152  78.8236923  46.9704742  54.9382362  79.4450760
   3.7029331  16.1739769  10.9861307   3.6337938  16.6854076  10.1799726
   4.6129050  15.8775864  11.0044432   1.7954897  28.6546974  64.1733856
   2.3268945  28.0290012  64.6656723   2.4267006  29.2871571  63.8301697
  57.2454948  57.1413155  83.8783951  57.7133980  56.6357880  84.5430298
  56.9607849  56.4893494  83.2379990   6.5393720  36.0433350  62.1839981
   6.2258906  35.3621101  62.7788887   7.4760756  36.1105614  62.3691978
  13.3703651  39.0343056  85.2563171  12.8207779  38.9470825  84.4774857
  13.6643457  38.1427193  85.4430771  15.5438242  19.0038338  73.9413452
  15.7314558  18.2759361  74.5339661  16.4018421  19.3797321  73.7445297
   2.4978127  68.8937225  46.2714310   2.1262236  68.7347946  45.4037361
   3.4436243  68.9178009  46.1261978  68.3396759  54.5995789  26.8180504
  68.1133728  55.1160316  26.0445538  68.1381607  55.1738663  27.5568466
  58.6503258  66.9667435  60.0362015  59.3718681  66.4454575  60.3881493
  58.2376556  67.3559036  60.8072319   6.9827862  54.9814072   3.0965703
   7.5465527  54.2206879   2.9561977   7.5903625  55.7131577   3.2043874
  52.5017853  35.8944321  54.4791412  52.8834190  35.8329773  55.3548203
  52.1082001  36.7664833  54.4500656   3.1975930  50.1775856  65.6084900
   3.6434000  49.3490791  65.7847519   3.5517304  50.7833672  66.2595215
  62.7221375  45.7734299  39.2354393  63.5175781  45.8301811  39.7648544
  62.9023094  45.0746231  38.6065979  57.9463425  20.9101562  61.4425735
  57.4755669  21.1214600  60.6363792  58.7975616  21.3361187  61.3415260
  71.6715240  33.4627037  31.6933060  72.2725983  33.1900749  31.0000401
  70.8194427  33.5232620  31.2614212  83.3355865  45.6052017  76.9984283
  83.7950821  46.3470039  77.3919144  82.8858414  45.9771690  76.2397461
  43.7215576  63.1965904   0.9834361  44.5226479  63.6571884   1.2331065
  43.1571198  63.2630386   1.7536470  52.2439041  52.3087120  59.6846352
  51.6312752  52.6569481  60.3324394  51.7019806  51.7708359  59.1073723
   1.5771617  51.7941589  47.0734520   1.2131884  52.6777458  47.0184441
   2.2946000  51.7907753  46.4398079  55.0683441  42.1958923  77.7988663
  55.5944901  42.9926720  77.7314377  54.1631012  42.5006447  77.7364273
   7.0489602  49.8318138  64.2716217   6.5672002  49.0547981  64.5551453
   7.3205404  50.2555695  65.0858154  79.9971390  27.4572830  48.6919708
  79.7305374  28.3713856  48.5941200  80.0393982  27.3201103  49.6383476
  20.9615040   6.6576934  11.0282965  20.2713757   7.2857528  10.8149996
  21.1303825   6.7948027  11.9604511  18.5952263   9.5756054   7.0880041
  18.9188480  10.4201908   7.4013338  18.2618713   9.1407223   7.8728504
   3.0295007  22.0342579  18.0814991   2.6689780  21.9752579  18.9662437
   3.8748798  21.5887585  18.1371460   1.1544726   1.4179924  71.4638062
   1.6822989   0.6294936  71.5899048   0.8580772   1.6510407  72.3436203
  84.7955475  33.0010109  58.2948761  84.8208466  32.3489265  58.9951477
  84.9117279  32.4941063  57.4912720  60.1795464   5.2605581  86.2923279
  61.0954437   5.4617486  86.4843903  59.6887360   5.6818528  86.9979172
  74.0454788  67.2186508   0.0773534  73.9129715  66.5357819   0.7348924
  73.1702652  67.5730362  -0.0796501  17.7270069  17.4348049   9.0500860
  17.4614925  17.7009087   8.1697893  18.0041122  16.5239029   8.9515867
  78.3310318  21.9121494  80.4207916  79.2719193  21.9745255  80.5853271
  78.0169220  21.2770863  81.0644226  70.0855789  67.7929306   8.3907146
  70.5518951  67.7349014   7.5567989  69.5250015  67.0172043   8.4061470
  20.7501812  10.5860043  25.7135468  20.6362476   9.9454708  26.4156628
  21.2628193  10.1249390  25.0495796  47.4351044  32.0932732  14.5314035
  47.9148216  31.2792549  14.6846275  48.1144524  32.7381935  14.3344383
  84.2923203  42.5990372  16.7444763  84.9959106  42.9561806  16.2025909
  83.5768051  43.2282791  16.6532421  59.9742889  17.7339420  13.3942900
  59.7202454  16.9669304  12.8810787  60.9169579  17.8169422  13.2503309
  85.2738953   6.3526616  75.3854752  85.7310562   7.1772146  75.5508270
  85.9694366   5.7333107  75.1644287  10.3025455  34.1892242  63.3555260
   9.9840508  35.0148468  62.9906425  11.2223320  34.3570137  63.5606422
  83.7864380  43.0328522  30.4844608  83.5560684  43.8116608  30.9910336
  84.4847336  43.3258476  29.8989964  65.3673096  45.9939499  78.2791214
  65.0691528  45.0871620  78.3502960  66.3165359  45.9434929  78.3916473
  82.8752441  39.5069084   9.2733994  82.7231827  38.9790573  10.0572901
  82.0599899  39.4382248   8.7765388  61.7081413  55.1774254  51.1822128
  62.3328400  55.6505356  50.6325264  61.7840538  55.5914421  52.0418968
  80.8343887  48.1193237  58.8231163  80.7664719  48.1966934  57.8714676
  80.3132477  48.8479195  59.1604500  75.1823273  52.6249352  13.3796406
  76.0010529  52.1429710  13.4964085  74.5147324  51.9448509  13.2900124
  24.8055344  67.7737122  62.2837715  25.4759960  67.8041763  61.6012878
  25.2349873  68.1378784  63.0578423  63.9153137  56.7700119  36.4650345
  63.2331467  56.2884903  36.9330254  64.1223068  56.2191544  35.7100906
  32.7417221  16.5619087  88.1350861  32.5824471  16.2950687  87.2297363
  32.4007683  17.4549274  88.1850967  53.0174065  64.5582962  86.8966370
  53.8574600  65.0059509  86.7958755  52.3633270  65.2474594  86.7806015
   3.1899824  70.5747070  85.7668991   2.4098670  70.8865051  85.3081665
   3.8658507  70.5349197  85.0902557  80.8759232  33.3234177  67.7003708
  80.4359970  33.7731056  68.4218140  81.7974777  33.3014946  67.9582138
  17.6614475  64.5739517  85.0457458  18.1696281  64.5996170  85.8565063
  18.2585735  64.9113159  84.3780136  76.7177048  28.5692139  15.9786701
  76.4787979  27.8055897  16.5040588  75.9612045  29.1518917  16.0451984
  48.4448204  63.7711258  26.9395733  49.0088005  64.1365662  26.2579460
  47.5557594  63.9765701  26.6504478   4.6048827  30.0321350  71.8798828
   3.9911540  29.3446960  71.6210403   5.3598404  29.5595894  72.2305527
  60.1708832  49.9502106  17.6570873  60.9971123  49.5049019  17.8449192
  60.3030319  50.8438034  17.9737339  14.3356218  38.0028763  31.7731152
  13.5301132  37.5164757  31.9486141  14.7151670  37.5697937  31.0085125
  59.5898056   9.5721741  49.2615509  58.7246399   9.9810886  49.2839928
  60.2011833  10.3074179  49.2183151  27.0009155  45.1249390  56.2323608
  27.4422092  44.4959793  55.6614876  27.6947212  45.4615402  56.7994308
  63.8143578   9.5432682   7.0859003  62.9260483   9.2006598   7.1846890
  63.9659386  10.0495405   7.8839874  27.1388245  46.2248306  17.7292137
  26.8889866  46.1006622  18.6448536  27.9241047  46.7708359  17.7671394
  73.2135544  47.7544365  56.6968269  73.6743240  47.8021011  55.8591805
  73.8679428  47.4227104  57.3116150  41.4372368  52.1181374  67.7116470
  42.1695251  52.7016525  67.5129089  41.7957573  51.4882774  68.3369217
  73.6669464  64.7616959  38.3774490  74.3403625  65.2823715  38.8152199
  73.1435699  65.4027252  37.8964157  51.1421890  58.1691704  14.7183867
  50.3823586  57.8189812  14.2533484  50.9567337  57.9996758  15.6420269
  50.9199409  25.5117683  54.6837273  51.2325974  25.6914558  53.7970543
  50.0080261  25.8026733  54.6796875  76.4174271  28.4718552  24.8547230
  75.6806183  29.0000896  24.5476208  76.1438904  27.5674057  24.7018261
  80.6207657   6.0993505  88.8975906  81.5167389   6.1716866  89.2265778
  80.5422974   5.1882634  88.6147537   0.5015314  20.9693260  52.9008141
   0.3486188  20.5599766  52.0491791   1.3798385  20.6820621  53.1503868
  49.3916206  10.7395649  26.3980370  49.1026535   9.8280087  26.3556538
  48.6021957  11.2497349  26.2170105  36.3606529  65.8064804  85.5920715
  36.6547279  66.4721222  84.9702454  36.8624763  65.0247345  85.3612595
  20.0521584  18.9645138   6.0908928  19.4204788  18.2825184   5.8626456
  20.0713692  18.9625950   7.0478983  68.8985825  59.4784737  19.4483032
  68.1598663  59.7893639  18.9249763  68.5186920  58.8228073  20.0331268
  10.0442276  59.1889267  42.3710632   9.3383455  58.9423141  42.9686775
  10.0023623  60.1444244  42.3322830   1.5347390  36.6292953  33.3175163
   1.8503811  37.1593361  32.5856285   2.3306620  36.3138008  33.7455368
  79.4620667  21.6098957  70.1684265  79.5335464  22.5116100  69.8553162
  79.3570786  21.6930733  71.1162033   7.6878381  46.9829636  25.5907936
   8.4148951  47.1088982  26.2005138   8.0927305  47.0203552  24.7242508
  71.0756378  17.5089722  63.1645737  70.5887527  17.3189430  63.9664841
  71.5870667  16.7164745  63.0014000  66.3487473  32.1132927  24.0526562
  65.7506409  32.3809052  24.7504272  65.7808456  31.7295532  23.3844795
  65.7260437  70.5372391  61.2035103  65.7108307  70.1946640  62.0971794
  66.4284286  71.1875229  61.2082062  63.5224800  12.5453405  58.7249374
  64.2323227  12.2217607  58.1702728  63.0338287  13.1461754  58.1623993
   0.6767330  65.2405243  10.5069399   0.3549649  66.0286407  10.0692625
  -0.0037126  65.0262451  11.1451492  57.7275276  69.9475479  48.4509125
  58.2240562  70.7183914  48.7256737  56.8225441  70.2538681  48.3925552
  20.8521748   3.0586851  69.6523361  21.5707073   3.6892200  69.7009888
  20.0604916   3.5966513  69.6602249  81.2594986  27.8370132  29.7292213
  81.2190018  28.5145836  30.4041214  82.1792145  27.5724583  29.7103081
  58.5585175  53.6824989  38.8258896  58.5771103  54.6150665  39.0408440
  59.3922195  53.3446350  39.1530266  63.9100685  38.9587021  66.6908340
  64.2576752  38.9472389  65.7990570  64.6856308  38.9226379  67.2506866
  50.9762993  20.0364437  75.8256836  50.7544365  20.1379662  76.7512665
  51.5041847  20.8079510  75.6198959  60.3436165  38.3501358  60.9439545
  59.5804787  38.9182816  61.0491447  60.6011429  38.1269150  61.8384323
  86.3599701  63.8576927  40.9807587  85.8667679  63.0373497  40.9765244
  86.7801437  63.8889885  40.1212769  49.6991692   1.9156160  75.6104050
  49.4256020   2.8300514  75.5382843  49.1680679   1.4547939  74.9609375
  29.5298481   1.9435954  39.3077812  28.7334366   2.3744974  39.6180801
  29.2690754   1.0341141  39.1626129  39.0920715  23.6572227  80.2285614
  38.8038139  22.7787056  80.4762421  38.4901237  23.9193077  79.5319977
  73.3794556  65.1894836  61.0963440  73.6661453  65.6305771  61.8960152
  72.6909561  64.5911560  61.3865280  64.2945404  60.3199806  87.4897614
  64.6733017  61.1828537  87.6577530  64.4726944  59.8209000  88.2868881
  44.1845016   8.8583918  53.9023781  43.2840195   8.9891357  54.1994743
  44.6807785   8.6987514  54.7051582  25.4114704  42.2258415  50.5775833
  24.9212933  41.7440300  49.9113884  24.7817345  42.8544540  50.9304390
  29.5653191  40.1757278  12.3100586  30.4685993  40.0445290  12.5983343
  29.1435776  39.3279915  12.4504385  47.0150223   2.7246099  29.8991375
  47.3247261   2.0948999  30.5501194  47.7867012   3.2502344  29.6882820
  41.1214600  48.4282379  39.0067978  41.8840675  48.3847313  38.4299393
  40.3717499  48.4443169  38.4118958  42.6102180  32.0158195   9.9362221
  43.3588905  32.6028252   9.8306303  42.4939079  31.6183720   9.0732403
  62.9934082  18.9086895  16.5432949  62.6255531  19.4393673  17.2499027
  63.3041382  19.5469933  15.9012299  71.4714203  24.1326904  34.4650459
  70.8940201  24.3244400  33.7260780  71.4163971  24.9105663  35.0201263
  36.3750534  58.2504463  78.9823303  36.0972824  58.6058578  78.1380844
  35.5585938  58.0959320  79.4574661  69.4561462  48.7041969  66.8822937
  69.6136169  48.9362450  65.9671021  68.6694412  48.1594048  66.8593063
  17.1152630   4.4485450  61.8989677  17.1598492   3.4923861  61.9010696
  16.6564522   4.6651378  61.0872955   1.5273130  41.6419182   2.5749872
   2.1516743  42.3638649   2.6471059   0.9518995  41.7462959   3.3327711
  58.3115997  29.3396797  16.0432549  57.8374901  29.2899361  15.2132082
  57.6411018  29.5622787  16.6890965  15.9949093   7.1573157  71.3810425
  16.3449440   6.2923107  71.1677933  16.7615547   7.7303820  71.3899918
  78.5480804  11.6631622  14.3996363  79.4624939  11.4766140  14.6124077
  78.5677643  12.5326719  13.9998894  34.0384750  32.1003113   9.9583883
  33.4457130  31.8120308  10.6524763  34.9001579  31.7877560  10.2341537
  63.6861343   2.2771583  73.9041214  63.7515678   1.3988370  73.5292892
  63.0708199   2.7363071  73.3324585  82.4990311   4.0796289  21.3511372
  81.8350601   4.1141968  20.6625290  82.8037567   4.9830894  21.4356003
  15.4137144  30.7605534  73.7577515  15.3929462  31.0243702  72.8378601
  16.1769657  30.1868572  73.8252106  60.1570015   6.4695005  83.6119919
  59.9603729   6.4458022  84.5484772  60.9419556   5.9297705  83.5183411
  41.9263763  70.9693451   3.0143547  42.3850822  71.5424118   3.6286933
  41.2627144  70.5302429   3.5463083  76.7312546  42.7571907  18.1732731
  76.8277893  43.7086487  18.1327591  76.5371170  42.5750809  19.0927181
  64.7701416  18.1776962  58.0805893  64.7037811  19.1293564  58.0020332
  64.7958984  18.0164413  59.0237541  81.1278229  30.2266998  42.0693512
  81.4137497  31.0368061  41.6472092  80.1825409  30.3329449  42.1760674
  35.2955818  33.8823547  75.5619431  35.4077225  33.1867905  74.9139862
  34.7577286  34.5383339  75.1185074   7.8777118  58.2487068   6.3510070
   7.0952439  58.1748543   6.8973780   8.4267073  58.8886414   6.8041267
  56.2708282  29.4838734  18.0601482  55.3929901  29.4054832  18.4336262
  56.8449516  29.0801220  18.7109928  82.2035522  15.1991968   0.4129275
  82.0067749  14.6357441  -0.3354258  83.0919189  15.5150719   0.2478569
  38.1529846  62.1988792  36.0624428  38.7387047  61.7675362  36.6846199
  37.3312302  61.7127609  36.1305466  25.9428654  44.2469330  58.8525391
  26.1574936  44.5940323  57.9866943  26.7198219  44.4266281  59.3819542
  62.0969086  42.5692215  40.0726662  61.9706688  42.1696243  39.2120743
  61.8077049  41.8995361  40.6924400  19.3587627   3.6344252  12.3086014
  19.5398884   4.4555311  11.8512068  20.2224312   3.2972474  12.5465469
   2.8542097  10.1308794  25.8623371   3.1015227   9.2380037  25.6218357
   3.6875792  10.5874929  25.9773655  21.0246181  51.5255051  82.8231583
  20.8866978  51.5452995  81.8761520  21.8147373  52.0479202  82.9610977
  86.3998871  24.6648178  86.1262894  87.1798325  25.0413532  85.7186890
  86.0646591  24.0470009  85.4765549  83.9567871   9.8062067  62.6703835
  83.1711044   9.9638157  63.1939316  83.6370773   9.3570166  61.8879242
  48.5736160  27.5781002  80.3018723  48.5264931  27.0580826  79.4996338
  47.7484741  27.3984852  80.7525482  48.8547478  39.7781143  28.8098545
  48.5232544  39.0517960  29.3378773  49.8033257  39.6506958  28.7959099
  72.8225784  47.5171509  26.5679779  72.4747925  48.4063416  26.5000725
  73.7174454  47.6337013  26.8871326  71.1110916  65.5770035  18.9280338
  70.8700180  66.0456848  18.1289978  72.0547791  65.4378281  18.8486080
  82.7460403  22.0765533   1.8313835  82.3463211  21.5099735   2.4912655
  82.2480011  21.9023781   1.0327263   4.5971603  26.6794910  68.7388077
   5.2880526  27.2999516  68.9710312   5.0635939  25.9261570  68.3766479
  39.7731056  18.8433971  87.4035034  39.0935173  19.3652172  87.8302307
  40.5861549  19.1141930  87.8299484  24.9871693  35.7763405  79.4553757
  24.8615475  36.6447983  79.0729752  24.2147980  35.2807770  79.1831818
  70.5211563  70.0261917  51.9792023  70.6925430  70.9066696  52.3133049
  70.7159500  70.0828552  51.0437469  69.8258438  20.9439163   4.6800714
  69.6509628  21.4243927   5.4892621  69.3640442  20.1127796   4.7904563
  85.4027176  36.3355255  64.6170425  85.0070343  36.0970802  63.7787018
  85.0101624  35.7316895  65.2475357  77.9278870  33.2304688  88.0952759
  78.7952042  33.2867088  88.4963150  78.0903549  32.8728828  87.2223663
  81.4704971  38.4875526  64.4946289  80.6819458  38.9608917  64.7598953
  82.1926117  39.0548859  64.7646561  28.6405945  37.3920860  72.1890030
  28.5512409  37.4631004  73.1393738  27.7800770  37.6367455  71.8485870
  73.2815170  29.8445721  36.6694756  73.6917343  30.0079079  37.5187531
  72.3462677  29.7817173  36.8633537  53.8248177  20.0059414  73.7513275
  54.6246223  19.8568783  73.2470245  53.6399460  19.1614780  74.1623459
  52.9934616  43.7570686   2.3824794  53.7318039  44.3282890   2.5941243
  52.5782127  43.5797348   3.2264895  20.2752495  35.0221863  83.2169113
  19.4823875  34.7048798  82.7845764  20.9679279  34.8979568  82.5680695
   5.6565928  12.5412235  75.3170166   5.0376239  11.8667307  75.0374298
   5.8247766  13.0543852  74.5266953  76.5280991  53.5181694  88.1804047
  76.3033752  54.3907433  87.8573761  77.3962402  53.6231270  88.5696945
  53.3149910  22.6112843  30.0297356  54.0051117  22.9943695  29.4882412
  52.8457870  22.0225201  29.4386044  45.6256981  67.8223190  53.7710495
  46.4231606  67.2979202  53.6983414  45.6648293  68.4222794  53.0262375
  62.5450783  53.1775131  45.2990990  62.6771812  53.5560226  46.1683006
  61.7599869  53.6117935  44.9655418  28.2781944  51.9160194   6.3829246
  29.0628757  51.6252632   6.8476472  27.6388302  52.0850677   7.0749273
  83.8581314  21.6916161  28.5164738  83.2328949  20.9997597  28.3004818
  84.6734772  21.2271557  28.7054482  60.1308327  69.1304932   7.5248785
  59.6135788  69.5948715   6.8668284  59.9618187  68.2042389   7.3524747
  60.7802162   7.0578871  32.7957993  61.3252945   6.5757890  32.1739426
  59.9341278   7.1435266  32.3564529  49.8121147  48.2837410   3.8875682
  50.0731316  48.7809830   4.6627131  50.0336380  47.3768387   4.0989699
  25.4878845  70.5943375  68.8221970  25.5632763  69.7931595  68.3038712
  24.8316860  71.1169739  68.3612289  48.3656425   4.4684024  85.0574188
  49.0204353   3.7750666  85.1396561  47.5330238   4.0031533  84.9766388
  82.6777878  21.1063900  82.6791534  82.9240265  22.0143604  82.8557510
  83.5041809  20.6242218  82.7077103  57.7477036   5.4856648  74.8420715
  57.3429832   4.7161322  75.2423859  57.0746384   6.1643181  74.8934784
  26.1146698  23.7702065  56.0163803  25.4386578  23.4414310  55.4238014
  26.6673336  23.0093441  56.1949348  71.2109375  48.7567329  61.8174324
  71.9297943  49.2640190  62.1944427  71.4877930  48.5807648  60.9182014
  77.7448273  10.2750626   4.8871927  77.3862457   9.3967810   4.7596245
  77.7498169  10.6612692   4.0113783  13.9149942  59.9806290  23.4194870
  13.2543736  59.3751335  23.0830555  13.9244900  59.8242264  24.3637753
  61.9447403  17.5244389  26.0678425  61.0309334  17.8011532  26.1357994
  62.4346886  18.1980953  26.5394058  10.1406755  57.2649651  78.2633133
  10.9838428  57.6600571  78.0414963  10.3621225  56.5408096  78.8488007
  73.6574402  27.6588840   9.9401340  73.8468170  28.3511944   9.3068295
  73.7438812  26.8470268   9.4404879  43.6532593  53.1102715   0.7193002
  43.7337456  52.4868813   1.4411997  42.8028297  53.5275040   0.8568314
  20.5733547  52.2825623  58.5592155  20.3091335  52.5820923  59.4291000
  20.1838856  52.9179878  57.9585648  50.0327759  71.2369614  61.8371544
  49.5716324  70.9466248  62.6240997  50.1519318  72.1783447  61.9629707
  54.9006767  65.2630539  49.9382858  54.6837654  65.8587112  50.6554832
  55.8535385  65.3150864  49.8635979  57.1431694   9.8304272  22.9203777
  56.2881660  10.2220268  23.0988483  56.9830208   8.8868999  22.9388466
  71.7594376  46.2202034  11.7456226  70.8736877  46.2144432  11.3827810
  72.1760330  46.9849548  11.3483458  43.5814362   7.2941175  12.4495449
  44.2943039   6.7278748  12.7452097  42.9119415   7.2106843  13.1285505
  61.6662941  40.8670883  10.2863960  61.5577507  41.0875587  11.2115135
  62.6049461  40.9637032  10.1256838  43.6324730  33.1439438   6.4661670
  43.2836189  33.0697937   5.5778913  43.6488190  32.2443962   6.7929344
  53.9417038  52.7780304  14.1056995  54.2518311  53.1082993  14.9488935
  53.1563301  52.2745018  14.3198919  67.0608673   4.9406624  49.5997047
  66.4839859   5.6075559  49.2272873  67.0275421   4.2180214  48.9728813
  31.9155006  40.2857819  66.3800735  31.1449356  40.0044365  65.8868179
  31.5867596  40.9615059  66.9729996  24.1277924  12.9859352   2.2373106
  23.7106838  12.2038507   2.5986931  24.9312458  13.0864525   2.7477908
  50.9788055  45.1370659  39.2391357  50.2667847  45.5299263  38.7342415
  51.7038956  45.7558632  39.1521530  79.0087357  39.1377411  55.0146675
  79.8909454  38.8790550  55.2811699  78.5429382  39.2837181  55.8380508
  22.4766369  54.4751930  48.1578217  23.2027473  54.9276123  48.5871353
  21.7863979  54.4474907  48.8204155  67.5033035  43.8408470  68.0539780
  67.9711761  44.5062943  68.5584564  68.1782455  43.4331741  67.5113068
  74.3518600   6.1975603  22.3334923  75.3079376   6.2376328  22.3567963
  74.0692902   7.0813842  22.5685310  53.5010033  61.5211868  40.1634331
  52.6610107  61.9591713  40.3006058  53.8439636  61.9078255  39.3577538
  48.0525169  52.2156563  58.8882675  48.1841202  51.5211716  59.5337181
  47.3737755  51.8754082  58.3053703  76.8537827  10.3742599  49.8242874
  77.7001343  10.5982103  49.4372940  77.0746765   9.8818512  50.6148415
  44.3193283  46.5036011  19.5689526  44.4037018  46.7184525  20.4979057
  44.2467766  45.5493546  19.5494480  84.6156464  31.6118870  27.7458935
  85.0415573  31.1462479  28.4656239  83.7223129  31.7637978  28.0542850
  68.8082733  63.8204765  42.5288544  68.6171265  62.9310722  42.2311020
  67.9508133  64.2410278  42.5930786  36.1293907  69.1947174  86.2077560
  35.2235031  69.4847946  86.3147736  36.2720642  68.5833511  86.9303207
  53.8786774  17.1451645  30.9995346  54.7811012  16.9179916  30.7753525
  53.8738747  18.1017494  31.0335026  32.4039154  61.9530487  45.0968170
  32.7097015  61.7741508  45.9860420  32.8417244  62.7684364  44.8524857
  65.4399490  59.7137566  53.2703590  65.4727325  59.8034554  54.2227821
  65.3105011  58.7769775  53.1223259   8.2667027  68.0646515   0.8062097
   8.1075144  68.4735031   1.6569349   8.5836611  67.1866379   1.0179965
   7.1006675   3.9871688  78.2346115   7.2671838   3.7158740  77.3318939
   7.5408354   4.8333035  78.3154831  19.2091122  62.3312378  59.8510323
  19.7374744  62.0830193  59.0924454  18.3902359  61.8479424  59.7410393
   3.0021825  47.6003036  46.7615700   3.4495020  47.4030037  45.9386406
   2.0841987  47.3887711  46.5918846   4.9297214   2.6798472  11.6419945
   5.8236890   2.9453752  11.4262428   4.3752241   3.3143680  11.1879587
  23.4279060  65.6364975  65.1706238  24.2001362  65.2144012  65.5470963
  23.0828800  66.1801300  65.8788986  65.1773071   8.8188257  50.4250298
  65.2875824   9.4938040  51.0947113  65.8190079   9.0429869  49.7510834
  57.3106270  39.9287643  11.3067942  57.6034164  39.1608620  10.8160448
  57.8598061  40.6431274  10.9838085  47.2976189   3.0125756  13.0022211
  46.3710556   2.7723379  13.0029860  47.3465767   3.7762337  12.4271898
  19.6501827  65.9733047  83.6220016  20.0083637  66.8448181  83.7905197
  19.8939095  65.7853394  82.7156372  62.4659309  59.5363693  48.4481850
  62.3780327  58.8178329  49.0744514  61.7187309  60.1060638  48.6308632
  63.9290352  53.2681732  38.9223404  63.8808632  52.4290810  39.3804131
  64.7684326  53.6406250  39.1923714  32.2171669   6.4643826  84.0416870
  31.8937168   6.2439237  83.1681824  33.0828705   6.8427925  83.8880768
  54.1725197  35.1892967  33.9261742  53.6177826  34.4107132  33.9741402
  53.5577202  35.9227791  33.9420853  73.4680405  44.3276443  58.1569443
  74.1102066  44.2305870  57.4537811  72.6610489  44.5841064  57.7105980
  56.1393661  25.0842648  31.8772163  55.9530602  24.8458538  32.7853394
  56.6578178  25.8863144  31.9416866  63.1416283  56.7052269   2.1903617
  62.7531891  57.1791153   2.9257360  62.4145393  56.2091522   1.8142166
  64.4492340  23.9444199  19.4581699  64.7246933  24.5421677  20.1531906
  63.5122757  24.1114502  19.3559952  40.7730904  28.6184883  74.5733109
  40.3045540  27.7849007  74.5304642  41.6953430  28.3716049  74.6421280
  70.4797440  41.0443001  48.9138069  70.0111694  40.3303566  48.4814224
  71.3897171  40.7490311  48.9454422  70.4982681  68.4657669  59.6040039
  70.4741135  68.1903687  58.6875992  71.2428894  69.0651169  59.6544304
  75.0961380  26.1129971  23.9086075  75.5859451  25.3494129  23.6032181
  74.2689972  26.0747242  23.4283924  61.8273201  33.5685806  43.7256546
  61.2005920  33.6345291  43.0051727  61.2912178  33.3621788  44.4913063
  49.1935654  40.3879700  64.6849823  49.1230888  39.7647362  65.4080658
  50.0949898  40.2959328  64.3764496  13.7673025  38.8856926  24.8262329
  14.5032606  39.4855118  24.9479427  14.0131540  38.3556747  24.0680313
   1.1460849  25.1299572  28.2703514   0.9116690  24.8465748  29.1540794
   1.4970207  26.0128174  28.3871193  15.4421778  13.8417492  87.8340225
  15.9282541  14.3994999  88.4413757  16.1179485  13.3506327  87.3667221
  61.1240578  57.2054176  57.1888466  60.5498962  57.5516319  57.8720093
  60.7031479  57.4633827  56.3687744  53.9860420   6.5360713  61.2561455
  53.7451897   6.9140649  60.4103661  54.1734581   5.6174254  61.0632820
  83.3385849  31.9676094  13.4853630  82.8317871  32.4536247  14.1358824
  83.9351883  32.6167870  13.1127119  14.3549967  30.2170696  63.6544380
  13.7754631  29.8500938  62.9868317  14.6150818  31.0689220  63.3038216
  72.9078445  57.8888664  10.2227545  73.1437454  58.6516953   9.6948538
  73.7221832  57.3922920  10.3033762   2.8427515  49.6404724  22.6282921
   2.2643189  50.0494690  23.2720070   3.2460828  48.9106331  23.0982838
  52.6348190  48.2053413  66.0806046  52.8291931  49.0798416  65.7434082
  51.6820793  48.1900520  66.1716461   4.9573946  40.4130783  78.2436218
   4.3820448  40.5174179  79.0014648   4.3669944  40.1922722  77.5232773
   4.9779687  21.2690563   3.4919174   5.0916677  20.6409035   4.2051697
   4.1534243  21.7120934   3.6921055   1.6206107  37.0203743  46.1592674
   1.7909374  36.5305977  45.3546944   1.0190238  36.4648895  46.6550102
  80.1136398  53.3307877  72.7060471  79.9246826  52.3924255  72.7053528
  80.8638840  53.4235992  73.2931976  86.3360825  18.6161957  30.8405857
  86.2353134  17.6883049  31.0529442  86.2380829  19.0659847  31.6798229
  55.1224251  38.4787025  20.6279392  55.4701347  38.4554443  19.7364292
  54.7612762  39.3602333  20.7212448  53.2130280  34.2486458  81.8096771
  53.1336861  34.1281586  80.8634109  52.7359390  33.5091171  82.1861267
  80.6761856  60.3749504  34.1694717  80.6588974  60.4736404  35.1214142
  80.1251831  59.6113052  33.9977951  36.5657616  52.9161644  66.5773163
  37.0844498  52.3546066  66.0012512  36.1472626  53.5430832  65.9873505
   7.8820105  54.5519180  30.4285126   8.6597185  55.0202255  30.1250496
   8.1777754  53.6496429  30.5495739  45.3085098  61.4369698  69.1491394
  44.9508667  60.6221275  69.5017700  45.3252144  62.0345230  69.8967209
  81.2580872  71.4756851  18.5575275  80.3618546  71.4358902  18.8913078
  81.6197052  70.6080246  18.7381973  65.6993256  44.9676437  30.7041874
  64.7957153  45.2325287  30.5323048  66.2237473  45.5071449  30.1124516
   1.7316786  21.3968391  10.8408737   2.4484694  20.9617348  11.3025293
   2.1398869  22.1575184  10.4273949  48.9605637  43.5771866  10.2912560
  48.8459854  44.0540504   9.4692430  49.7667999  43.9334641  10.6644611
  45.9194298  37.9109154  38.0839500  46.2556343  38.0936165  37.2065582
  46.6620598  37.5265427  38.5497742  74.7454987  22.3762913  15.2601500
  75.5761871  22.8188667  15.4342575  74.9220047  21.4539890  15.4457150
  55.4466820  28.0380573  64.8026047  55.7504539  27.2280960  65.2123871
  54.8006363  28.3889332  65.4155884   1.6325989  63.6794701  51.6896667
   1.7572398  63.7356682  52.6370506   1.1278830  62.8762741  51.5617180
  26.6149883  52.9161949   8.3578339  25.9711227  52.2641068   8.6343346
  27.2544785  52.9382057   9.0697308  80.3535843   3.6353784  57.3132591
  80.2948608   4.1251903  58.1335449  81.1399384   3.0983655  57.4107323
  29.8179417  57.5175133  38.0169716  28.8712749  57.3877258  37.9603004
  30.1917324  56.7311821  37.6192322  38.7140465  48.7974892  37.3688507
  38.4613953  49.0425606  38.2589836  38.2027359  49.3789368  36.8060799
  18.6881828  45.1867294  82.7801895  18.3364620  44.5027580  82.2103653
  17.9532700  45.4312592  83.3426285  73.4573364  13.8260050  38.1107292
  73.2412491  14.3270445  37.3242836  74.3952026  13.9703245  38.2364960
  25.8292332  55.9336281  57.6469040  25.1566429  55.7052803  57.0052567
  26.5687160  56.2379074  57.1207733  26.9901848  65.9503174   6.7116632
  26.1628704  66.3443527   6.9882784  26.9817581  66.0208969   5.7571063
  76.3923950  36.5526047  14.1820192  76.9236145  35.8238869  14.5029726
  75.7239227  36.6766739  14.8558025  11.3176870  10.6735344   6.8909435
  12.0401459  11.1146536   6.4440675  11.7412033  10.0025139   7.4262915
   5.0337486   3.4369087  51.7663574   4.5428371   3.1560099  52.5385818
   5.8899031   3.0196679  51.8619690  78.3714447  35.1700668  21.2300415
  77.6312180  34.9836769  21.8075790  78.9553680  35.7151833  21.7574139
  40.7359695  38.8545036  23.1583061  41.1315727  38.5206566  23.9634609
  40.0004082  39.3893967  23.4567604  53.8722382  31.8574696   4.7824683
  53.8497505  32.3353424   3.9533944  52.9530602  31.6786213   4.9808393
  82.4994507  59.5476189  26.9234219  82.9564209  60.1509361  26.3374043
  81.6061096  59.8883705  26.9688225  35.8516006  56.5705299  20.7036533
  35.7386551  57.4741096  20.9986382  35.4910660  56.0398331  21.4140129
  52.6719398  27.5969391  76.8685532  51.7343102  27.7878628  76.8936462
  52.9417458  27.6004868  77.7869415  31.6314297  65.0030899  59.3759995
  31.0438805  64.2474365  59.3769722  31.0872307  65.7300110  59.6787758
  54.3869019  49.8055573  87.1520233  53.8414650  49.7925568  87.9385071
  54.7007866  50.7079124  87.0931244  12.0213366  36.6265259  23.4864254
  12.8295584  37.0625496  23.2164364  11.4641695  36.6518135  22.7085056
  59.2270508  21.6178951   5.7068987  58.7834778  22.3312969   5.2480583
  60.0993385  21.5862179   5.3140383  85.9654465  51.3555756  12.0339136
  86.0320129  52.2380295  12.3987064  85.4447403  51.4640312  11.2380915
  52.2802505  31.8678608  57.0118904  52.9841385  32.2176514  56.4656143
  52.3234863  30.9206696  56.8807755   8.9185810  24.6772633  25.6888771
   8.3941422  25.3664589  26.0965595   9.7693787  24.7348156  26.1236897
  51.6275787  37.9379807   3.7406945  51.5498161  37.6103821   2.8446670
  52.5569534  38.1442108   3.8405008  86.8054047  66.4821167  46.8343544
  87.0000610  66.1262894  47.7013741  85.9042282  66.2101974  46.6606598
  59.4275970  34.3513451  36.1630974  58.7097855  33.8014259  35.8491478
  60.2133446  33.8232536  36.0218353  32.9230690  55.8252144  23.5345020
  33.0587769  56.3594933  24.3170376  32.2723808  56.3079414  23.0247879
  43.3187408  71.4904251  52.5593147  42.8291168  72.0312576  51.9396400
  42.8765259  70.6417618  52.5380020  50.1563263   8.1525183  75.9831619
  49.3708534   8.3367767  75.4680710  50.7669449   7.7625728  75.3576050
  58.6739464  20.8479881  -0.0531784  58.9083672  19.9529171  -0.2983842
  58.8009720  20.8776150   0.8950926  62.9555206  40.2591057  84.2623825
  63.3358803  40.4641800  85.1164932  62.2435493  40.8905525  84.1594086
  38.3116608  27.9961052  66.7277527  38.7750053  28.4731731  67.4161911
  38.8937607  27.2690887  66.5067596  45.7409935  10.2237835  39.2075882
  45.1622963   9.4877214  39.0086975  46.5598526   9.8155079  39.4886742
   8.3120928   1.7043760  25.9920998   7.8346095   2.5331628  25.9553032
   8.1868954   1.3171608  25.1257153  85.7056961  45.2818108  86.1018524
  85.0786133  44.6149216  85.8221054  86.1952591  44.8672409  86.8122635
  64.4732971  42.3329468   8.3904953  64.7035294  42.6402054   9.2673159
  64.3015137  41.3978882   8.5018015  82.1021194  26.8035545  71.2222900
  82.4436798  27.2695332  71.9854660  81.1557693  26.7746716  71.3630600
  44.6285858   5.3365026  71.5830002  45.5612488   5.5135212  71.7056274
  44.2892265   5.2150860  72.4697495  73.3647079  67.1432648  23.1235466
  73.9173126  66.3631058  23.1705379  72.5116043  66.8156891  22.8386879
  31.3350182  41.6158295   9.1951313  31.0878162  40.6911049   9.1968365
  31.5080929  41.8191833  10.1143293   6.6706524  16.0272274  10.7548218
   7.4185796  16.5642529  11.0164328   6.5264134  15.4398060  11.4966869
  27.1047001  25.3233719   4.6850467  27.9826355  25.6228104   4.9212608
  26.5161285  25.8895836   5.1842637  13.1294289  60.3166275  69.1485748
  13.6686802  60.2639809  68.3594818  12.2526751  60.0670509  68.8566055
  44.7222061  67.3766632  69.7674179  44.4931755  66.9793091  70.6075897
  44.6612587  66.6580353  69.1380615  64.4020309  46.3261414  69.4653244
  64.5052567  47.2555351  69.6697845  64.0085449  46.3151169  68.5928040
  56.7459412  71.3231354  78.0646591  55.8272705  71.5505066  77.9211960
  56.8709755  71.4159241  79.0091095  42.3532562  57.1027679  72.9649124
  41.9947929  56.7420540  72.1539688  42.6884918  56.3412666  73.4381561
   0.7452917  61.0860100  73.6887360   0.8217242  60.4821014  74.4274368
   0.6721320  61.9506493  74.0928116  77.3190689  28.3440208   2.9823925
  76.5925980  28.7029915   2.4728720  77.3626328  27.4239483   2.7220094
  54.4344940  10.9240370   2.7072947  54.8329773  10.1326008   3.0693340
  53.7305489  10.6017895   2.1444008  72.0197067   2.9638033  25.2761040
  72.3899612   3.6731327  25.8014565  71.5000534   3.4080381  24.6061459
  68.3010254  50.7196083  38.3671417  69.0694885  50.1744843  38.5360947
  67.5573807  50.1648598  38.6026917  75.5422287  23.6782131  35.4211502
  74.8971939  23.3586273  36.0520439  76.2428360  24.0454903  35.9601135
   0.0955226  35.7568550  43.8890419  -0.6245662  35.6377029  43.2697601
   0.8806564  35.5329208  43.3893890  23.8448124  16.8790245  50.6385727
  23.4924736  16.4080734  49.8833961  24.2372036  16.1974106  51.1841583
  55.2446747  56.2179146  45.5093803  55.8594666  56.4017830  46.2196312
  54.8169212  57.0572166  45.3395767  27.2205257  52.1866226  69.5682831
  27.0805054  53.1331367  69.5411911  26.4030209  51.8140182  69.2380066
  70.8373413  19.8429394  61.0604286  71.1248169  19.3638916  61.8376694
  71.3535843  20.6489239  61.0712814   6.9059496  19.9124775  31.0784359
   7.2064247  20.6592731  30.5605145   6.0118899  19.7548180  30.7750664
  69.8759155  70.2333450  38.5235748  70.7544403  70.5256729  38.2807388
  69.2891159  70.8556366  38.0938759  70.8868408  56.2588120  41.1216469
  70.7879333  55.3081398  41.0699425  71.1042786  56.5259209  40.2285614
  29.0085316  45.9409714  53.6160851  28.7576885  45.0636940  53.9053764
  29.3120766  45.8188744  52.7165375  53.5797043  37.8622284  86.9962234
  53.4844971  38.5126877  86.3004761  53.8460655  38.3691711  87.7632294
  79.9349747  63.4084930  84.5358505  79.1776657  63.9118156  84.2368851
  79.5634842  62.7261696  85.0950089  57.4596634  21.1494312  73.0550461
  57.9139748  21.2671165  73.8893051  56.9594574  20.3409977  73.1666794
  83.4785767  19.5462418  38.3686562  84.1160660  19.6067448  37.6571922
  82.8388901  20.2317486  38.1760139  84.6861954  43.1498756  77.3170776
  84.2082977  43.9660034  77.1694946  85.4301682  43.4034042  77.8633881
  26.6787186  25.1522579   1.8967547  26.8565845  25.2498531   2.8322067
  26.4528370  26.0346756   1.6025620  58.6721001  57.1723480  26.1022491
  59.5449638  57.2364578  25.7146511  58.7736511  56.5458908  26.8188152
  81.2557297  62.1428566  81.6760254  80.5398560  62.7673073  81.5584717
  81.9724960  62.6651993  82.0360870  29.1107197   0.9114290   2.1484244
  29.2024364   1.0529745   3.0906477  28.2075920   0.6142318   2.0376637
  10.3771162  13.7379026   3.5151424   9.9706354  14.3300991   2.8824430
  10.2958193  12.8707447   3.1180787  73.0279846  55.7743950  29.2785854
  72.2749481  55.1991653  29.1433811  73.5116959  55.3703957  29.9990273
  53.4030075  54.1757851   2.2917457  52.6213036  54.0797462   1.7477340
  53.4847527  55.1195412   2.4291060  63.6692772  20.2600307  87.8283157
  64.1364441  19.7576580  87.1607742  62.7986412  20.4010048  87.4563599
   3.0866854   4.1982474   8.7803535   3.5005748   3.7131581   8.0664806
   3.8040891   4.3979053   9.3817692   8.7757711  55.4400177  21.8144665
   8.6391497  55.2715874  20.8821583   9.6826143  55.7407227  21.8731575
  32.0012817  27.1745186  69.2912827  31.1341553  26.8171406  69.4825974
  32.6098518  26.5545940  69.6932373  13.7718029  47.6986160  42.7854004
  14.1343393  47.4258003  41.9425659  14.5379372  47.9142990  43.3171463
  41.5781174  46.8485413  10.6850300  42.5215378  46.6999702  10.7491770
  41.4935150  47.7904053  10.5368099  14.6489563  22.5920525  25.8909969
  14.5368605  23.3016472  26.5235653  15.4966612  22.7671452  25.4823761
  25.2001724   8.7906857  62.1051826  26.1248150   8.8332224  61.8613434
  24.8235512   8.1471415  61.5049858  69.8984070   8.9291372  17.3559475
  70.3609543   9.6768007  16.9774189  70.5703506   8.4545679  17.8453369
  86.2522659   4.8452692  40.4006729  86.6455231   3.9845526  40.5447159
  85.4528427   4.6636810  39.9065285  86.5741577  35.1554031  58.3625526
  86.5365753  35.5445061  59.2362900  85.9280090  34.4496155  58.3866768
   0.3217531  22.6689682  83.9901276   1.0452014  22.6116028  84.6142807
   0.4537475  21.9257717  83.4015121   7.8063531   4.4930816  86.7824707
   7.5060554   5.0144324  86.0379944   8.6264420   4.0997529  86.4841766
  56.5587883  44.8040199  12.1732321  56.5811119  45.1141243  13.0785332
  55.6663933  44.4792595  12.0532436  53.2599907  13.3660297  10.0049009
  53.8304405  12.8411198  10.5664053  52.4657326  12.8399925   9.9117575
  50.3378677  70.2912369  52.3247452  50.9039955  70.2930222  51.5529099
  50.3607216  71.1945190  52.6406326   4.1713610  42.0184021  10.9758101
   4.3340383  41.3206673  10.3410397   4.7005367  42.7530212  10.6651058
  55.4794502  10.1569433  38.4192467  55.8192253  11.0510807  38.3831749
  56.1994362   9.6139889  38.0982323  26.0520248  54.7333450  24.1077671
  26.0817318  55.1046677  24.9895096  25.9408627  53.7929497  24.2475262
  80.4442749  36.8669891  21.2028160  80.5367050  36.9734688  20.2560577
  80.9061584  37.6184464  21.5745773  75.7289047  52.1841965  41.1780243
  75.1449661  52.8925438  41.4491158  75.3409500  51.8502731  40.3691864
  65.0740128  69.0830460  81.6205521  64.8252487  69.8836365  81.1585999
  64.7014694  68.3765335  81.0930252   2.4918239  33.5845375  17.2520313
   1.9239273  33.3478317  17.9853077   2.7932749  32.7461052  16.9021912
  10.7145052  56.1799507  81.2844543  10.1101971  56.9124031  81.4051132
  11.5394344  56.5903015  81.0249557  18.6793346  71.3450623  47.2174149
  18.3549976  72.2449646  47.1825905  18.2812691  70.9174881  46.4591560
  50.5696297   6.9666204  26.6974030  50.9071007   6.4574890  27.4343777
  49.7798462   7.3866081  27.0381165  23.5977039  15.3313293  63.7300529
  23.0037270  15.0519991  64.4267578  23.1202488  16.0223618  63.2709885
  77.2255783  69.0873108  30.9530830  76.4209442  68.8035278  30.5191956
  77.8896484  69.0657883  30.2640400  10.4656754  40.1196747  35.8520546
  10.2717772  39.3433914  35.3266830   9.6103134  40.4221725  36.1571503
  20.3146477  68.4853592  84.8491974  19.5231056  68.6077957  85.3733139
  20.2847633  69.1899948  84.2020340  75.7836380  63.4449310  81.3648605
  75.8465958  62.6533890  80.8303223  76.2627640  64.1081619  80.8680801
  46.3177071  36.2900314  82.2029343  47.0057564  36.8097115  82.6185684
  45.7792320  35.9796028  82.9308853  23.7766113  43.3851852  67.8700790
  23.9035263  44.1180420  67.2675476  23.2206535  43.7392883  68.5641632
  20.7221146  22.2377129  87.3047028  20.3657227  21.7647495  88.0567169
  20.2719250  21.8601723  86.5490417  60.6441803  10.4205933   3.0288579
  59.8775406  10.8332911   2.6311421  61.2086487  10.1997194   2.2880335
  50.9132690  21.0999489  59.8677330  51.8318214  21.1040421  59.5985184
  50.9405403  20.9327164  60.8098183  27.3341427  66.3020935  61.1366997
  28.1553669  65.9196472  60.8275757  26.9968834  65.6668396  61.7683144
  64.0358124   0.3361228  63.5315170  64.9472504   0.6143932  63.6214447
  64.0752029  -0.6202069  63.5422020  13.9886904  40.6103020  56.4539604
  14.1552553  41.4789352  56.0879440  13.2613277  40.7420921  57.0620766
  16.8951187  60.4407463  60.5661316  17.2907696  60.2954178  61.4255333
  16.8343925  59.5671730  60.1795959  85.8026199  62.4838448  53.2212410
  85.4469070  62.6328888  52.3451767  85.6275787  61.5592880  53.3967094
  28.4537468  12.7519836  66.4013596  28.4892788  13.1778126  65.5448380
  27.5797634  12.9559746  66.7341843   7.1538210  17.3219490  57.1564255
   6.7583761  17.4103088  56.2892189   6.6452308  17.9118633  57.7128143
  56.5104637  10.3142834  31.3468552  57.4612579  10.2229233  31.4091187
  56.2047348  10.2589569  32.2522278  42.5660706  40.4917183  29.3808289
  43.0403099  41.2411728  29.7409039  43.1230087  39.7386284  29.5780735
  63.3953514   8.4376431  39.1013374  62.7005730   7.9765658  39.5713577
  63.7819405   9.0194578  39.7557640  26.4551754  18.8971367  76.4008484
  26.2662239  18.6887550  77.3157806  27.3373661  19.2682323  76.4169769
  55.8026161  41.8884277  12.5916805  56.3504448  41.2489395  12.1365242
  54.9937363  41.9176788  12.0807114   2.0310938  55.7187729  45.7484512
   1.3130912  55.7215195  45.1154442   1.6826414  55.2452354  46.5038147
  65.4176254  54.2369308  62.3181114  65.0895004  54.4134254  63.1998253
  64.6292725  54.1465302  61.7828064  31.9128132  29.0040569  73.2751312
  31.9329967  29.8741283  73.6736221  32.6019363  29.0286331  72.6112518
  21.5291729  15.5370646  65.5775833  21.2253685  16.4443932  65.6038589
  22.2241459  15.4980602  66.2346420  69.1050797  42.8405266  19.4560890
  68.2462921  43.2631989  19.4482193  69.6054916  43.3270607  20.1111488
  37.1772499   7.2882452  75.6755905  37.7764931   7.8668361  76.1471558
  37.7472115   6.6442680  75.2552719   3.5833101  20.6512108  14.3695793
   2.7724037  20.1443501  14.4114790   3.8506675  20.5999317  13.4519072
  50.9863510  62.3915405  82.8518448  51.2895470  62.4992867  83.7533417
  50.1138420  62.0071945  82.9369202  40.8430023  46.9277420  24.6979237
  41.2181091  46.8649483  23.8195248  40.4497337  46.0688400  24.8523846
   0.3566695  64.7888184  28.2727432  -0.4138741  64.5139618  28.7696838
   1.0985314  64.5397873  28.8239746  14.2341766  25.5206928  17.0645561
  14.0898161  25.1784039  17.9467278  14.3536587  24.7413330  16.5218277
  33.4765549  52.5046349  72.3668976  32.6515007  52.1957855  72.7412338
  33.7371063  51.8132782  71.7583160  17.2366028  17.7303677  69.1147156
  18.1579723  17.9861526  69.1581573  17.2565784  16.7779083  69.0216980
  56.7798157  47.4119911  81.6873932  57.6743584  47.1623116  81.9190979
  56.4816704  46.7172279  81.1003265   4.4012313  50.8619804  50.6174316
   5.1119108  51.3241425  50.1729431   3.8729405  50.4960327  49.9080505
  17.8288631  54.7273636  40.0025864  18.1167717  54.7096100  40.9152908
  18.4245625  54.1288605  39.5518456  79.8277588  24.9220695  27.3647652
  79.5785065  25.1253719  28.2663040  79.6046219  25.7110538  26.8708553
  28.1128311  19.5372257  72.8620605  28.6628094  19.5712814  73.6447449
  28.3578606  20.3164539  72.3630600  36.6204071  59.5306702  47.1382904
  36.3759346  59.8421822  46.2668381  37.2226753  60.1964149  47.4703903
  67.2804413   3.6154978  79.3456955  68.1928177   3.3264718  79.3293152
  66.8195801   2.9852824  78.7919235  80.7841263  32.6357613  85.6944122
  81.0902634  31.9679642  86.3080521  81.4452133  32.6461105  85.0022507
  36.7191315  32.8698921  64.6693115  36.9047012  32.2373848  63.9752426
  35.8867760  33.2679138  64.4143600  75.3737335  31.3641052  49.2235069
  74.6123505  31.3401356  49.8031197  75.8808670  32.1177406  49.5253067
  46.4172745  48.9522133  58.8757248  46.3507080  48.1469460  59.3888969
  45.7048645  48.8903160  58.2394295  50.3775520  61.7777748  71.4563522
  49.9731750  62.3366699  72.1199417  50.0252075  60.9051132  71.6311417
  70.1810150   3.1231999  14.6490631  69.6210098   2.3654637  14.8177614
  69.6448135   3.8768837  14.8953962  36.8571320  29.9035168   6.1886473
  36.7217445  29.1432705   6.7542686  36.0205154  30.0188446   5.7380824
  41.8003044  33.4582100  73.4666595  42.3442688  34.0497856  72.9466858
  42.4133682  33.0356750  74.0681992  78.3479614  40.0368195  79.3855591
  79.2159042  40.4023628  79.5566635  78.5213165  39.1982727  78.9577560
   1.4432373  58.9938393  25.2815685   1.0636367  58.8209953  24.4200230
   1.7526958  59.8981628  25.2298965   8.5315990  32.9232063  76.6104279
   9.4475899  33.1881065  76.6942139   8.4123898  32.2561340  77.2864685
  68.6030502  53.2095108  39.7189102  69.3432846  53.4397240  39.1573982
  68.3769913  52.3153992  39.4626122  81.2394714  62.6028328   4.8185382
  81.5577774  61.7096634   4.9495459  80.2914734  62.5386543   4.9343719
  73.7846909  48.8605499   7.3881326  73.8038712  48.8758888   8.3450174
  73.1655884  48.1632080   7.1721268   1.1913141  12.2703352  54.0760918
   0.2994723  12.4237328  53.7641335   1.7508452  12.5838642  53.3655586
  69.5632019  43.7301292  16.8173542  70.5168076  43.7549438  16.8964996
  69.2489243  44.2804146  17.5347443  51.1134567  54.7288666  73.0695114
  51.9073715  54.5664749  73.5789795  50.7601013  53.8571091  72.8922882
  25.8751945  61.6607971  67.5787659  25.8058052  60.8472900  68.0783920
  26.1524086  61.3828163  66.7057800  23.2986240  63.7862396  61.7997589
  23.3985367  62.9461174  61.3520508  23.8073349  64.4012299  61.2713318
  66.6639023   5.8949523  33.9999237  65.8742142   6.3375769  34.3109093
  66.3552246   5.3159261  33.3030167  50.1266632  21.8857460  57.5012245
  50.2170372  21.6517220  58.4249649  49.6139259  22.6940079  57.5079651
  53.0161285  69.1385269  29.0733414  53.9657326  69.0185547  29.0830650
  52.8369789  69.5634995  28.2345715  52.9909248  38.5451622  61.4407463
  52.6482964  39.0203629  62.1977272  52.5932693  38.9787636  60.6856995
  31.5312405  45.7149696  26.9608440  30.6609764  46.0226555  26.7074585
  31.5859604  44.8292198  26.6021233  61.2336464  63.1696358   5.6600847
  61.8634033  62.8118134   5.0343018  61.4596443  64.0976257   5.7232437
  53.0409889  53.9505348  75.3216934  53.9975891  53.9808731  75.3365784
  52.8327713  53.0264320  75.1841736  69.5512848  36.9001350  26.3206882
  70.1549149  37.6068649  26.5495720  69.8872757  36.5569038  25.4927177
  16.7972660  71.5763474   6.4732289  17.5742702  72.0482254   6.7729344
  16.6008492  70.9637527   7.1820183  43.8052750  67.0902939   7.3777518
  44.6801643  67.4584503   7.5012975  43.9209442  66.4180222   6.7062597
  23.8469963  15.5114002  82.6414261  24.5350609  16.0787659  82.2937241
  23.0600529  15.7666111  82.1599503  26.2579117  24.4574070  80.5566940
  25.8904762  24.9136906  79.7997055  25.9357338  24.9489517  81.3122177
  58.9884834   1.7289431  15.0760841  59.3794136   1.7525792  15.9494953
  59.1488876   2.6020989  14.7181711  43.3896484  21.0807743  36.3308258
  43.1733932  20.6793537  35.4892044  43.6465874  20.3458767  36.8877258
  13.7780771  58.9877892  33.8520317  13.3404636  59.5126419  33.1817665
  13.0873976  58.7778282  34.4806099  33.9159813   7.3602829  75.0880508
  33.7002182   8.2707214  74.8861160  34.8721619   7.3441916  75.1291580
  19.9255676   4.2346258  73.3050385  20.0015926   4.2257724  74.2591705
  19.3118572   3.5272312  73.1070938  39.6969948  44.3427505  63.6434441
  39.2832603  44.7766151  62.8972435  40.6325111  44.5101166  63.5292892
  29.0645504  44.2182922  62.7010460  28.6887169  44.2607613  63.5803528
  29.9595699  44.5405960  62.8073006  82.5519104  19.5676594  88.5749588
  83.4422302  19.2597561  88.7445450  81.9924011  18.9625168  89.0617676
  24.8954659  16.5515251   3.1597805  24.9596157  15.6259689   2.9242773
  25.7503662  16.9165688   2.9314768  18.7631226  58.6025887  58.4055748
  19.6073017  58.2573547  58.1150475  18.6408863  58.2321625  59.2796898
  79.8333206  12.7922659  11.4194098  79.5338593  13.4299374  10.7713919
  79.7955704  13.2618008  12.2526817  26.2482796   3.9218633   1.6406400
  26.3192234   2.9706481   1.7205654  25.9288540   4.2108822   2.4954314
  50.7573357  44.9772835  71.2603302  51.2888184  45.4113579  71.9276657
  50.4206085  45.6920662  70.7200241  56.8602943   7.4033747  78.9673920
  55.9477997   7.2658348  78.7130966  57.2431145   7.8855615  78.2344742
  38.0975914   1.1846921  43.2242928  38.1187439   1.7776172  42.4731445
  37.4881058   1.5960877  43.8370819  85.8506317  14.6680431  38.6740074
  85.7368927  14.1841526  39.4920197  86.4046860  15.4118223  38.9107590
  65.1402206   4.2670002  81.1738281  65.8723602   4.7540793  80.7957382
  65.5523071   3.5438995  81.6466293  28.7692871   5.1092968  84.9993210
  28.6820374   4.9850650  84.0542374  28.0938244   4.5467782  85.3782043
  63.1286392  23.1340332  84.1576157  63.7599068  22.4196301  84.2434006
  62.3118591  22.7748241  84.5041275  78.8007889  37.4694824  66.6616135
  78.3752899  36.6729622  66.9790115  79.7025681  37.4004936  66.9750900
  70.7391510  28.9813499  25.1354046  70.1653671  29.3653221  24.4724064
  70.5363159  29.4644012  25.9364986  85.4333496   6.1172299  51.3356857
  85.5544968   5.4056087  50.7070770  84.5703049   5.9557481  51.7168770
  13.5500984   9.4574337   0.0461655  14.0132532   8.6341438   0.2008010
  12.6279516   9.2438774   0.1885444  81.7685242  23.1405430  21.7928009
  81.8840714  23.7026463  21.0266933  80.9246292  23.4051590  22.1589298
  54.9489784  40.2201691  39.8925209  54.6731415  39.3059502  39.9584541
  54.6547508  40.4971390  39.0247917  32.2454376  33.8551750  68.1444168
  32.1394196  34.1736145  69.0408478  31.9125366  34.5661316  67.5967484
  30.5245762  38.8091545  76.4202499  30.7648067  38.0430069  76.9413376
  31.1869316  39.4647179  76.6387863  37.3456535   6.2308993  83.0550690
  37.8010406   7.0617537  82.9189301  37.0835915   5.9546976  82.1768494
  57.4018250  11.2107077  26.6378841  57.2649918  12.1320724  26.4174404
  56.7049675  11.0076904  27.2619095  51.4400711   3.2746906  21.2748871
  51.4188843   2.8256834  22.1199760  50.7306442   2.8736877  20.7727547
  15.2052526  45.1120872   2.9081995  15.0650244  45.1477737   1.9619997
  15.1903543  44.1781654   3.1174781  46.7845078  53.0842896  64.0511475
  46.9105148  54.0098381  63.8420601  45.8762894  53.0272942  64.3479996
  59.6142731  60.0899391   5.1851907  60.3331871  60.5590401   4.7617140
  58.8609047  60.2402954   4.6141720  71.4999008  68.5174255  88.7258682
  70.6095734  68.3260651  89.0207138  71.4336853  69.3743668  88.3045578
  53.0030861   2.7341609  58.5642662  52.6357231   1.8568403  58.6719017
  53.9373627   2.5862832  58.4176750  48.0728226  24.6658554  52.9805870
  48.3595200  24.7490425  52.0711288  47.9501038  23.7251358  53.1079369
  76.9057999  45.8372192  80.6996231  77.7144089  46.3347054  80.8216324
  77.0396271  45.0350456  81.2044373  26.6202431  51.0704079   0.6895064
  26.6531372  51.7053032   1.4050865  27.2826920  51.3743401   0.0690066
  56.4111481  43.4756470  67.1368179  57.2057571  43.9978752  67.0268021
  55.9247437  43.6052246  66.3226624  79.0121384  31.3928947  10.5648460
  78.3837585  32.0522804  10.8590803  79.5716782  31.2387829  11.3260260
  47.1466217  64.6096115  75.8009109  47.3579063  63.6854553  75.6684952
  47.6298141  64.8551102  76.5898895  86.8548126  59.0439148  19.6172981
  86.5698624  58.1917648  19.9472542  86.0942917  59.6130180  19.7354565
  69.4874725   8.4397535  36.9198456  69.4178772   7.7953615  37.6242218
  70.1774445   8.0988579  36.3506699  50.0595360   6.8348932  57.4588203
  50.9201355   6.4160786  57.4727592  49.8200188   6.9208317  58.3815765
  74.4672546  10.7537518  24.6970539  74.3818817  10.3024530  25.5368595
  74.0151138  11.5875015  24.8261414  18.9960499  20.1889763   3.1336493
  18.7489262  20.7171040   3.8927565  18.1740170  19.8005810   2.8342423
  54.2985725  59.7026405  29.3581448  54.9945259  59.6039925  28.7084160
  53.5843163  59.1571388  29.0287495  73.5170822  39.6638870  49.0004120
  73.7854462  39.7705879  49.9130058  74.1599121  40.1677094  48.5012512
  20.0523949   8.1988811  61.5700760  20.6680984   7.5035243  61.3385201
  20.5716209   8.8170767  62.0843468  85.4604568  48.0983849  69.8156967
  85.5620804  49.0313759  69.6274567  84.8107376  47.7954597  69.1813965
  70.6554871  38.3028946  85.4304810  69.7006683  38.3394699  85.4872131
  70.8536072  37.3725548  85.3234940  75.4527664  54.5653992  74.5185089
  74.7734299  54.0271034  74.9246750  76.1816711  54.5391197  75.1383743
   0.1912346  17.0328407  64.5389023   0.0823113  16.3854370  63.8423119
   1.1391172  17.1331844  64.6265411  53.0127258  51.5725708  71.0394363
  53.1907234  52.5124283  71.0044937  53.8057137  51.1654892  70.6906052
  67.1672058  29.9195843  60.4446907  66.3027344  29.7809200  60.8315887
  67.5806580  29.0565605  60.4666328  83.7490692  24.8872185  74.2462997
  84.0820923  24.4638844  75.0375748  84.4123230  24.7058620  73.5803909
   9.6387930   7.3584862  58.1319809  10.2106256   7.8881350  57.5763626
  10.1748314   7.1493654  58.8969421  68.3011551  14.4442654  -0.2564699
  69.0211945  14.1320658   0.2915397  68.0698624  15.2959099   0.1142546
  15.6412897  53.3200722   1.9092407  16.0224667  53.0712128   2.7512655
  15.8149004  52.5723572   1.3373902   2.5332968  47.6554260  27.2606277
   2.3281257  46.7247505  27.3499260   2.9020009  47.9018745  28.1088924
  72.2133942  69.7674561  28.8482609  71.6532059  70.2986374  28.2823524
  72.1268234  68.8783188  28.5045013  66.1261673  30.0703259  49.2857933
  66.8494263  29.9200478  49.8945198  66.0716019  31.0228920  49.2091675
  40.3169899  15.5880270  67.8713531  41.2624321  15.7358980  67.8938522
  39.9357452  16.4612160  67.9631424  64.8766937  59.5220108  29.0345821
  65.0485840  60.4479408  29.2058811  65.6247940  59.0645332  29.4183636
  13.7575674  48.7746658  68.6669083  13.4614182  48.0850754  68.0727768
  14.6275902  49.0107460  68.3451004  11.0400476  46.7030220   8.6257954
  11.1325521  46.0855217   9.3513060  10.6287260  46.1929054   7.9280658
  63.1310768   9.3081999  53.7631531  63.1261902   9.2194166  52.8100929
  62.4817848   8.6735029  54.0661621  63.2756004   3.8985164  26.7747993
  64.0700150   4.3843017  26.9965096  62.8750038   3.6958525  27.6201878
  76.2483063  51.3529434  34.3458061  76.1094666  50.4058800  34.3412399
  75.6217041  51.6837730  34.9893570  54.2026367  71.8927841   2.9080460
  53.3801003  71.4275208   2.7557471  54.8444977  71.1999054   3.0634964
  72.7326279  39.8675919  24.0592613  72.9957352  39.1186333  24.5941124
  71.7856140  39.9299583  24.1838169  64.2308197  20.2089024  20.4093704
  63.8493195  20.9698219  19.9715500  63.6816330  19.4744587  20.1351109
  72.9864349  63.2865486  52.1149368  72.1997375  63.5074043  52.6134872
  73.1369705  64.0482788  51.5551720  82.6566467  41.9945259  27.3072147
  82.5552673  42.0976410  28.2534294  83.4701843  41.5004311  27.2059326
  31.7270870  48.2684708  45.3558121  31.6265450  47.9486542  44.4592438
  32.2457047  47.5937691  45.7940369  59.8458595   0.5253853  26.1840305
  59.8268661  -0.2570759  26.7350540  60.7351418   0.5479223  25.8306217
  43.4143639  58.4123001  53.2609367  43.0479736  59.1393929  52.7576180
  43.0784035  58.5416565  54.1478615  85.3762589   6.0837746  20.1522961
  85.8485794   6.7576871  19.6634312  85.2036667   5.3971987  19.5080471
  47.6007462  58.0187683  39.7607880  47.9886093  57.2779922  40.2266655
  47.8291969  57.8707352  38.8431091  28.2356644  65.0092087  19.3088779
  28.8509235  65.3927155  18.6838932  28.7907295  64.5616989  19.9475288
   3.0304718  33.8745651  13.5937538   3.8304355  34.0749893  13.1078320
   2.4204154  33.5544853  12.9292145  43.2115173  52.1144447  25.9108887
  43.6416321  52.4761887  25.1360493  43.1302834  51.1789970  25.7249527
  79.4249802  18.7734623  55.7311440  79.0139008  18.2102661  56.3869324
  80.1494904  19.1925163  56.1955910  24.3955765  32.2136993  64.2053223
  24.2259083  33.1380081  64.0233841  24.9594250  32.2214088  64.9787827
  45.8004570  58.8237953  59.4581146  45.6807251  59.6627808  59.0131493
  45.1728401  58.2371178  59.0360451  18.0582542  21.8140259  60.4154396
  18.3522625  20.9122486  60.5442390  18.8653469  22.3281384  60.3926315
  21.4877625  42.9029884  12.9597902  21.7294807  43.3248100  13.7843313
  21.1087551  43.6065445  12.4329214  33.4602852  46.3791962  46.5320587
  34.1281586  47.0336227  46.7367668  33.1162872  46.1132011  47.3847847
  54.1479301   8.3520708  19.1984673  54.8557243   8.0881605  18.6105785
  54.2036514   7.7384400  19.9309883  84.0685349   5.9709611  62.8399887
  84.9947281   5.9781919  63.0815163  83.6360397   6.4679093  63.5344124
  19.9089565  68.8404770  62.0928307  19.4590511  69.1488113  62.8794327
  20.8091202  69.1494675  62.1951103  46.8594246   3.8130352   4.5483661
  47.7891998   4.0386539   4.5192389  46.5725975   4.0911989   5.4181862
   4.1325469  52.5071411  76.1571350   3.9277556  53.1677895  76.8188324
   3.7459543  51.7000542  76.4968262   7.0146585  23.9259243  61.8382339
   6.9932165  24.6976166  62.4041481   6.3234153  23.3588982  62.1801338
  70.0620499  17.1615353  77.0835342  70.3107376  16.6808071  76.2940445
  69.2057495  16.8056679  77.3208923  73.3898926   3.8156481  28.2095718
  73.8313370   3.9146254  29.0531120  73.8014145   4.4704852  27.6455936
  33.7867241  56.9515762   0.5017586  34.1402855  57.6761551  -0.0141961
  34.4199715  56.2432861   0.3853555  53.8918686  66.8277893  46.0335007
  53.0221634  66.6847916  46.4068604  54.2577324  65.9487686  45.9350319
  62.6431351  55.5682793  43.4943237  63.3669243  54.9816132  43.2748146
  62.3038177  55.2303314  44.3231125  61.9124222  51.3137016  66.2478485
  61.0880737  51.5116310  65.8034363  61.8762398  50.3712158  66.4110794
   9.8300056   4.0632277   8.9294291  10.5203362   4.7107220   8.7865047
  10.2917900   3.2865257   9.2452164  48.9185982  26.9827309   1.1278913
  48.1897964  27.1152229   1.7341312  48.6753502  26.2038231   0.6275254
  75.5641251  46.7378502  70.6345520  75.0150223  45.9739990  70.4577789
  76.1390610  46.4596939  71.3475113  43.1188354  60.3241959  67.1439514
  43.7288170  60.3354836  66.4063721  43.6050491  60.7275734  67.8630524
  48.9320107  44.9049110  42.4117279  48.2250328  44.6526184  43.0056686
  48.9836311  45.8573647  42.4917564  12.4237652  18.7528954  66.6838531
  11.5558662  18.6516685  66.2930374  12.2504206  18.9505005  67.6042557
   3.4129665  69.7555237  14.3832855   2.7836263  70.3790817  14.7456846
   3.4637520  69.0587997  15.0376768  51.1224327  29.7452927   6.7646275
  51.1879005  30.3950615   6.0648093  51.1214943  28.9029350   6.3100238
  36.2162590  20.9653053  12.0735369  36.6628494  21.7168694  11.6837416
  35.3163948  21.2635860  12.2058268  39.0835609   8.5639744  67.4710999
  39.4426270   9.4482193  67.5446854  39.7744560   7.9957962  67.8117828
  27.2623749  51.8933220  57.7231827  26.3582134  51.5949020  57.6248550
  27.6004696  51.9319916  56.8285141  73.2708817  41.1845169  40.8523903
  72.5766830  41.1800919  41.5114021  72.8089371  41.2706566  40.0184708
   6.0859838  33.3879700   3.7112215   5.4935884  32.8391838   3.1972799
   6.3503561  32.8331223   4.4450369  13.9501276  47.2702827  71.7672577
  14.6121740  46.5855484  71.6720657  13.1246796  46.8372574  71.5496445
  13.8948030  36.3465805  85.8467102  13.8591194  35.4407082  86.1538773
  14.6643391  36.7161598  86.2796783  53.7783775  20.2319546  31.6757336
  54.0579567  20.6801910  32.4739494  54.4245720  20.4888191  31.0179443
  56.1205330  20.6833973  16.1293392  55.3583794  20.5901241  15.5578022
  56.7995682  20.1538124  15.7113914  82.6783676  61.8611794  24.6863327
  81.8362579  62.2902107  24.5346241  83.1387177  62.4439354  25.2902374
  82.4153595  42.3731232  52.8840446  81.6758194  42.1140976  52.3343086
  83.0820160  42.6697159  52.2645035   1.8359125  49.0135460  55.8014984
   1.5031737  49.0226440  56.6989594   2.5729010  49.6242409  55.8130951
  44.5335274  19.5643082  19.2834835  44.1469803  20.1661701  19.9195480
  45.0060081  18.9242802  19.8157959  42.7212143  55.8149109   9.1962729
  43.3754807  56.4283829   8.8618813  42.8983765  54.9980240   8.7298565
  50.4697189  17.2252331  35.9495049  49.9256821  16.6628399  35.3981705
  49.9990730  17.2723618  36.7816734  70.8675919  51.8919983  66.5227356
  70.0230331  52.1992607  66.1932678  71.5127716  52.4396667  66.0754776
  62.8179588  57.1519470  15.5411272  62.6827164  56.7284088  14.6934500
  62.3340111  56.6065826  16.1612873  69.8962326  23.4615307  85.7532959
  69.9690094  23.1946335  86.6696472  69.8165970  24.4148140  85.7870865
  63.9541550  41.8875237  29.8788185  64.4177780  42.6155968  30.2925739
  63.9574814  42.1008034  28.9456882  23.8175030  71.3329468  66.8519745
  23.8023987  72.2899780  66.8619232  23.5979271  71.0993042  65.9500656
   7.6976709  63.0540009  34.6606674   6.9138165  63.2858887  35.1586952
   7.4089613  62.3585243  34.0697441  60.1498260  63.7718887  78.7949371
  59.3534126  63.7126503  78.2672577  60.5511894  64.5997314  78.5307083
  56.2943649   3.9327235  53.0305328  56.6241989   4.2844114  52.2036362
  56.2573509   2.9865310  52.8905983  67.1532135  53.2493820  78.9493103
  67.4082336  54.0678978  79.3750229  66.2924271  53.0468903  79.3157425
  20.5654430  68.4445877  65.0095139  20.2278690  69.3072739  65.2504501
  21.2099571  68.2416916  65.6875000  26.9650097   4.7269402  74.5795135
  26.3224354   5.4276404  74.6906509  26.9577618   4.2605367  75.4153671
  74.9872589  41.4028015  22.9216843  75.7247162  41.3181229  23.5260220
  74.3710327  40.7249947  23.1993122  64.2483063  54.1739998  74.0539932
  63.9118729  55.0060692  73.7212677  63.7869225  53.5080643  73.5442047
  65.4531784  23.3283329  22.3549290  65.6039276  22.5126247  22.8325577
  65.1383438  23.9405975  23.0199432   8.3317413  44.7237816  14.3555765
   8.6297159  43.8141479  14.3585920   7.3824821  44.6645050  14.2477541
  80.3929672  42.3662376  10.0370903  80.9759064  43.0093193   9.6335344
  79.6871872  42.2503090   9.4009523  16.8847351  29.5891647  82.1921005
  16.9406509  29.8418217  81.2705383  17.2709713  28.7139435  82.2243576
  46.1405754  49.6597633  76.9111938  46.8325272  50.1283302  77.3779602
  46.5031166  48.7871208  76.7585831  63.2605057   4.1094952  48.0600929
  62.4625893   4.0749235  48.5876961  63.9703598   3.9921842  48.6914215
   8.8024492  30.1704159  50.0929527   8.4417982  29.2837658  50.0891075
   8.4718342  30.5669613  49.2869263  49.4924469  46.3655930  17.0166607
  49.6833382  45.5109634  17.4031811  49.4703674  46.9659462  17.7618599
  44.2913055  29.8441238   0.0229704  45.0244980  29.7731571   0.6342204
  44.5943794  30.4600487  -0.6441231  15.7592726  30.8446369   8.2290230
  14.9813395  30.3181267   8.4129791  15.9094620  31.3395710   9.0344515
  46.8489494  58.9200745  87.0592270  47.7483788  59.0367470  86.7531967
  46.7800026  57.9844170  87.2490158   8.9134111  68.5441360  19.9002228
   8.7407427  69.3992157  19.5061989   9.8632298  68.4408875  19.8417702
  86.3023376   4.6531577  22.1284847  86.0187988   5.2416315  21.4288158
  86.9586868   4.0907879  21.7171803  72.3443909  51.3367157  51.4004822
  71.6607208  50.8186417  51.8252449  72.3060913  52.1877060  51.8370361
  60.5829086  25.0641613  42.2220764  60.3304710  24.3516941  41.6348000
  60.8446159  24.6258049  43.0317612   5.3722525  30.5194836  77.2582703
   4.4333029  30.4576015  77.4337006   5.5386839  29.8417320  76.6031418
  21.4539433  50.0098572  52.0638428  22.2558670  50.3366013  52.4717484
  21.4770794  50.3621407  51.1741257  74.0610733  61.7232971  57.2951546
  74.1603851  62.1048508  58.1673851  73.5919800  62.3903427  56.7939224
  63.3238869   1.9041389  22.1491451  62.4484673   1.7255445  22.4926281
  63.6496162   2.6257792  22.6870728  15.0256481   6.8273401  88.9549179
  15.6976175   7.0012069  88.2957840  15.5127287   6.7266951  89.7727585
  39.6848564  17.5313091   6.9416790  39.8957901  17.3979435   6.0175829
  39.4679451  16.6573849   7.2663851  55.6323509  52.9683418  41.0567741
  55.2847672  52.7131042  41.9113350  56.3796616  52.3863831  40.9186401
  47.4687767  25.6246548  75.4353790  48.4148026  25.5415611  75.5552292
  47.2589417  24.9971275  74.7437057  38.4370995  42.0023651  51.8577614
  38.0195847  41.7987061  51.0208435  38.4204826  42.9581337  51.9074059
  82.5789642  53.8056564  65.3848877  83.0415878  54.6161079  65.5979004
  83.1400986  53.1115685  65.7307129  37.2173157  59.6881561  58.8906288
  37.4076729  60.5465355  59.2690201  37.0957756  59.1145134  59.6471977
   2.4056709  43.1636963  43.9727287   1.5574692  42.7213249  44.0057602
   2.7613032  43.0660172  44.8560257  27.8601875  57.3820343  43.9384918
  28.5245819  57.1979218  43.2744789  28.0317039  56.7449760  44.6320114
  80.9590607   1.4672233  70.9689178  80.8401947   0.7149218  71.5486984
  81.1787720   1.0831214  70.1201401  82.7935104   5.5225077  52.7806587
  82.1173325   5.9193449  53.3297768  83.0338516   4.7180958  53.2404327
  15.9777279  27.6004620   7.1268382  16.3402576  28.4336567   6.8258524
  15.1681786  27.4968758   6.6267061  51.9198685  63.6699066  46.1499252
  52.7524071  63.2035675  46.0748444  51.8585014  63.9028130  47.0763283
  42.9563942  40.3122253  80.9197769  43.7770958  40.7635498  80.7223282
  43.0246010  39.4774780  80.4563370  43.5232735  44.8032265  16.8012848
  43.4053001  45.7417679  16.6548271  42.9904099  44.3863106  16.1241837
  86.0589447  15.9298744  43.0884438  86.8916550  15.6178007  43.4426270
  85.4370117  15.2297058  43.2864265  49.0280113  22.4057407  79.6330261
  48.4713478  22.4788456  80.4082794  48.6871262  23.0665379  79.0302200
   7.9089675   6.9111943  70.7892380   8.4566936   6.6805000  70.0389023
   8.0022745   6.1719937  71.3901672  15.3722191   3.9423637   8.0518475
  16.2295761   4.0281992   8.4687452  15.5692291   3.8011508   7.1258464
  78.1158142  38.4378281  26.8323669  78.4585114  38.6013908  27.7110233
  77.2412033  38.8266983  26.8401756  66.0112305  68.0837326  50.6180420
  66.3712921  67.3220901  50.1636238  66.7425919  68.4223938  51.1344185
  45.7067413   3.8153806  34.2008476  45.7354698   3.9773104  33.2578850
  45.3149910   4.6077704  34.5681152  46.6951447  13.6054792  18.1449642
  47.2458687  13.8396940  17.3979168  47.0722656  14.0874557  18.8809757
   3.0856249  71.7432938  52.2151222   3.5891347  70.9418716  52.0721855
   2.2345152  71.4385300  52.5297050  57.5103264  41.7875748  23.9352188
  57.0338707  41.2077980  24.5294228  58.4119148  41.4669838  23.9595108
  30.0530853  44.3371353  13.1059380  29.2540989  44.2500648  12.5860605
  29.7688408  44.1911507  14.0082264  84.2126923  37.1383400  31.4755249
  84.6456299  36.5083885  30.8993702  84.5018311  36.8963203  32.3553276
  52.1972351  33.6408234  73.4348984  52.6479378  34.4676285  73.6066208
  51.7566299  33.4326096  74.2587585  35.6478462   1.5963005  64.8102341
  36.1335526   2.1694338  64.2170792  36.0060158   1.7894293  65.6766357
  60.9393997  66.5255585  85.4845123  60.4298935  67.2804489  85.7790756
  61.0114899  65.9681778  86.2593460  78.5061035  -0.0809596  39.5997620
  79.2548828   0.4547135  39.8617020  78.3205566   0.1900699  38.7006798
  48.2584877  47.9717636  29.1716595  48.0632401  47.1403656  28.7393551
  47.5633774  48.0726204  29.8219547  76.6434250  55.3743248  16.8662243
  75.8709106  54.8794250  16.5932102  76.6450577  56.1468277  16.3010101
  16.0858994  69.4299698  55.4962234  15.6770086  69.1579971  54.6745949
  16.7879753  68.7945633  55.6361885  75.7022476  13.9868116  88.9327011
  75.7113647  14.9289255  89.1017303  76.6086655  13.7746601  88.7099228
   2.8952270   4.7507691  71.7546158   3.2387550   4.6686974  72.6442719
   3.6473286   5.0294690  71.2322159  73.7324677  20.9275818  73.3313217
  73.2323685  20.1162891  73.2422409  73.2058334  21.4703674  73.9180756
  24.8983097   4.8161125  45.2356911  25.5147381   4.1934490  44.8502846
  24.8317070   4.5506363  46.1529236  49.7620316  10.7921839  21.9886551
  50.3213577  10.5165396  21.2624283  49.8315697  10.0825396  22.6272488
   6.6399946  24.8746433  72.2349930   7.1666102  25.5612469  71.8257446
   7.1080313  24.6632252  73.0427551  80.4181366  26.3870888  84.6252975
  80.7701111  27.1665840  85.0551071  79.8068695  26.0176182  85.2625427
  50.6201591  68.2715988  20.6095295  50.1791573  69.0868988  20.8483486
  50.0463257  67.5821533  20.9436092  80.1428146  53.7890854  32.0877228
  80.1858368  53.2225227  32.8580360  80.1930161  53.1875343  31.3448582
  11.8192692  43.9990692  88.0083313  11.1055393  43.4427185  87.6964111
  12.5517149  43.3972359  88.1408081  80.9591751  43.8711815  49.0808830
  81.6166992  44.5391960  48.8868256  80.5893936  43.6441116  48.2276955
  37.5246391  21.7248116   1.3123578  38.2315178  22.3458805   1.4879385
  36.7537117  22.2737064   1.1687679  44.5046921  65.6836624  41.2636681
  43.9141464  65.3237228  41.9254341  43.9394531  66.2122040  40.7003021
  31.5165939  61.8962326  17.3728542  31.4358711  62.8080368  17.0929832
  30.7783775  61.7618637  17.9671707  23.7907200  18.5680847  85.1074142
  23.6628265  19.4672661  84.8051758  23.6199913  18.6051712  86.0485382
   8.4423590  17.7718391  12.1690655   8.4413242  18.6715050  12.4959145
   8.4003506  17.2305565  12.9574070  19.3205414  63.1175346  66.6676559
  18.5609150  63.2095032  66.0925598  20.0741158  63.2442932  66.0912094
  62.6229744  52.8032455  72.1012573  62.5082893  52.4502640  71.2189407
  62.0623055  53.5787277  72.1237335  69.6748657   1.0349488  41.6778831
  69.5060577   1.9448996  41.9222679  69.0346222   0.8486619  40.9911461
  28.8387775  42.5144081  76.7207642  28.7059479  42.4869194  77.6683044
  29.6635361  42.9869728  76.6081390  45.5528831  57.4293404  66.4661865
  45.9441490  57.0880013  65.6620560  45.5925827  58.3805428  66.3668442
  80.0757904  11.7293453  56.9215851  79.8484268  11.6450911  55.9956055
  80.0534286  12.6715374  57.0889359  84.5472794  29.0995007  72.9950409
  85.3500443  29.0987282  73.5163803  83.9141006  28.6203156  73.5295563
  84.5772629  51.9349327  23.3376560  84.0623779  51.3269920  22.8070564
  85.3493881  52.1236038  22.8043118  10.5648460  12.2547636  29.4139519
  11.3232870  12.0690174  29.9675751   9.8469906  11.7692394  29.8203773
  63.0672722   6.2896843  17.2602825  63.9150467   5.8847375  17.0771694
  62.4705467   5.5512986  17.3825035   7.7843742  24.4105835  84.6083069
   7.3842773  25.2201881  84.9256363   7.3850393  24.2663078  83.7504349
  42.6412048  15.2838688   9.9622593  42.2513618  15.8320112   9.2812357
  42.5361557  15.7910280  10.7672348  27.3472443  42.1886215  37.4453239
  27.0285015  41.3285866  37.1714935  27.8640499  42.0132751  38.2317047
  59.0821152  51.5091934  71.1220016  59.7069206  50.8623543  71.4497910
  58.2794647  51.0106850  70.9687958  15.4402809  66.6235428  67.6049500
  15.2838984  67.0322418  68.4562683  15.2561588  67.3154526  66.9696579
  51.0590973  26.1734371  17.0273018  50.1437187  25.9384441  17.1792641
  51.0172501  26.9664955  16.4929428   5.9356461  35.8365097  47.7698059
   5.5564394  36.6309624  47.3939400   6.3105431  35.3726654  47.0211220
  78.2673492  19.4726925  72.6252213  77.4217682  19.8246098  72.3470459
  78.7583084  20.2377911  72.9249115  26.3438854  57.1162796  47.1831589
  26.1788578  56.4711456  46.4955559  26.9914589  56.6998329  47.7518845
   2.6787658  14.4978161  68.5276108   2.7828727  13.5877180  68.2499161
   3.5720761  14.8390789  68.5696640  58.5460815  37.1077118   1.9911730
  58.4471550  36.7002945   1.1306758  57.6496506  37.2809525   2.2786348
  15.8215561  64.3888931  73.6914825  15.7252054  63.4816437  73.9810333
  14.9529781  64.7724838  73.8125839  26.0528946   7.4924312  10.4982929
  25.0980644   7.4255462  10.5059700  26.3509369   6.7205873  10.9796028
  83.1341705  69.4092331  44.6395874  83.8725815  69.9240875  44.3141708
  82.5625916  70.0505447  45.0617752   8.9158335  29.6148605  68.5542068
   9.7767458  29.6799984  68.9675064   8.6897802  30.5171013  68.3281784
  14.3562002   0.7514316   5.5037208  13.8445349   0.9176984   6.2954187
  15.2397127   0.5687514   5.8235092  84.8221970  53.6494789  42.7268486
  84.1680984  53.1695137  43.2348061  84.4821167  54.5431023  42.6819649
  49.4112511  17.7123318  67.6301422  50.0010567  18.3356552  67.2060776
  48.7596817  18.2594433  68.0687332  71.1628189  69.6235886  67.8489990
  70.4619980  69.1392288  68.2854385  70.7077560  70.2166672  67.2511673
  82.6742630  27.4603500  74.0330048  82.5451202  27.8039284  74.9170380
  83.0339890  26.5834961  74.1670074  42.1752167  57.0807953  65.1466370
  41.3029671  57.3678284  65.4168777  42.5206299  56.6148338  65.9080887
  15.6252089  11.7646685  67.3284378  16.5085239  11.4039030  67.2520523
  15.5350294  12.3401737  66.5689011  66.3239136  51.4604263  29.5383606
  65.7875137  50.7691002  29.9263954  67.2154770  51.1127968  29.5606441
  43.8879013   4.0206838  78.2777939  43.0842667   4.1136084  77.7661591
  43.8420410   4.7238455  78.9256287   7.2744694  71.1578293  78.1237030
   7.8219576  71.9210434  77.9393463   7.7880921  70.6384125  78.7422791
  66.4695587  21.8445435  45.3330994  66.9066467  21.1808033  45.8666115
  66.7218399  21.6335354  44.4341774   7.7301335  65.6142273  40.1693687
   7.8285470  66.2469864  40.8808174   7.1419992  66.0426407  39.5474434
  84.1322708  61.2131653  28.7636795  83.3796692  60.7162857  29.0845165
  84.7905655  60.5478821  28.5629768  82.2862167  21.0355167  70.2876740
  81.9218521  20.6523743  71.0855865  81.7375336  21.8011494  70.1174316
  72.7733459  41.1241226  28.2057323  73.5431137  41.0195503  28.7649727
  72.9530563  41.9142303  27.6961575  24.0688324  25.9174919  63.9314804
  23.4215107  25.9705753  63.2283516  24.1588058  26.8182011  64.2427063
  50.5629616  49.4598618  29.5423870  51.2494354  48.9169388  29.9299679
  49.8313522  48.8583298  29.4040527   7.1315246  32.8754959  86.6815948
   7.6945553  32.4423599  87.3231735   6.4237461  32.2507401  86.5236053
  18.9198990   1.6746134  79.9588165  18.0035038   1.7093164  80.2331238
  19.2755661   0.9079551  80.4082184  54.4495468   1.3424758  18.9114437
  53.9908981   1.1163428  18.1022873  53.9582825   2.0834689  19.2661552
  49.6900635  69.2717285  42.1697464  49.8947716  69.4525833  43.0871429
  48.7383385  69.3581924  42.1151695  36.2270775  32.6175728  73.3687820
  37.1618004  32.8193779  73.4112320  35.9773636  32.8274689  72.4688797
  43.3656311  42.4398575  82.5959320  43.0599632  41.7742767  81.9796524
  43.6956596  43.1465416  82.0410309  72.2123642  21.9770794  22.5474339
  72.9422684  21.6268272  22.0367622  71.5544968  21.2819271  22.5328636
   2.3325999  23.5231094  14.3530006   2.6086240  22.6743240  14.6988411
   2.4653220  24.1323051  15.0792913  82.8113327  15.0877075  32.7955704
  82.8576050  15.9868240  32.4704857  83.5637665  14.6500435  32.3974190
  68.2057114  35.6516151  55.0871468  67.6360474  36.2356529  54.5865250
  68.9847336  36.1765327  55.2710266  28.6259670  66.9366226  31.7593803
  28.6387749  66.7238464  32.6925430  28.7856064  66.1008530  31.3209381
  15.3786478  12.6490631  10.7493219  15.3066874  12.3215866   9.8527660
  15.5881653  11.8744507  11.2711544  68.6206818  14.2808552  12.2947950
  69.1861267  14.8065062  11.7289410  68.9376602  13.3844824  12.1840229
  17.6023693  65.8594360   6.8294511  17.9334221  66.5094299   7.4492459
  18.2518692  65.8462601   6.1264515  68.8084717  23.1317673   7.2481060
  68.2362137  23.8242435   6.9176073  69.6944656  23.4521427   7.0789618
   6.9299889  13.5441456  68.5204086   6.9546223  14.2443323  69.1726074
   6.3574653  13.8794947  67.8304901  86.4853668  46.7538567  88.9063187
  86.2803040  47.5516968  89.3937912  85.6315842  46.3933945  88.6668167
  67.3650894  14.6399755  23.2318459  67.8425064  14.8562613  24.0327950
  66.8262100  15.4118280  23.0583878  42.5526543  40.4905281  36.1844978
  41.7272720  40.8649406  35.8766251  43.2262497  40.9535332  35.6863785
  34.7355804  58.7148857  64.5899124  35.0566597  58.3659363  63.7584229
  34.6235962  59.6518250  64.4291916  38.0010567   4.2197223  16.9383297
  37.3351517   3.5861773  17.2055779  38.2258530   4.6851597  17.7439766
  79.1623764  37.3654099  81.5415192  79.2365112  36.8266716  80.7537994
  78.2532501  37.6649437  81.5421448  14.8724909  58.7002335  46.8737373
  15.0301352  58.7592888  45.9314575  15.7414570  58.5729904  47.2544441
   5.8865604  35.1403656  17.8340664   5.7755532  34.3528404  17.3014202
   6.5193791  34.8876190  18.5062943   8.1336651  71.0954361  64.7618408
   8.9778280  71.3427429  64.3843994   8.3570852  70.5095139  65.4850311
  80.0923004  48.6693230  44.3993187  79.3342896  49.2100296  44.6213303
  80.0844498  48.6269379  43.4430923  47.1937943  65.2264557  37.4128265
  46.2406349  65.1507874  37.4575119  47.4100151  64.9986420  36.5086212
  44.5018578   5.3925734  30.1260910  44.1115341   5.8382845  30.8779049
  45.1869240   4.8409958  30.5038204  25.4884243  18.5692310  73.9061584
  25.9660110  18.5453606  74.7353592  26.0478020  19.0814476  73.3222351
  79.0069656  26.9669437  57.3525887  78.9357681  26.0605755  57.0531578
  79.6792145  26.9421196  58.0335388  49.2810478  67.7060318  51.5941544
  50.0860405  67.4546127  51.1413689  49.4567757  68.5874405  51.9234962
  18.4213963  62.5423660  28.3468933  18.3815975  62.5198212  29.3029995
  19.3551388  62.6104088  28.1475792  72.5777283  20.1616955  50.4309692
  72.4591751  20.9675083  50.9338036  71.7099533  19.7579536  50.4174500
  51.9105492  69.0479736  61.4889946  51.3492851  69.5379562  62.0899391
  52.6637154  69.6206436  61.3440018  61.5558739  22.3827419   1.9490848
  60.8180275  21.9991875   2.4231114  61.1778412  23.1251068   1.4776859
  74.1452637  37.6496887  61.4268837  74.4523239  38.4694786  61.0397263
  74.5747528  37.6127739  62.2815208  57.0414124  40.7601624  79.6557846
  56.6857605  41.1272163  78.8464508  57.7677307  40.2066612  79.3688583
  52.5006828   1.0843390  63.1565361  52.8976784   1.8749710  63.5219498
  51.7139168   1.3961256  62.7093010   8.9558344  70.3169327  51.0577164
   9.2528143  69.6493607  50.4393463   8.0108614  70.3717880  50.9154129
   1.9129206  26.3804150  52.9097404   1.7741971  25.4597301  52.6876411
   2.7671261  26.3965950  53.3413696  67.4900360  58.0600891  87.6147995
  68.3523254  57.8529625  87.2545395  66.8771210  57.8297462  86.9165802
  81.4804077  47.8204994  46.6875191  80.6614151  47.4900398  47.0566864
  81.2439804  48.1192093  45.8093910  60.4073029  59.2532501  41.1552887
  60.9436874  59.2528267  40.3624954  60.3962822  60.1681366  41.4365234
  45.8126030  49.5362587  14.8462152  46.7094841  49.3440170  15.1198587
  45.5006180  48.7192993  14.4570198  25.6628304   5.3491659  20.4380798
  25.7287979   4.6949544  21.1336994  24.9250660   5.0563688  19.9030991
   0.4479899  12.6679039  80.6490860  -0.1284882  13.3829536  80.9185486
   1.2179406  13.1050816  80.2853775  44.0385742  67.1486435  50.3242683
  43.7870789  67.6539993  49.5512276  44.9783669  67.0008850  50.2185020
  54.6210938  20.9434357  34.9212646  53.7694893  20.5267811  35.0531693
  55.2058868  20.4908180  35.5290413  30.7374058  28.8031750  83.6759720
  30.4800377  29.1471577  84.5313492  31.5594196  29.2506828  83.4753113
   7.8025603  41.1426849  22.6870461   8.0531054  41.9026985  22.1618443
   8.5910511  40.6007385  22.7154655  65.5276871  71.7274094  39.8096619
  65.7747726  71.7109756  40.7342758  64.9772797  70.9527206  39.6950226
  77.3897476   6.3838539  68.8812408  77.3383865   5.4995470  69.2440033
  78.2623901   6.4322939  68.4908905  13.1580229  10.6123219  82.1464615
  13.0084753   9.6674280  82.1141891  12.8579235  10.9315176  81.2954102
  54.8088837   0.3444191  21.5631027  55.5324173   0.9553528  21.7027092
  54.4705238   0.5680108  20.6960678  35.9937210  63.1160164  31.3226795
  35.2728462  63.7439461  31.3702965  35.8426933  62.6394272  30.5064144
  49.3178520  12.6991348  14.6435957  49.9682541  12.0569935  14.9279585
  49.2069397  13.2778616  15.3979206  74.3890457  17.3706856  10.1065006
  73.8147125  17.3701725  10.8722506  74.7770844  16.4957142  10.0975599
  44.4270058  34.0465050   8.9321289  44.7558937  34.9432793   8.8700047
  44.3711166  33.7484589   8.0242329  83.1523361  13.5096865  71.3701096
  82.9255600  13.3981142  70.4468765  82.6153641  14.2466516  71.6612701
  84.5631561  36.4399261  17.4942055  84.6946793  37.1247520  18.1499100
  84.2038193  36.9003067  16.7358150   0.8564964   7.4607573  77.1082535
   0.1593292   7.9636645  77.5292892   1.5978583   8.0650063  77.0695648
  24.0897846  46.3808823  81.8796158  24.1146126  46.7250824  82.7724380
  23.7440605  47.1024857  81.3542557  35.0208130  20.3344269  81.3333206
  35.0167198  19.4080944  81.5744019  34.7986069  20.7936859  82.1432190
  60.8264465   1.8739130  63.6784401  61.5982285   1.8082397  63.1160622
  60.6910172   0.9840828  64.0041580  86.3053513  68.6877975  65.7507782
  86.0957336  68.1442261  64.9912872  85.5213699  69.2194366  65.8885117
  85.9621506  11.6530333  67.9226761  86.3721008  11.5362263  67.0656357
  86.0836945  12.5813713  68.1217957  38.7914314  13.9509306  78.7383957
  38.8906097  13.2097654  78.1408463  39.6090469  14.4407806  78.6501923
  49.7484665  29.0181313  63.2756844  49.6514816  29.5204277  62.4666557
  49.7046127  28.1035957  62.9965172  69.3926086  55.2762604   7.2605286
  68.6383591  55.8586121   7.3511238  70.1518097  55.8487930   7.3703451
   5.1825657  17.2476330  60.4936752   4.8727198  16.9262924  59.6469383
   6.0666065  16.8901081  60.5766220  53.0887985  38.0801544  75.9693604
  52.4372101  38.7464561  76.1877670  53.7931595  38.2172241  76.6028519
  32.7663002  61.2752838   5.9400640  32.0394135  60.7910500   5.5484228
  32.4131584  62.1507492   6.0984392  69.5700226   9.8149967  76.9512863
  69.3475723  10.7197781  76.7319336  70.3965607   9.8807764  77.4295578
  72.5702896  35.3567162   6.4753990  71.8460999  34.7821236   6.2271690
  72.3461609  36.2042351   6.0910640  49.6953583   5.3650370  76.0836639
  50.1764107   5.3292785  75.2568970  49.6238708   6.2993727  76.2789536
  70.5614319  70.8937073  57.7133636  69.9234085  70.8011017  57.0058479
  70.4551239  70.0996552  58.2372017  77.4890366  45.3604012  46.2941551
  78.2542801  45.6856155  46.7683640  76.7408905  45.7087212  46.7791176
  63.9797211  20.8338299  43.1659889  63.7877579  21.2922344  43.9840622
  64.7026749  20.2458916  43.3848343  62.6047440  68.5620193   6.0726814
  62.0066948  68.8313599   6.7698364  62.5399818  69.2584457   5.4192090
  58.7842751  60.5755539  28.7225304  58.5231667  60.5115547  27.8038578
  59.7321739  60.7054787  28.6936226  21.9856853  52.9732208  26.3722858
  21.1512413  52.6258392  26.6873455  21.7407722  53.6338005  25.7243042
   7.4072366  56.8164406  60.6961937   6.7655373  57.3936234  61.1100922
   6.9252214  56.0079117  60.5224800  77.1773224  23.1928139  42.8048630
  77.4230499  22.9283009  43.6913643  76.3507233  22.7391796  42.6400223
  26.0006523  35.7815361  69.4713974  25.7961941  34.8852539  69.7380676
  25.3970222  35.9605103  68.7504044  12.1239433  12.0105286  55.7428970
  11.1821871  12.1755514  55.7886581  12.5229654  12.8772373  55.8192406
  11.9399309  39.5377007   0.9407762  11.5917768  40.3035812   1.3973342
  12.2730618  38.9737129   1.6387550  64.0855103  20.3598652  14.5941114
  64.9738922  20.1015415  14.8396358  64.1891937  21.2228298  14.1931448
   4.2557015  69.9071350  33.8767853   4.0430326  70.5800323  33.2300949
   3.9116867  70.2502899  34.7014885  63.0994759  50.8866844  73.9254837
  63.9497986  50.5849037  73.6059265  62.7710838  51.4570465  73.2304535
  54.1374779  25.9532394  51.3912125  53.2246742  25.9449654  51.6792183
  54.2950935  26.8577957  51.1207123  79.0397415  13.8168926  37.0503883
  79.2098389  14.6079588  37.5617752  79.7811813  13.2430229  37.2431870
   7.3744144  56.8829002  64.1727524   6.6967449  57.3225555  63.6592331
   8.1928854  57.2878876  63.8858299  82.3827820  64.6855240  23.8956432
  82.5770493  65.1640320  24.7015705  81.5362091  65.0297089  23.6108837
   2.0898142   7.2360811   5.1118898   1.6342140   6.6814661   5.7451849
   2.5442231   7.8869481   5.6467886  63.4460373  62.9180603  36.4512672
  62.9216423  62.5600433  35.7349815  63.6076660  62.1704025  37.0266991
  86.0178909  38.9711838  -0.0423901  86.2899017  38.5125694   0.7525392
  85.8188400  39.8605042   0.2503899  81.4383774  15.8877840  40.8015709
  80.6752319  15.5481882  40.3341103  81.5618362  15.2808475  41.5313759
  68.0595322   5.5294228  21.8478374  67.7095413   4.6385098  21.8449154
  68.5062408   5.6085029  22.6907101  53.1109123   5.0198407  37.8045845
  52.2293320   4.7418551  37.5560570  53.6678162   4.2720485  37.5880318
  66.6842117   4.2988644  55.7991295  65.9381790   3.7560868  55.5440750
  66.9079437   4.7862940  55.0062904   3.1204610  69.4169159  57.0281639
   3.5281482  68.8934097  56.3382645   2.9811938  68.7997818  57.7464752
   1.8763990  70.9733734  31.5086174   1.4424654  71.7991867  31.2942142
   2.7879198  71.1073151  31.2489586  19.9416122  45.7961349  78.6116943
  20.2132282  46.2772903  77.8300629  19.0244751  46.0401001  78.7364807
  36.7070122  21.9610977  79.6369629  36.0810280  21.3459721  80.0190582
  36.2356224  22.3588123  78.9049530  48.4118347  14.2657595  76.9686508
  48.9235153  14.5464783  76.2099609  48.5736389  13.3244410  77.0316620
  41.0489120  38.2991295  68.3747559  41.8879814  38.4052048  67.9264832
  40.4587936  37.9604759  67.7014694  10.7755270  66.0009613  89.2309113
  10.5426188  65.2956161  88.6271973  11.3458729  66.5751419  88.7197800
  82.2425842   9.7056265  76.3451691  81.8925400  10.2222404  75.6193466
  83.0815735  10.1183081  76.5501480  53.5334511  34.8228264  66.0831604
  52.6379738  34.8523903  65.7462921  54.0340118  34.3850136  65.3946915
  29.3625393  59.1412239  11.6822586  30.3096390  59.2491608  11.5951748
  29.2406425  58.2027626  11.8260155  29.1608200  12.3111496   6.2467232
  29.1177998  11.8965502   5.3850460  29.7183552  13.0781393   6.1159110
  55.4244232  53.2043686  10.4857826  54.6164665  52.9299164  10.9195042
  55.9273911  53.6432152  11.1718359  48.9422989  62.0821877  58.0985413
  49.5855942  61.9980431  58.8023300  48.3120995  62.7241592  58.4255753
  72.3609695  14.0314608  16.8583908  73.0187912  13.9826565  17.5520210
  71.5982590  14.4282970  17.2791271  85.3456268  30.2564583  14.3781204
  84.5146179  30.7077808  14.2299280  85.9985046  30.9562359  14.3952198
  66.8062134  35.3140182  62.4648666  67.2298889  35.2452698  61.6092911
  67.0353622  36.1897850  62.7759285  85.1910782  12.2377853   1.7232500
  85.9464874  11.8654861   1.2682925  84.5507126  11.5266924   1.7458090
  59.0272179  67.8353729  33.4708595  59.2770767  68.5421600  34.0660477
  58.3762360  67.3306046  33.9583664  69.4599609  59.9607048  64.1887436
  68.9396820  59.3251152  63.6972466  69.9229660  59.4368439  64.8425293
  74.5984573  23.5956860  28.4834938  74.3570099  24.1331291  27.7291145
  73.7621689  23.3161640  28.8559303   8.5766878  64.9565277  71.4929733
   8.5988321  64.1050339  71.0562897   9.4194450  65.3571167  71.2796021
   4.2636905  40.1017113  55.2658691   3.7104900  40.5548820  54.6296043
   3.6558411  39.8042603  55.9428291   0.3216719  13.5521049  32.3886833
  -0.5584610  13.2196865  32.2123413   0.9048646  12.8478298  32.1056366
   7.7090921   6.8956456  30.8000755   8.1403399   7.0083642  29.9529915
   8.0232697   7.6294622  31.3283157  11.2411938   0.8464987  69.7008209
  10.6805248   0.1639657  69.3320007  11.6755581   0.4249010  70.4423141
  61.7234497  49.9460487  47.0779228  61.9433746  49.3419724  47.7871170
  60.8765144  49.6382523  46.7551231   3.7848692  50.0259895  48.0104904
   3.1368341  50.6803970  47.7496529   3.4766247  49.2118111  47.6125793
  72.7089920  61.3209267  16.0632038  73.2699890  60.5666466  15.8826933
  71.9446487  61.1907196  15.5019121  62.7252884  55.6600685  82.0163040
  63.4721336  56.1933899  81.7442322  63.0433235  55.1724358  82.7761002
  26.0944672   1.8879728  11.4314518  25.5293388   2.6231115  11.1938934
  25.9793491   1.7931576  12.3769627  25.8752308  55.4331779  10.5319986
  25.8521271  56.2717705  10.0710611  25.9554634  54.7799606   9.8369446
  53.7739716  38.5536461  79.4241638  53.0914917  37.9347382  79.1645432
  53.7393265  38.5610199  80.3807068  41.9196968  30.4174576  16.8755436
  41.6105881  29.5438137  16.6359005  42.7964630  30.2721405  17.2310696
   4.5506263  35.3966026  84.1029739   4.0203047  36.0515671  83.6490860
   4.0490446  34.5852432  84.0233231  77.8793869  24.1253033  88.9844131
  77.8726730  23.2261238  88.6562958  78.2760468  24.6350842  88.2779999
  10.6471815  53.8016472  77.9645920  10.0332270  53.1308403  77.6657410
  11.1165810  54.0662498  77.1734619  13.2046289  62.6071968   0.1842540
  12.7103014  61.9006004  -0.2311898  12.7059660  62.8160973   0.9741451
  16.5448475  63.7476311  14.6750669  16.1342945  63.0119171  14.2207527
  16.2286510  64.5225372  14.2105551   6.6604791  48.0546570  28.8604298
   7.4676342  48.4432068  29.1977119   6.6841874  47.1484871  29.1678772
  31.2377357  24.0586739  69.4749222  30.5862656  24.7287865  69.6817245
  31.2575798  23.4967747  70.2495880  64.4826126  31.9410877  44.2539062
  64.6718216  31.6546135  45.1474190  63.6200333  32.3519936  44.3117218
  40.6710510   5.2314744  16.4208221  41.2557755   5.2016363  17.1780777
  39.8924522   4.7499080  16.7003021  58.2431755  52.9191017  55.2192612
  58.2311935  53.2415771  54.3180962  57.7375946  53.5656815  55.7117615
  84.9992676  17.5318546  57.9956627  84.5550232  16.9480610  57.3807869
  84.9699173  18.3907795  57.5742188  33.6766396  27.7254810  87.0869370
  33.8735123  28.6380367  86.8754730  34.3045120  27.4976807  87.7725906
  62.8063202  65.1995163  37.9591255  62.9866180  65.6226654  37.1196785
  63.0003242  64.2745056  37.8076248  83.5208969  13.5268202  83.5275574
  83.9716415  12.7417879  83.8386688  83.4338455  13.3947525  82.5835190
  67.5915146  21.5569344  52.2190552  67.0432587  20.9652634  52.7343941
  66.9762115  22.1849937  51.8406677  48.6945839  25.6366978  50.1749840
  49.1511383  25.0085487  49.6153221  48.0178680  26.0118790  49.6114883
  52.2195930  69.8884277  31.6522160  52.4026337  70.8097763  31.4682808
  52.2984657  69.4543457  30.8027554  86.1043243  59.1952667  30.6097126
  86.6087952  59.1663628  29.7967529  85.9967346  60.1288185  30.7917633
  30.5385914  34.8822060  76.6161652  31.4578934  34.6502876  76.4845123
  30.3716106  34.6855965  77.5379486  60.6486320  57.3928528  22.9944611
  61.2916412  57.4429741  23.7017517  59.9667931  58.0157700  23.2460499
  78.7314682  23.6202221  30.3004131  78.8865051  24.5559597  30.1716175
  77.7937469  23.5554771  30.4812984  71.4339600  31.5480728  71.5675125
  70.7878113  30.9250965  71.2349014  72.1092606  31.5775051  70.8897705
  56.9277420  26.0878754  11.9221268  56.1818161  25.4950867  12.0139179
  56.8011475  26.5017128  11.0683432  60.0768204  29.2829685  87.8810730
  59.8863831  28.5901318  88.5134811  60.7230721  28.8967018  87.2899857
  65.8088760  30.5606384  27.5386200  65.6334381  29.6980953  27.1624928
  65.1377716  31.1282330  27.1595612   1.1235734  65.2365036  83.4391556
   0.8861415  65.0206299  84.3409653   1.1771532  66.1921310  83.4277954
  61.4228935  47.7929878  37.9046860  62.0433998  47.2485809  38.3892708
  61.0514145  47.2051773  37.2468796  78.0302582  17.2219467  57.5030289
  77.0751877  17.2715435  57.5431938  78.2253799  16.2886314  57.5872002
  76.4851532  47.5511131  13.1120691  77.0903854  47.2955246  13.8082018
  76.0726318  46.7312126  12.8403549  73.7264862  16.3792171  68.9933395
  72.9762573  16.1616783  69.5465698  73.5781326  17.2890244  68.7355118
  52.9690781  45.7328873  18.2054310  53.4897423  45.0552711  17.7741795
  53.6162300  46.3395157  18.5651951  75.4524155  66.4725876  40.2066269
  74.8812943  67.1964035  39.9494438  75.3087311  66.3770065  41.1481438
  46.6251030  56.8129158  64.0287399  46.6076660  56.3079758  63.2157402
  46.1654510  57.6251602  63.8161163  22.4314899  46.9339409  31.7137566
  23.3677330  46.8941002  31.5185795  22.0151958  46.4727097  30.9856110
  30.6671486  41.1298332  23.0765553  30.9840927  41.0274315  23.9739361
  29.8401852  41.6032791  23.1671753  25.4657574   1.1710933  33.9131584
  25.2638321   2.0945411  33.7624855  25.8105507   0.8615596  33.0755806
  41.4984436   3.1681376   2.1553779  40.8354073   3.6471856   2.6524982
  41.0022812   2.6987939   1.4847265  46.0789642   9.4036913  73.0649338
  45.3399773   8.9876652  73.5088425  45.6761780   9.9504490  72.3903580
  64.6151733  18.6879768  85.9243851  65.1880417  18.1803913  86.4991989
  64.8208237  18.3744030  85.0437012  75.8993149  31.0796165  10.2887287
  76.3986282  30.2652798  10.2273521  76.5547791  31.7480049  10.4883585
  12.8046217  66.9015884  84.9983521  13.3526630  67.3595963  84.3610764
  12.4418001  66.1603775  84.5133820  11.9416227  14.0762129  76.3804550
  12.0423412  14.4568911  75.5080032  12.8354368  13.8784304  76.6601181
  75.0322495  20.7297192  25.6291313  74.9529114  20.5836887  26.5717945
  74.4317703  21.4526520  25.4473820  71.0484238  32.8837128   3.6801207
  71.0197983  33.5721474   3.0156891  71.3822479  33.3207207   4.4635854
  32.9472694  52.8278732   1.8111370  32.5409241  53.4518967   1.2097138
  32.2336693  52.2443542   2.0690305   7.2635903  37.9606400  31.0016270
   6.7847285  37.9321442  30.1733074   6.5819483  38.0294418  31.6701050
   9.9240055  21.7301979  68.3785477  10.1000633  20.9168339  68.8514862
  10.1151609  22.4218159  69.0120697  25.0883884   7.1645265  74.3594666
  25.6099167   7.9324336  74.1258926  24.6021824   7.4332848  75.1389618
  81.4990234  61.3010941  60.7359352  81.1626129  62.0603981  60.2599983
  80.7230377  60.9019508  61.1293411  68.4692383   4.2264156  -0.0930577
  68.4716339   3.4684849   0.4915509  67.6520996   4.6821527   0.1089763
  76.9930038  55.8269844  60.2004585  77.1878281  56.4165344  60.9289513
  76.3638535  56.3091049  59.6638412  79.0725174  40.9010010  48.1568756
  79.3205948  40.0611572  47.7704163  79.0666885  41.5114937  47.4196510
  83.0791779  60.3054771  48.6137009  83.1477432  60.2642021  47.6598511
  82.2736664  59.8299255  48.8167343  65.2658386   6.2736354  48.3778687
  64.8045120   6.9525285  48.8703308  65.0057373   6.4190331  47.4682350
  11.4762659  14.8063097  56.7315826  11.7948103  15.4334126  56.0823479
  10.5380201  14.9844265  56.7964058  57.6051483  16.4216576  43.9245987
  56.9747276  16.7910709  43.3062630  58.2922478  16.0489235  43.3721542
  76.3229065  31.0249043  36.7238846  76.9075699  30.4061069  36.2862854
  75.4864120  30.9266796  36.2690735  83.3516693  54.1593819   4.7144251
  83.4989700  55.0683746   4.9757099  82.4021683  54.0894928   4.6154246
  70.1720963  19.8000908  36.8790207  70.1833649  20.3783054  36.1162796
  69.3168716  19.3717594  36.8422585  13.1683245  20.5011330  14.4947681
  14.1026039  20.3532372  14.3482037  12.7334595  19.9433975  13.8497448
  56.6099548  65.7908783  78.4212875  56.6181221  66.6904755  78.0943451
  56.0687065  65.8275528  79.2099152  19.0134068  38.0078850  26.1576843
  18.2532806  37.5407448  26.5044136  19.3981781  37.4022865  25.5240955
  26.6160984   0.8597521  82.0222473  26.8288231   0.1580395  81.4069595
  26.0245266   0.4523595  82.6549454  83.3321075  40.0526428  44.3382607
  84.1330338  39.5290680  44.3629494  83.4044724  40.6368217  45.0930634
  35.7783699   2.4384589  75.9574432  34.9200134   2.7425251  75.6624908
  36.1034164   3.1442566  76.5163956  70.8558655  17.6161709  19.6919746
  71.4581985  17.5554771  20.4334240  70.1107559  17.0704327  19.9434013
  30.0504074   4.4803853  74.1031952  30.5357056   5.2784534  73.8938980
  29.1449070   4.7717524  74.2100067  32.4256172  62.0436554  22.5692940
  32.1579247  62.9598274  22.6414299  33.3443947  62.0827866  22.3036823
  10.3576155  43.8531380  53.0168533  10.6133938  43.9293213  53.9360962
  10.8863850  43.1297035  52.6802788  23.0144024  71.7268066   4.3309441
  22.5519943  70.8894577   4.2954373  23.9226017  71.4910355   4.5202069
  19.6725521  14.6170740  54.1829262  20.4701271  15.0638971  53.8992805
  19.4475479  15.0337019  55.0148087  46.6083755  24.4710751   1.9349836
  45.9117737  24.8704948   1.4139825  46.7225838  23.6001453   1.5546315
  19.5294628   4.5123186  22.6195278  19.3500309   3.5941350  22.4171066
  18.7818851   4.9879375  22.2573910  25.0574646   0.0107944  43.9520111
  24.8989372   0.6336813  44.6613159  24.3586979   0.1834276  43.3210182
  71.3358459  50.3080978   4.1440773  71.5735168  50.8525009   3.3934979
  70.5449371  49.8470001   3.8646419   9.7437105  53.0151482  14.4050465
  10.4826822  53.6234283  14.4172506   9.1694565  53.3497047  13.7161818
  66.9126282  28.2854996  87.1844406  67.5872269  27.8608112  87.7143402
  67.2821121  28.3109016  86.3017883  44.0980415   3.3380606  53.4225082
  44.0756493   3.6552045  52.5196495  44.4701614   2.4584994  53.3582458
  53.9668579   4.2093277  24.1408634  53.1946640   3.6525571  24.2406254
  54.2511177   4.3874817  25.0373497  65.6157455  58.2771530  65.7641373
  65.5539627  59.1738930  66.0931854  66.5490723  58.0694389  65.8087158
  85.2458572   1.9764508  69.5951614  84.5234756   2.2401664  70.1651077
  86.0343094   2.2319608  70.0740128  65.0905533  71.2786942  85.9702682
  65.6067734  71.1229858  85.1793823  64.8631897  72.2075729  85.9288712
  34.8984261  19.5635700  69.7256393  34.2121811  19.5082130  69.0606308
  34.8243790  18.7442589  70.2150040  77.7175598  31.9088154  26.4021664
  77.2951584  31.6193275  27.2108727  77.0116043  31.9256420  25.7559662
   1.0363199  25.9526577  25.4333916   1.4972522  25.7688656  26.2519245
   0.1121890  25.8182850  25.6435299  61.1498985  20.1234779  54.6188354
  60.2784805  19.9722309  54.2527885  61.0796700  20.9683437  55.0632477
   4.2848806   2.0798202   0.7219895   5.2251897   2.2012205   0.8535666
   4.2226286   1.4730902  -0.0157335  76.2580948   6.5848422   9.6831493
  77.0056229   7.0623837  10.0428514  76.6346436   5.7753758   9.3378887
  21.9980507  51.7334328  49.6941071  22.2178593  51.5633621  48.7781448
  21.3075581  52.3952370  49.6558189  54.7979355  53.3864670  48.3555489
  54.0070000  53.9198647  48.2771721  55.5133476  54.0217476  48.3845558
  69.6643753  69.8550186  41.2015457  69.5628967  70.0150452  40.2632904
  70.0543747  70.6605148  41.5410957  81.4206314  52.8910294  60.1410675
  81.5194702  53.2457008  59.2575111  81.8491364  53.5336571  60.7064362
  62.2540169  55.4479332  76.8232269  61.7398796  54.8353195  76.2973022
  62.4015656  54.9886017  77.6499557  41.8169327  56.9518738  24.3122025
  42.3218460  56.1781464  24.0619316  41.6700554  57.4184685  23.4894333
  40.0110703  27.1341801  82.3042831  39.2110672  26.8658886  81.8523483
  40.6789284  27.1519318  81.6188049  53.3620682  41.0971832  52.6524162
  53.6776047  41.9865150  52.4919243  52.7949448  40.9058075  51.9054375
  60.9998436   5.0603175  44.9500809  60.9012222   4.1601763  45.2603264
  60.1782036   5.4881248  45.1911659  74.4190140  52.6984253  35.7509766
  73.6656647  52.1168404  35.6487160  74.0613022  53.5776672  35.6276474
  81.8918686   0.5099178  60.2393761  82.0489807  -0.1153035  59.5318108
  80.9390717   0.5386411  60.3264427  74.6261902  48.7875481  20.7419586
  74.4161606  48.8276138  21.6749725  75.3828964  48.2035141  20.6916618
  22.3806553  48.8657608  48.5941963  21.6711521  48.3017159  48.9019165
  22.4554825  49.5442047  49.2652740  12.1395350  50.0699043  79.7480392
  12.4843044  49.1889725  79.8940811  11.8408937  50.3563576  80.6111679
  51.2003708  44.0242462  19.5078831  50.9784241  44.7819633  20.0490303
  51.8582611  44.3522224  18.8948231  69.9455109  58.9545250  75.8287582
  69.1282043  58.7007065  75.4000244  69.9448624  58.4677467  76.6529388
  13.0750895  -0.0410617   8.0672102  12.5518227  -0.6924919   8.5341825
  12.5266962   0.7433953   8.0560808  21.8204632  66.6748276  61.9029541
  21.0828629  67.2773285  61.9987335  22.5825233  67.1830902  62.1807404
  31.4935894  65.0139618  85.3626938  32.3504677  64.5874405  85.3711929
  31.6903877  65.9482040  85.4312515  31.0890732  71.4502792  60.2706261
  31.3933296  72.0666428  59.6044769  31.8255157  70.8521729  60.3977432
  44.7550545  13.9647751  80.6128616  44.2866211  13.7059860  79.8192444
  45.4622498  14.5290651  80.3003082  64.4070053  60.8439560  47.3988686
  64.0176468  61.4797935  46.7985878  63.6650276  60.3302460  47.7179260
  60.3832588  67.9903336  72.6160965  61.3090134  67.9587326  72.3748245
  60.3673477  67.7355576  73.5386353  72.5019760   1.7848041  86.0176773
  72.0122604   1.7568386  85.1957092  73.3646317   1.4351429  85.7945328
  25.7753754  30.8913670  13.0429678  26.7294922  30.9052200  13.1184683
  25.4757328  31.5469189  13.6728067  67.8319321   2.2879796  43.5418358
  68.0436096   1.8188630  44.3488998  68.0275269   3.2040198  43.7389259
  18.2310562  27.1996002  81.8938370  18.5334435  26.4452343  82.3995285
  18.8160744  27.2305717  81.1368484  36.2552567  44.5995979   0.5198967
  36.3725853  44.7659225   1.4552054  36.3972855  43.6578178   0.4244386
   5.3612418  44.7865486  11.1743174   6.0785570  45.4102478  11.2869816
   4.7845616  45.1984367  10.5308733  61.5783310  44.4275055  33.4297333
  61.5813179  45.3204536  33.7744980  61.8036842  43.8796997  34.1816330
  32.3182602  62.3135147  40.2984886  32.2655678  61.7984543  41.1035767
  31.4390163  62.2625504  39.9235687  43.1575165  36.3332825  11.5697851
  43.4448204  37.1960106  11.8687677  43.6349144  36.1918755  10.7522717
  54.5932274  56.9701767  51.0134277  54.4553528  57.4105186  50.1747818
  53.7240105  56.9384499  51.4130363  71.6043167  14.0934687  69.4601212
  71.9906158  14.3255348  68.6156311  72.3188095  13.6802492  69.9448700
  36.3228569  39.0052643   2.6200740  35.9074936  39.6923103   3.1412981
  35.9578972  38.1899681   2.9640625  79.8285141  33.7641296  35.9429817
  80.6415024  34.2403870  36.1116829  79.5957489  33.9983368  35.0445404
  74.4311142  25.8329639  13.8515329  74.5439606  26.7673473  13.6771011
  74.9836044  25.3994560  13.2011070  68.3132019  21.7766018  43.2370300
  69.0821228  21.6972961  42.6724968  68.3946228  21.0509872  43.8559723
  40.2976227  49.3421783  10.3563614  39.9255219  50.1345100   9.9690866
  40.7116699  49.6427002  11.1653633  10.8105793  38.2133141  25.3995399
  10.7656870  37.6951370  26.2031002  11.3058720  37.6667633  24.7894592
  54.2746429  54.1738052  78.7660522  54.5119514  53.4667130  79.3659973
  55.0481834  54.2894440  78.2142334  14.9926519  52.5472221  34.8843307
  15.0094652  53.1051064  35.6619644  14.0626831  52.3849487  34.7260361
  80.4712296  29.1088524  73.1457748  80.8642197  28.3605232  73.5949860
  80.2201309  28.7680092  72.2872772  17.8556671   8.2580090  11.7930851
  18.3183804   7.7889714  12.4874420  18.0220375   9.1826029  11.9766026
  77.3470459  34.1045074  82.9897003  76.5179901  34.3761940  82.5958939
  77.7077637  34.9072075  83.3662491  19.8439636  15.5943804  69.8568573
  19.8928280  16.5224533  69.6276779  19.6691017  15.5889540  70.7979355
  66.2001343  27.9442501  26.6080322  65.7376175  27.1066113  26.6338406
  66.7468414  27.8919201  25.8240623  21.3015060  67.4256134  71.1498566
  20.3994999  67.1932449  70.9293518  21.8236256  66.6906128  70.8283081
  26.6382713  70.1208267   7.2691984  26.2423058  69.5547485   7.9317684
  26.4296112  71.0093689   7.5576239  34.2493019  43.7425919   3.2851200
  33.6501732  43.5492783   2.5640733  34.0877190  44.6634369   3.4904571
  56.5646362  41.3588333  26.6519089  56.1427612  41.7105980  27.4358196
  55.9033432  40.7889404  26.2592945  52.0142937  26.6977596   0.1760557
  51.5701828  26.0401077  -0.3591927  52.9165649  26.3847084   0.2403812
  21.8864784  38.5603523  62.4581184  22.3535156  38.4057465  63.2792206
  20.9723988  38.3620415  62.6614914  72.6329193  26.3962803  23.0362530
  71.8634491  25.8479786  23.1896000  72.4444962  26.8489075  22.2141476
  48.2935104  59.7192001  50.3323631  47.4664040  59.4905891  50.7564621
  48.6864166  60.3730927  50.9105339  70.5544815  54.2147446  28.5838451
  70.2099762  53.8195610  27.7829838  69.9282379  53.9643326  29.2630672
  72.0718307  11.7658625   5.3289642  71.9497147  10.8165884   5.3430481
  72.8786545  11.8961887   4.8306856  73.6266632  45.5499535  44.3202858
  72.7877579  45.6950188  43.8827591  73.5917053  44.6379814  44.6089325
   8.5475502  50.2662811  21.6157360   8.9221268  49.7025871  20.9388542
   8.3786068  51.0962296  21.1697788  82.4732513  29.0570164  46.4289742
  82.3277359  28.7084332  45.5494576  82.0819550  28.4066200  47.0121574
  85.8532333  56.4633446  35.7387276  85.8596802  55.7347069  36.3594360
  86.6466980  56.3409958  35.2175064  86.7798386  50.4779892  75.1127930
  86.7466278  49.5216331  75.0901718  86.0064392  50.7561760  74.6221848
  47.2920914  42.4309921  28.2849083  47.6157150  41.5301895  28.2775097
  47.4567986  42.7373466  29.1766739  33.5666313  56.3777542  26.2748356
  33.4423180  55.4340324  26.1740303  33.3862190  56.5456543  27.1997643
  -0.2049194  55.7199135   3.7979991  -0.4029724  56.4807701   4.3439879
   0.7233883  55.8136292   3.5842378  53.2666702  34.2954636   0.3646669
  52.9434090  34.7953339  -0.3849097  52.6784096  33.5425491   0.4221178
  73.6157761  57.9443016  13.6838484  73.1026230  58.0049629  12.8781042
  74.0483932  57.0922279  13.6287088  45.0641899  10.5105829  78.3322372
  45.8265648  10.7316790  78.8671494  45.3125420  10.7664337  77.4439316
  20.6771641  49.1211967   4.5307107  20.4772301  50.0510368   4.4227653
  19.8321114  48.7154007   4.7242332   8.9407301  59.0537834   2.3833761
   8.5150766  58.7081718   1.5987730   9.8772621  58.9837646   2.1983426
  40.3567886  68.7700958   1.2568382  40.1586647  69.7055740   1.2137606
  40.4644318  68.5908356   2.1909206   1.4014767  69.3595123  41.4777641
   1.6306080  68.6907806  40.8323708   0.4582990  69.2567596  41.6046066
  56.9004097   9.6783648   7.6247463  57.6530914   9.0899677   7.5656719
  56.7234726   9.7474699   8.5629091  50.9632683  26.3445778  25.8462906
  51.0696754  25.8759575  26.6741219  50.0541458  26.6439800  25.8556900
  65.3797607  21.8557205  66.4489822  65.5367661  21.8850899  65.5052032
  64.4281235  21.7942829  66.5316696  43.9793015  38.0844765  27.7247257
  44.6893806  38.6959610  27.5295143  43.8732758  38.1359291  28.6746445
  12.7836428  10.6078053  86.6899261  11.9990816  10.0845490  86.5259171
  12.9515991  10.5006676  87.6261673  57.3601074  27.1537876   9.4376945
  57.0712624  27.9799232   9.8253784  58.1096764  27.3939648   8.8930006
  26.1568203   6.1161699  82.6323471  26.7696381   6.6583033  83.1291122
  25.9797535   6.6208448  81.8385086  65.0691681  64.8127594  57.9442215
  64.8654480  64.0897217  57.3509750  64.2262192  65.2379761  58.1019020
   3.6018085   3.7667456  56.2690811   3.4535952   2.9513907  55.7900581
   4.4767418   4.0468278  56.0002327  39.6431122  57.3907394   4.6258307
  39.5216446  58.3030472   4.8888359  39.4451561  57.3830566   3.6893549
  55.8689995  55.3593063  39.8091774  55.7507019  54.5150261  40.2444077
  56.8155403  55.5016022  39.8157272  33.1488419   0.5013458  81.2597809
  32.5231247   0.0006164  80.7363434  33.7174301  -0.1613076  81.6519928
  70.7167740  35.4777107  88.9101639  70.9136276  36.1930656  89.5149384
  71.4447937  35.4822769  88.2887115  77.9125977  45.8854103  34.9523926
  78.3891144  45.0998497  35.2208328  77.5029526  46.2036629  35.7568436
  56.1143837  48.2917938  85.2118912  56.3952255  48.9646912  84.5917511
  55.5823860  48.7636414  85.8526459  39.9648209  55.8296204  76.3271790
  39.9078026  55.0070381  75.8410263  39.1214294  56.2562447  76.1758118
  26.0875530   4.7079110  79.3989334  25.2477512   5.0884027  79.6562042
  25.9466209   3.7623255  79.4462433  67.5910034  16.1639652  75.2948227
  68.2885742  15.5270452  75.1400375  67.7125397  16.8231030  74.6114502
  35.0424080  36.2713013  28.8770790  35.7857513  36.8742943  28.8855495
  34.5366478  36.5036354  29.6558342  76.5687408  68.5867767  76.8329773
  75.8843613  67.9476929  76.6344070  76.2186966  69.4190903  76.5152359
  79.4001236  10.5547333  48.7426376  79.3823395  11.0606670  47.9302673
  79.3699112   9.6416836  48.4568748  56.2468529   4.5924501  85.3503418
  56.3349419   5.5452662  85.3255844  55.3375359   4.4293928  85.0997620
  16.3708324  60.5154877  17.0581875  16.5594730  60.1129112  17.9058781
  15.4332972  60.7063446  17.0870075   6.4281249  25.1352520   9.7730865
   6.4805093  25.2061272  10.7262211   6.3615661  26.0403900   9.4689045
  57.7547951  64.6383972  49.7204247  57.6970367  65.5654449  49.4891777
  58.2477913  64.6264496  50.5408173   0.8784739  62.1071510  64.2169647
   0.4716974  61.6257019  63.4965668   1.7853192  62.2342567  63.9382019
  35.4747543  20.3962059  86.3892670  35.9742355  20.7776394  85.6672821
  36.1364136  20.1576099  87.0385056  47.4328041   6.4945731  34.7898178
  47.6729469   5.8239150  34.1504555  48.2321396   7.0069976  34.9111176
  16.4453087  52.3677940  59.3411789  15.7597017  51.8734131  58.8919983
  17.0026913  52.6985397  58.6367874  12.7848330  11.4984102  67.7218094
  13.3860455  11.5054312  66.9770050  12.2295065  10.7328787  67.5741348
  62.4566078  35.0121689  32.8426208  62.6650696  34.0791397  32.7953758
  61.6918373  35.1156883  32.2763634  56.4214516   2.0401919  17.2303486
  56.4915047   1.2109292  16.7574329  55.8363914   1.8491549  17.9634533
  47.8998489   2.4750452  69.5050278  47.5738564   1.7059907  69.0375748
  47.3388557   3.1914909  69.2080078  35.1522636   0.8125369  56.9635887
  35.4285698   0.5052141  57.8269806  35.9524307   1.1522746  56.5629120
   4.2901869  47.4226341  59.8712234   4.3271022  47.9019432  60.6989517
   4.1538525  48.0995636  59.2083397  48.9873848  23.1338291  18.8287239
  48.8592606  23.8747272  18.2363682  48.2514229  22.5500774  18.6448040
  66.3385010   5.5464215  59.6826859  66.9418869   5.7403717  60.4000015
  65.5914001   5.1233850  60.1059036  16.1966038  60.2802773  54.6181335
  15.4067736  60.0525513  54.1276855  16.2729988  59.5941277  55.2811546
  63.4623489  46.6308327  66.8768311  63.1203957  45.7762146  67.1393661
  64.2275925  46.4276543  66.3389206  77.3978577  29.0487728  35.2185173
  77.5399475  28.3060265  35.8053474  78.0636139  28.9473629  34.5382843
  59.0556870  52.7099380   2.4718595  58.6531181  51.9020996   2.7905498
  58.6543808  53.4013786   2.9982603  45.9690895  56.2735939   3.6729472
  45.0533066  55.9969482   3.6406779  46.3654633  55.8809166   2.8951788
  30.5231361  55.8272247  65.5812988  30.3409271  56.0071220  66.5036163
  31.3202438  56.3228035  65.3935394  59.9603767  68.0638199  17.8989563
  60.1541634  68.4409485  17.0407867  59.3477821  68.6810074  18.2990036
  72.6369247  63.8127022  77.9653473  72.7778397  63.6421814  77.0340652
  71.6862259  63.7839622  78.0729370  80.9738541  26.9629631  59.1307220
  80.7641296  26.9399986  60.0643806  81.4737015  27.7713757  59.0173302
  67.3463058  64.2023773  34.5400162  67.6298599  65.0928192  34.7472038
  66.8272552  64.2960510  33.7412376  54.4773369  17.7489357  76.1818771
  54.2810326  17.5992832  75.2570496  54.9736938  18.5673237  76.1919861
  49.1434364  34.6620331  17.3233414  49.5045090  34.9015160  16.4698143
  48.2627335  34.3411636  17.1293449  71.3844681  54.1975670  31.4010811
  72.3377457  54.1824570  31.4862804  71.0815353  54.6611061  32.1818466
  80.9614410  55.9256554  28.3093166  81.3441238  56.2268333  27.4852562
  81.2030563  55.0009384  28.3617630  57.1430321   3.8459258  39.7286453
  58.0435867   3.8225558  40.0521927  56.8010330   2.9702313  39.9087219
  53.8019028   1.6780387  80.2694702  52.9585304   2.0146325  80.5722198
  53.8441315   0.7880611  80.6193085  81.8186417  32.6461105  83.0259171
  82.1791306  33.5167122  83.1942368  82.0370483  32.4692535  82.1109009
  54.8642311  23.1841469  66.1764069  54.9574890  22.2403698  66.0467148
  54.1735458  23.4426708  65.5662003  33.7780800  20.0416508   6.1182957
  33.3162155  19.2852707   6.4799600  33.9852486  19.7881660   5.2188191
  84.6905441  36.5294418   9.5974579  85.3606720  36.5497322  10.2806473
  84.0885468  35.8380928   9.8729048  77.5414886  21.4411030  67.0094528
  77.2627411  21.8271904  67.8397980  78.2518387  20.8457642  67.2486343
  67.0424881  41.0930061   5.0205855  66.9774246  41.6938438   5.7628741
  66.1811371  41.1317291   4.6048884  80.8907852  61.6253471  87.5891113
  80.1016846  61.5187950  87.0578918  81.6056137  61.3539391  87.0132828
  29.7679348   2.6354949  10.8645506  30.5391579   3.1638753  10.6589766
  29.0607910   3.0374219  10.3599386  58.2720222  36.6200142  79.8929214
  57.9176483  37.4324226  80.2543716  59.0088463  36.4048004  80.4647598
  28.7716389  17.6056290  71.0404510  28.3220730  18.3173332  71.4960785
  28.6016331  17.7699223  70.1129074  60.2694969  11.0603085   8.2852755
  60.0705261  10.6787748   9.1403046  60.9096298  11.7469053   8.4724827
  34.3142471  51.1179733  29.9274502  33.6143532  50.5207481  29.6634293
  34.1193352  51.3263474  30.8411369  84.6544647  38.2742767  25.6887302
  84.7423096  37.3508263  25.9248543  83.9777679  38.6086807  26.2773609
  77.4363861  59.1954231  84.9161530  76.7511902  59.5514297  84.3504715
  78.0507202  58.7762947  84.3135300  30.2997036  66.6615372  21.6889668
  29.8693676  67.0859680  20.9467430  30.9992657  67.2656555  21.9377155
  17.4235611  53.0624733  79.7216873  16.7174835  52.4491425  79.5179367
  18.2252464  52.5819283  79.5152664  70.1788559  17.4069042  40.7060356
  70.7973251  16.7003193  40.5203781  70.6853714  18.0415192  41.2129326
  32.1567688  44.7747917  10.1647053  32.8740234  45.2243958  10.6115055
  31.8687267  44.1064796  10.7864943  24.7690010  54.6440163   4.7788758
  25.3880405  54.6925316   5.5073457  24.2155304  53.8906555   4.9846621
  43.6124573   0.4707917  15.9052706  43.2269135   1.2627356  16.2799873
  43.1457024  -0.2477926  16.3318939  32.8046799  33.1165924  13.9805231
  32.0160866  32.6507759  14.2586679  32.8636436  32.9474792  13.0402269
  48.4767303  68.8293076   6.4172997  48.0100555  69.2740326   5.7097244
  49.3984566  69.0369873   6.2639265  50.6296654  15.1713428  79.6288757
  50.7042198  14.4017248  79.0646362  51.2947464  15.7755375  79.2989578
  72.1712799  18.6050186  26.6866474  73.0862350  18.4715309  26.9341755
  72.0730972  19.5558281  26.6361160  12.8383236  14.2775621  87.9114685
  13.7173100  13.9020424  87.8604813  12.2844305  13.5523386  88.2004013
  39.1372147  31.5671501   4.2749939  39.0376129  30.6650848   4.5792813
  39.7642632  31.5088997   3.5541253  44.7798615  11.8638821  68.7026672
  44.4171791  12.6673040  68.3295593  45.6804733  11.8351030  68.3797150
  18.2815266  58.1305847  28.4789200  19.1952667  58.2910080  28.7146587
  18.3214436  57.7838745  27.5876122   4.5313630  35.8840752  79.6986618
   5.1938157  35.8177376  80.3863983   4.9866209  35.6149330  78.9008331
  78.6357880  35.6066628  28.5134258  78.3462143  35.5748329  27.6016312
  79.5090790  35.2149467  28.5011959  79.0287704  35.4986343   8.0148363
  79.5994644  35.2623978   7.2835860  78.3279572  36.0136566   7.6150284
  80.6614685  27.5852470   4.9885082  81.1110764  28.0314617   5.7061253
  80.1783142  26.8761139   5.4126840  55.8172112  66.4353333  41.6475182
  55.1183968  66.8010406  41.1051598  55.9836540  65.5704803  41.2726059
  66.0337448  49.6358223  61.3452797  66.5782852  48.8601646  61.2108574
  65.7995605  49.9200935  60.4617767  61.6518173  66.2771530  50.3726234
  61.0257111  65.9896088  51.0371132  61.2717590  65.9863129  49.5436478
  28.8679886  23.8840656  85.1611099  28.9144325  23.1923466  84.5011139
  28.5776596  24.6574230  84.6775208  60.6858711  53.0356979  18.2689285
  60.0540962  53.7545128  18.2887745  61.3666191  53.3317566  17.6646366
   2.7117014  63.4193459  35.2691727   3.3561354  62.7295876  35.1105118
   2.9242156  63.7494659  36.1421509  22.9472809  10.9376698   3.6641333
  22.9801922  10.3616428   4.4279013  22.0770226  10.7933168   3.2925928
  80.3178864  57.7093544  62.5796127  80.3062897  57.0966873  63.3149643
  80.9772415  58.3601151  62.8204308  48.9633026  42.7657318   7.5282969
  48.1853409  42.5522461   7.0130973  49.3151588  41.9161377   7.7940292
  15.0041285  12.8189983  76.1558838  15.0104809  12.4531546  77.0403900
  14.8484936  12.0656757  75.5862198  15.0076723  41.1501350  67.6159668
  15.6611147  40.6245041  67.1544952  15.4078140  42.0162849  67.6928024
  79.8185654  27.0311108  68.7858505  79.0046539  26.5277710  68.7651367
  80.4816513  26.4281960  68.4496307  72.3846512  69.2820740  16.3874283
  73.0991058  68.6646194  16.2307739  72.0380707  69.4734497  15.5159407
  85.5294724  39.2686806  57.4638901  85.4797058  40.2242699  57.4885521
  86.4660416  39.0763664  57.5094681  86.0396423  44.2424622  68.6828766
  85.9860306  43.2899323  68.7606506  86.5216522  44.3895683  67.8690796
  82.5467834  40.2912636  14.6641817  81.7956772  40.7383347  15.0543156
  83.1006317  40.9981346  14.3327961   7.5400271  46.7797852  16.1298199
   7.8099389  47.5997162  15.7161856   7.7467728  46.1055870  15.4825573
  52.4309769   8.7604179  31.6132355  52.5261765   8.4520941  32.5144043
  52.0429153   9.6313305  31.6977997  34.2752151  61.0242767  70.6178741
  34.6861649  60.9205933  69.7596207  34.0551453  60.1325455  70.8873520
  72.0724335   9.4196968  78.3955383  71.4830627   8.9846706  79.0116806
  72.5066299  10.0955906  78.9159927   2.7327404  55.4936752  52.2328377
   3.0654829  54.7067070  51.8013344   3.5116961  56.0262642  52.3934898
  54.4878464  44.2001038  16.3671761  53.9387321  43.4209442  16.4544811
  54.1641731  44.6339989  15.5777454  45.6413841  20.8279305  84.7970810
  45.3741913  21.0848045  83.9145508  44.8360825  20.8696594  85.3128128
  18.3851585  11.0075455  11.8488274  19.1984749  11.2155876  11.3889742
  17.9211750  11.8429098  11.9046860   7.4418392  11.6114168  13.7872305
   7.0134764  10.8250666  13.4490147   7.4802346  11.4748955  14.7338667
  74.5847168   7.4971805  79.6869202  74.0367661   6.8953476  79.1831512
  75.3098145   6.9561844  79.9996262   3.1114841  16.2276497  73.5634460
   2.1869533  16.4372692  73.6958618   3.5117493  17.0594006  73.3100510
  13.7197733  51.8954277  25.6932201  13.9383297  52.2810974  26.5415859
  13.8023567  52.6194458  25.0725670  56.8348541  51.3096237  47.7278519
  55.9779510  51.7338562  47.6833725  56.8557320  50.9021721  48.5937500
  76.5167542  35.9831734  50.1964188  76.7586212  35.0822983  49.9815826
  76.6027908  36.4579086  49.3697052  76.0697708  57.7127762  32.6061096
  76.5070724  57.3458786  31.8377419  75.5158615  58.4105377  32.2560539
  64.4071884  17.4210396   2.9743903  63.7907104  17.9549942   3.4754686
  64.8314285  18.0395718   2.3796899   7.3843851  47.7339172  88.9450150
   6.5510573  47.3921051  88.6210403   8.0106773  47.5383415  88.2480698
  79.6338043  12.9417334  80.9534531  79.8376694  13.4528008  81.7367020
  79.5525131  13.5931673  80.2568436  59.0215607   8.8486185  85.6965103
  59.0550079   9.0874166  86.6228409  58.2433701   8.2966146  85.6194229
  61.6216469  38.1769485   9.7462902  61.6710205  37.9626465  10.6778841
  61.5447922  39.1307907   9.7236910  18.7348404  38.9841537  11.3939743
  18.2465343  39.3565254  10.6597195  19.5309563  39.5131416  11.4450331
  43.7844925  30.1738243  23.8660145  43.4064713  30.9830894  23.5218906
  44.7297363  30.3231697  23.8450813  56.8919678   9.6239185  67.1450424
  56.9157562  10.1171951  67.9650116  56.6070213   8.7468014  67.4013672
  34.1299896  28.0498486  81.0427017  33.8459435  28.2808228  80.1582870
  33.4417534  27.4718132  81.3720016  74.2200546  14.6975098  14.8906727
  73.5074692  14.5726719  15.5174599  74.8531647  14.0134096  15.1084223
  23.8185291  34.3640175  13.7611952  22.9345074  34.4628220  14.1147156
  23.6888123  33.9706230  12.8982658  51.7507019  66.8799057  86.3007889
  50.8918266  66.5737305  86.5920181  51.6133881  67.1503067  85.3928986
  47.1084557  50.8670197  23.9433270  46.6539116  50.3819580  24.6320477
  47.9107475  51.1805534  24.3607693  82.6334686  39.3136292  84.5206909
  82.3640213  39.7105331  85.3489990  81.9013443  39.4787979  83.9266052
  63.2616615  27.2148895  35.0782471  63.1858482  27.7013912  35.8991013
  62.6871109  26.4581604  35.1943855  85.4645462  42.8400612  84.1073074
  84.8832779  42.7771873  84.8652039  84.9908066  42.3951225  83.4045715
   7.7394242   9.2885427  17.6948280   7.5338545   9.2048674  18.6259403
   8.6432018   9.6033115  17.6764278  54.9776917  12.3173513  88.5714874
  54.3604965  11.5875092  88.6228256  55.0152435  12.6624575  89.4635239
  39.6650238  46.4238510  17.2375813  39.8045921  45.5055542  17.4688473
  40.2652359  46.9076271  17.8049774  22.8326817  59.2674370  27.3095207
  22.2991657  58.8449554  26.6363907  23.4875965  58.6098328  27.5437698
   3.6236298  13.0240135  60.6474876   3.7673631  13.8088541  61.1762581
   2.7990484  12.6633415  60.9733925   1.2404321  68.2469711  54.6991158
   1.8526062  67.6341171  55.1064072   0.5297155  68.3333664  55.3344536
  14.7010822  52.6491623  54.8261337  13.7935314  52.8211708  54.5751419
  14.8683271  51.7566986  54.5232010  63.5562706  36.6475029  65.0726318
  63.4349785  36.5729103  66.0191803  64.1189194  37.4140739  64.9629364
  40.7639847  30.9771709  82.6744080  41.0475426  31.8910789  82.6988297
  40.9104347  30.7050819  81.7684555  63.8703613   6.2414556  88.7454071
  63.9504280   5.9870791  87.8261032  63.8828583   7.1984663  88.7310638
  86.0986252  19.0344009  68.9846420  85.6098862  18.2539539  69.2459335
  86.1024933  19.0054188  68.0278854  29.2593517  46.3572502  57.3747215
  29.1558037  46.9037552  58.1537209  30.0214386  45.8103523  57.5653915
  81.7320023  42.4584389  56.7536774  80.8046875  42.5800934  56.9574394
  81.7386398  41.8219872  56.0387535  26.1595402  62.2303123  25.1012402
  26.3203239  63.1342850  25.3718281  27.0041389  61.7935371  25.2112846
  76.2348709  27.5967865  60.5771294  76.1597290  27.1025105  59.7608681
  76.2743225  28.5121613  60.3000679  16.9261665  68.7844696  28.3683701
  16.2934666  68.3333359  27.8094406  17.5801105  68.1172791  28.5768070
  36.6324387  24.4574814  10.0474415  35.9381599  24.0640869   9.5188112
  37.1738243  23.7170506  10.3211117  36.1047478  63.4046059  57.5220566
  36.7524223  63.4686356  56.8201675  36.6221085  63.2460136  58.3116264
  53.8610420  25.2350712  13.5539455  54.0366440  24.2954941  13.5030413
  52.9357376  25.3186226  13.3236027  42.7403603  65.9203568  82.2255859
  42.5495071  66.8019180  82.5459900  43.6658821  65.7864380  82.4298019
  20.5892143  46.0367851  29.5266190  19.9865799  46.1863708  28.7981358
  20.2497768  45.2545509  29.9615021  40.0889778  62.8204460  50.7298622
  40.3195992  62.5987206  49.8277054  40.7328796  62.3543587  51.2631416
  60.2728920   9.0988855  74.0209351  60.7236595   9.3508902  74.8268661
  60.5736313   8.2069263  73.8471680  64.5010147  35.7213249  22.1238575
  64.4193039  35.1558914  21.3558502  65.4100342  36.0206146  22.1053009
  27.5527210  29.5448112  84.7134171  27.7217255  28.6128712  84.8518295
  26.6636562  29.5771275  84.3602142  50.2759399  16.2576942  58.4282417
  50.4559822  16.0560646  59.3464813  49.5289841  16.8556080  58.4563179
  74.3152924  66.1623917  78.9528809  73.8651733  66.4118195  79.7599792
  73.6920776  65.5977020  78.4957657  49.0812569  60.2712898  18.4347897
  49.9920731  60.1455345  18.7009220  48.5928574  60.2982292  19.2575741
   5.9475379  63.8569984  15.4678278   5.2672167  63.1923866  15.5759411
   6.5304313  63.7269669  16.2158642  69.7841110  49.3949127  12.1654396
  70.6628265  49.0451012  12.3128452  69.2744675  49.0856667  12.9143457
  65.9240189  44.5752563  65.9538040  66.2639160  44.1920052  66.7623901
  65.4483643  43.8601074  65.5312500  53.9076500  20.9498959  14.4172697
  53.3091087  21.1680946  15.1316719  53.4238281  21.1743698  13.6224384
  55.6947861  43.2608833  20.5589962  56.0906067  43.6111755  19.7609653
  56.0501785  43.8052940  21.2615223  36.4912491   6.0792217  43.8057327
  36.0489998   5.2855735  44.1070137  35.7895164   6.6235967  43.4487190
  79.4227066  10.0085754  45.5839996  79.9094543   9.3472309  46.0758629
  78.5482330   9.6336756  45.4791946  32.0342712  60.8177109  76.9168167
  32.2188263  61.0574303  76.0086899  31.1946182  60.3597946  76.8777542
  52.8910789  67.4149780  19.3206501  52.2669449  67.9731598  19.7844658
  52.4127846  66.6011276  19.1621723  26.1091309  61.6349831  28.4923458
  26.3888760  61.3438263  29.3602180  26.4839840  62.5110092  28.4012470
  77.5743713  57.9550247  75.3973007  77.3695908  57.2453232  76.0060959
  77.4581604  57.5674591  74.5298233  13.6191607  13.1431122  70.0091553
  13.2952003  13.9906149  69.7041626  13.1928797  12.5041151  69.4380188
   1.5367767  52.3741875  51.5301285   2.4603763  52.5228271  51.7328644
   1.4717870  51.4298782  51.3876991  13.7292538  58.7647552  61.1989365
  13.0736961  58.2415695  61.6601906  13.2475052  59.5301514  60.8853722
  68.7524490  30.1971741  77.3346405  69.1366882  30.0301991  76.4739914
  68.2911758  31.0297832  77.2335510  66.5542145  71.0926056  83.2100067
  66.1879654  70.4632645  82.5886993  67.4919662  70.9009171  83.2203751
   1.5030500  61.6748009  10.1488190   1.3498245  61.4684563   9.2267694
   1.9709303  62.5097046  10.1328688  79.7125397   1.0113384  21.8188782
  79.5761337   0.4911177  21.0270481  80.6378098   0.8874476  22.0304146
  74.5107574  19.6646442  63.9161148  74.2391052  20.2800732  64.5970612
  75.3718872  19.3579960  64.2001190  41.4543877  50.8743515  40.6738663
  41.2272148  50.1425743  40.1001701  42.1042633  50.5132370  41.2767677
  63.8827438  51.3864365  47.6921158  64.1998749  50.7527885  48.3356590
  63.1345673  50.9548302  47.2795868  24.7775326  56.0598869   2.6211522
  24.6611080  55.5251999   3.4065094  24.3755455  56.9001236   2.8416944
   4.8584685  34.3068657  54.7419930   5.2833247  34.0364952  53.9279709
   4.0091882  34.6514511  54.4659233  30.3208618   8.7470827  49.4618950
  31.1442413   8.5530739  49.9098206  29.6570454   8.6999979  50.1499100
  16.9433308  49.3065453  78.6918945  16.7806339  48.3651810  78.6319427
  17.5487919  49.3985939  79.4275436  80.9528427  62.9251175  52.3111382
  80.5103302  62.1310501  52.0113487  81.2168732  63.3706169  51.5061226
  60.1648674  42.7666664  50.5580444  59.6064873  42.2067642  51.0974464
  59.8635635  42.6138153  49.6624527  26.5725517  15.5235405  86.7825851
  27.0131130  15.0819664  87.5086365  25.8751984  16.0305710  87.1983337
  56.4367409   3.0109315  68.3089523  55.6432228   3.5171599  68.1349030
  57.0183334   3.6241922  68.7582703  77.7158127  17.8293056  39.8002510
  77.8335724  18.1643181  38.9113579  77.2698517  18.5368729  40.2657623
  76.1807480   7.2754788  50.1400909  77.0650406   7.5122719  50.4197083
  76.2873459   6.9749374  49.2375717  61.0377922  20.4610195  76.1269836
  60.7400818  21.3385372  76.3669128  61.1506538  20.0093727  76.9633560
  23.1959705  35.1464996   4.3208046  22.5380306  35.0794792   5.0127978
  22.6874866  35.2260246   3.5137410  72.0486526  17.8207645  89.3007278
  71.6410370  18.1355343  88.4938812  72.8390732  18.3526878  89.3930740
  56.2059669  56.9206161  56.9280243  56.9760246  57.3867035  56.6024399
  55.7221413  56.6768456  56.1388931  32.2072258  57.7192688  31.7432938
  32.5531883  58.4036942  32.3160973  31.3306332  57.5419083  32.0844154
  18.8173923   1.0694810  11.3094912  18.0222282   1.1533555  10.7832670
  18.9554672   1.9429923  11.6757498  16.5907974  46.3739243  84.7460556
  15.7129059  46.0658913  84.9711227  17.0215340  46.5075111  85.5903625
  63.8318329  50.7904854  43.9549561  63.6129265  51.3847733  44.6726875
  63.2991829  50.0119972  44.1176720  70.1012115  66.0197296  12.1674337
  70.3090286  65.2260056  11.6744356  70.0916748  65.7379150  13.0821600
  68.9203339   0.4555425  79.6360321  68.6132278   0.6065566  80.5299606
  69.3300705   1.2820745  79.3807068  70.6905594  10.1318674  32.4578667
  71.3884125  10.3009939  33.0908165  71.0982208   9.5743036  31.7951717
  82.6414032  38.3601608  38.4375534  82.3446198  39.0497856  37.8437805
  82.8742752  37.6319962  37.8615494  43.7373657  43.8187141  19.8002338
  43.8093758  43.1947212  19.0779629  42.7982712  43.8724861  19.9775677
  85.4894028  23.5033417   2.0663416  85.8161392  23.3476505   1.1802057
  84.6367264  23.0688858   2.0869977  55.2737045  24.1289177  58.4910393
  54.4917831  24.6279945  58.2549133  55.9586983  24.4709473  57.9165573
   1.1573573  19.2781353  14.3998756   1.4210117  18.9686584  13.5333061
   0.2966564  19.6734219  14.2614002  56.0416756  36.8949623  25.2404518
  55.1670647  37.0104980  25.6118469  56.2844658  37.7651749  24.9241982
  32.4725990  60.6293449  42.5641861  32.6506615  60.7855110  43.4916229
  32.0143738  59.7891388  42.5464439  33.1943245  63.8915939  31.2285843
  32.8590126  63.2269440  30.6268902  32.8235626  64.7137909  30.9080086
   4.4930429  22.5025806  62.7791862   4.2281079  21.9917946  63.5441284
   3.9001741  23.2540646  62.7759399  57.8174667  68.0738144  62.4290352
  58.2799263  68.0122299  63.2648392  56.9958038  67.6049347  62.5748253
  40.6695480  29.8015690  67.1818466  40.7150002  30.6013126  66.6578522
  39.8959160  29.9199505  67.7329483  53.2661591  26.8883991  37.7070961
  52.8876457  27.1653385  36.8726730  53.9034996  27.5703754  37.9190788
  67.5441818  54.4041595  84.0080719  67.3220673  54.2297287  83.0934830
  68.0799866  53.6559334  84.2713165  46.7886238  14.3792048   9.0107555
  47.3530464  13.6068821   9.0450716  45.9426117  14.0445576   8.7132540
  48.2052689  50.1665802  60.8057098  48.3041153  49.2361755  61.0077209
  47.2587395  50.3055611  60.7740822  30.9948330   7.8615394  87.9842300
  30.5410690   8.7006779  88.0628128  31.3311443   7.6878505  88.8634033
  27.6101189  54.3395386  58.9948654  27.4131279  53.6576385  58.3526535
  26.8283405  54.8917580  59.0053024   8.0067139  65.4759064  19.7688007
   7.9751377  65.2811432  20.7054443   8.8018036  65.9975052  19.6592960
  32.3434219  43.1413727   1.5496433  32.3680611  42.2519722   1.9026170
  31.6033707  43.5549965   1.9940211   3.2774279  38.2273827  35.5274391
   3.2084241  37.5425453  34.8622589   3.5565665  39.0044136  35.0431519
  12.5393496   3.2607446  61.0166702  12.1925287   2.3864844  61.1944809
  13.4751949   3.1900043  61.2048721  80.1136322  43.4792747   5.1089325
  80.9818802  43.5516014   5.5053453  79.8915329  42.5514221   5.1863327
  79.4933701  32.4209709  31.0994930  79.6508713  32.8637466  31.9333858
  78.5404739  32.4120293  31.0092850  43.7530098  18.4394207  11.8169537
  44.6860313  18.4266472  11.6035547  43.6678543  19.1266098  12.4778242
  50.6282272  62.2844009  39.3974991  50.6021194  61.6431541  38.6873207
  49.8182068  62.7846756  39.2983856  28.4775181  69.4254379  87.0515289
  28.9558945  69.1779099  86.2602539  27.9455204  70.1752472  86.7850800
  82.2928543  60.5358696  22.3243160  81.8419571  59.7419014  22.6116104
  82.6196899  60.9314041  23.1323757  25.4866848   6.7529058  30.2239761
  24.8901653   7.2559237  30.7783871  25.6916695   7.3411951  29.4972515
   6.4948015   3.1625960  63.2666054   6.7254310   2.9251380  62.3684654
   6.0277362   2.3982437  63.6040192  14.2426929  21.2215519  18.3749695
  14.7255678  21.6187305  19.0997543  13.3220901  21.3207855  18.6176090
  49.6068611  27.7147999  22.0020599  50.3738937  27.2701645  22.3628769
  49.0680695  27.0097198  21.6431732  73.5512085  60.7609100  10.4410524
  73.3864288  60.5508194   9.5218449  73.5337601  61.7173500  10.4749889
  42.9082222  16.0717258  13.6907244  42.5924225  16.7819176  13.1320391
  43.7218781  16.4069633  14.0673056  79.7796707   1.0332006  10.1220360
  78.9884033   0.5009035  10.2044592  80.1683044   0.7576396   9.2918177
  17.3217068  55.3656349  81.1798553  16.8353958  55.1484489  81.9751892
  17.2755013  54.5720444  80.6466370  77.8193817  29.5530758   8.5526094
  78.3896942  30.0919609   9.1008577  77.8312759  29.9843483   7.6981544
  54.5278015  34.1447067  71.8508224  53.6541824  34.3795280  71.5379715
  54.5013199  33.1922951  71.9427261  65.8192749  10.2320910  12.1184959
  66.1225281  10.5679789  12.9619713  66.3755264   9.4716520  11.9495277
  10.6743145  50.4902420  13.6905298  10.5152445  51.4327774  13.7410326
  10.0794983  50.1832809  13.0062771  77.2596664   2.4954093  77.4201736
  77.0609131   3.4287820  77.4946365  77.5182571   2.2343342  78.3040314
  83.3825531  10.1746864   1.8493062  82.7456589  10.7989120   2.1970649
  83.3739777   9.4501886   2.4748149  75.7893677  36.3447914  35.0975456
  76.2453156  35.5181847  35.2558556  76.3821487  36.8410149  34.5330963
  10.4240513  50.4865417  23.4082890   9.7878532  50.3127670  22.7145405
  10.6185474  51.4202003  23.3265228  84.7707443  69.0958786  47.7880554
  84.4486465  68.3024292  48.2157440  83.9796448  69.5474472  47.4939766
  42.6249580  41.0726814  70.1529236  41.7616425  40.9477158  69.7588425
  42.6060486  40.5370064  70.9459763  36.2115135  69.0282669  47.8561020
  36.5805931  69.7462997  47.3418617  36.8162384  68.2992477  47.7180176
  25.9240685  54.8543968  34.5647240  26.0638275  55.1156158  33.6545258
  25.0109253  55.0806923  34.7413406  29.6510410  46.9529724  77.1384506
  30.1967735  47.4069214  76.4963074  29.2959518  47.6518364  77.6877518
  67.7000275   6.7794251   2.6590340  67.3201523   6.3693271   1.8820231
  67.3691711   7.6774602   2.6418719  79.3624039  39.9761887  43.2723846
  78.8246460  39.1843643  43.2644997  79.8323517  39.9548645  42.4387665
  26.9323788  55.3833122  82.8673172  26.3398685  55.3823242  83.6190872
  26.3703785  55.1817322  82.1191483   2.6688504  53.4630241  65.7774048
   3.1027675  53.3879509  64.9275131   1.7906911  53.1119003  65.6298218
  69.2414169   2.4754229  64.6040649  69.8868942   2.1888475  63.9579506
  69.4269638   3.4057639  64.7316208  68.5495300  50.8820381  84.0240479
  69.0562515  51.6941147  84.0236740  68.9270248  50.3638458  83.3132706
  37.4272385  51.1106186  80.6830444  38.3577194  51.0789223  80.4607010
  37.1206894  51.9385757  80.3132553   1.3718622  43.9199066  66.8479233
   1.3653647  44.7664948  66.4012909   1.0548459  43.3000946  66.1909866
  62.7427711  58.9129372  17.7278080  62.9810524  58.2088089  17.1247654
  61.8716431  59.1883011  17.4422474  38.3205528  50.8163986  54.0183487
  37.9509735  49.9709129  54.2729111  37.8672256  51.4523468  54.5717850
  78.4729919  53.3869667  60.3943672  79.2433777  53.5199280  60.9466934
  78.0437241  54.2422218  60.3721428  63.7198296  58.5883942  20.2532578
  63.6716194  58.6889114  19.3025723  62.8260307  58.7476158  20.5565739
  43.6449242  25.5985355  36.3339844  43.8883553  26.4098301  35.8881416
  42.8559456  25.8236256  36.8270149  12.8264999  58.6257668  72.7702332
  12.4972248  58.4996147  73.6601181  13.0420656  57.7437172  72.4673309
  11.3306570  13.4278917  10.6584558  10.6941633  13.6148224  11.3485031
  11.6587172  14.2879152  10.3958397  33.2644768  22.8969917   5.6975126
  32.3293457  22.9826431   5.5119638  33.3755531  21.9804554   5.9502077
  13.1954832  21.6165123  66.9684296  12.5909519  22.0815983  67.5467682
  12.8627453  20.7192936  66.9457321  46.7060280   5.4646969  10.3137140
  46.4060783   6.1548529   9.7221508  46.4201431   5.7516418  11.1809883
  81.6757278  34.7144318  79.1251297  81.9018326  35.5656624  79.4999771
  81.3514862  34.2043686  79.8673782  51.8376083   0.4345327  59.5322151
  51.0282898   0.2775713  60.0186272  52.5261459   0.0716612  60.0894165
  76.2434464  60.8828545  71.0084763  76.2850037  59.9440193  70.8265762
  76.9837265  61.0466118  71.5927734  43.5927467  65.2805481  68.0865326
  44.3032379  65.0869522  67.4750061  42.8012848  65.2593002  67.5486069
   1.3907495  14.1796465  34.9113579   1.0455753  13.6524162  35.6318550
   1.0028725  13.7945642  34.1255493  20.9881210  54.2682724  18.6053467
  20.2531357  54.8160667  18.8809376  21.4785538  54.8161049  17.9924946
  75.0669022  14.9828930  45.7604256  75.5691528  14.9191151  46.5727730
  75.7162857  14.8637800  45.0673599  48.4412575  61.8308411   7.8210101
  49.1697845  62.4295158   7.6564817  47.8837090  62.2974777   8.4436007
   7.0916595  44.4759102  24.7472267   6.7612257  44.9337654  23.9743004
   7.1829519  45.1602745  25.4102058  39.2179527  68.7902145  77.1021042
  39.7434883  68.4931488  76.3592758  38.6308899  68.0575027  77.2884216
  64.0327530  62.1561623   2.0464604  64.1533203  61.9529114   1.1188914
  64.5942459  61.5302010   2.5037696  33.4888191  31.8199368  62.5438309
  33.7120056  31.1601353  63.2003975  32.6449280  32.1682358  62.8315277
  40.6168938   6.7179770  68.5106735  41.5072975   6.6355467  68.8521652
  40.2947884   5.8179197  68.4619217  57.0063858  38.0708847  85.4294739
  57.9126549  37.9464912  85.1476364  56.9775314  38.9713974  85.7527008
  13.4638042  51.7740974  61.3118210  13.4876804  50.8368187  61.5046234
  12.6305637  51.9043427  60.8590775  21.8717880  16.2592964  80.8188400
  21.6847782  17.0856380  81.2642822  22.1248112  16.5169716  79.9323807
  25.2752895  57.3384590   8.9287281  24.8007698  57.0412979   8.1523542
  25.2953453  58.2919388   8.8468189  85.5422211  27.3022785  42.8248291
  85.4733887  27.8899727  42.0724297  85.4250793  27.8718605  43.5851479
  74.0823822  17.7739658  77.2685699  74.9761581  17.7251377  76.9294434
  74.0289917  18.6367435  77.6796570  24.4078197  47.8814621  29.6423950
  24.1509895  48.7907486  29.7955780  24.1727791  47.7167778  28.7292309
  20.0893078  53.2036400   8.0406122  20.3515377  54.1241684   8.0504169
  19.1970310  53.2050781   8.3871269  64.2639160  15.3226328  19.5176468
  64.3987427  15.1697159  18.5824089  63.4012909  15.7340202  19.5711670
   1.8946633  21.5686665   6.7757468   2.2873089  21.8999081   5.9680715
   2.3960812  20.7791958   6.9795837  19.8020306  29.6732044   1.2907192
  19.4896660  29.9015694   2.1662247  19.0051689  29.4971600   0.7904706
  28.8187580  56.2434387  11.7569389  28.0020752  55.7871132  11.9594927
  29.4621944  55.8583717  12.3518715  86.1558380  30.0224628   6.5115347
  85.6159592  29.2997227   6.8315430  86.6976013  29.6314774   5.8260751
  61.4922485  37.9011002   6.8219385  62.0928421  37.2003021   6.5681658
  61.4443970  37.8417168   7.7760959  70.2787704  34.2251740  28.5306396
  69.7884216  34.5118332  29.3011017  70.0181808  34.8349495  27.8403530
  14.6288338  28.7171764  80.1598740  14.2921457  29.6125793  80.1934586
  13.9395742  28.1869545  80.5598907  76.8588104  15.3006048  70.3672333
  77.0888824  16.1329556  69.9543304  75.9375153  15.3990421  70.6075592
  46.1591454  43.2994843  37.2558632  47.0281525  43.1439514  37.6258202
  45.7002258  43.8050690  37.9266891  86.2812195  11.2192163  64.3051453
  85.6940155  10.5180845  64.0225830  87.0324554  10.7638397  64.6852875
  54.8246384  20.4575157  65.4878082  55.0917892  20.7329903  64.6108932
  55.0359459  19.5245037  65.5205231   8.9388952  51.5482101  77.6183319
   9.2676516  50.7154427  77.2797394   8.1884480  51.7539062  77.0608826
  40.8811188  45.0830040  20.0792618  40.2619362  44.9363861  20.7943516
  40.5121269  44.5996361  19.3400517  30.9625435  44.4737701  77.2148056
  30.9927368  44.4131355  76.2600098  30.4984322  45.2927628  77.3882370
  85.8634872  20.6806927  20.7034187  85.6976776  19.8883190  20.1926537
  85.3726425  20.5497856  21.5146961  23.1259861  23.8753605  58.6618690
  23.1427879  24.7985878  58.9140625  23.9152546  23.7570305  58.1333961
  33.1000748  34.0906258  77.1781845  33.9125977  33.8737488  76.7210159
  33.3835297  34.5745506  77.9538803   5.6925402  69.1484833  42.7179947
   4.9444413  69.7371140  42.6175499   6.4556241  69.7261429  42.7023544
  33.6449280  39.3905563  19.8859272  33.3349876  39.2246666  18.9956188
  32.9196968  39.1159782  20.4470692  78.7465973  25.7516937  75.3386383
  78.3126907  26.6047401  75.3223953  78.6314087  25.4414520  76.2368164
  30.6452789   0.0850726   9.8446894  30.3989334   0.9856537  10.0556393
  29.8606472  -0.2905851   9.4453545  61.6508522  37.1893921  74.9967270
  62.0501175  37.9182091  75.4717484  61.9586983  37.2930336  74.0963211
  47.5295181  49.2545815   6.5119181  46.7164040  49.7201614   6.3161683
  48.1859589  49.9456406   6.5999932   3.1577404   4.8862238  68.7200317
   2.7818656   4.0072074  68.7677765   3.9842827   4.8195744  69.1981735
  19.5825577  35.5220299  65.4084473  19.6589794  36.2676201  64.8130646
  19.2596607  34.8083458  64.8583298  56.2814941  31.7547379  52.7379150
  55.3380623  31.8900051  52.8266144  56.3684006  30.8384991  52.4748802
  83.4299088  49.9266167  21.5127792  83.3831787  49.0230827  21.8253040
  83.8745117  49.8649368  20.6673489  17.3355122  22.4597797  88.2993011
  17.5459843  21.5510693  88.5141983  17.3399944  22.4868355  87.3424911
  37.3624382  55.2043762  85.4372177  38.1341476  55.5044785  84.9569702
  37.0830002  55.9677544  85.9425888  76.8748932  69.0248871  61.1183662
  76.6524582  69.3410339  60.2426910  76.0390472  68.7447586  61.4913559
  53.0159149  36.1728020  29.2482662  52.1258926  36.1572571  29.6001911
  53.4751740  36.8172722  29.7867584  65.7922897  27.7918663  72.1253738
  66.5316849  27.2759285  72.4468384  65.8478699  28.6166000  72.6080322
  76.1659470  18.5836544  13.1081810  76.9768448  18.9985447  12.8140087
  76.4110565  17.6746941  13.2812195  50.6279984   6.1492052  73.3904648
  51.1707840   5.3627586  73.3346558  50.2121315   6.2147021  72.5308151
  14.3701839   0.9331124  64.1957321  14.3740807   0.0503099  63.8257599
  14.9294100   0.8707618  64.9700699   6.4845424  23.4562130   5.8936906
   7.1253233  23.0328197   5.3224030   5.8715758  23.8803139   5.2931552
  64.9013596  46.7073517  40.6095123  65.5389252  46.8911095  39.9196053
  65.3420563  46.9675674  41.4183998  77.8092041  33.6238327  49.3083420
  78.4539719  33.8982697  48.6562805  78.0545273  32.7240448  49.5238190
  20.3041763  18.1367836  69.0509262  20.9153786  18.4717827  68.3948441
  19.9891548  18.9178963  69.5057373  83.7105255  45.8506279  61.2190285
  84.1866074  46.0054741  62.0348740  83.5044785  46.7263336  60.8920517
  37.2441483   7.9399042  88.9960861  37.9352112   7.5931563  89.5603790
  37.5324860   7.7301178  88.1077805  76.8226547   5.1721597  59.9214630
  77.0518951   5.0212021  59.0044632  77.5197601   5.7384424  60.2525215
  76.1576309  22.2925339  11.0986319  75.3883743  22.2841949  11.6682062
  76.1095123  21.4655533  10.6190281  67.8942261  56.2971268  49.1936874
  67.6571579  56.9321175  49.8695679  68.8393860  56.4034996  49.0860596
  23.4399891   7.2495484   3.7111018  23.1910210   7.8812437   4.3857932
  23.7686081   6.4946589   4.1993470  25.6958008  63.8396645  36.7042389
  26.1777496  63.6792946  37.5155563  25.7315216  63.0057945  36.2356071
  46.9165230  57.0359917  27.8432465  47.4252586  56.5649605  28.5032063
  47.2864037  56.7513161  27.0075550  28.8188229  12.8759384  83.8404007
  28.7451992  13.7942200  84.1003494  28.3794403  12.3929214  84.5403137
  40.7482338  26.4106770   0.9007311  41.5744591  26.8933983   0.9245109
  40.5348740  26.3467903  -0.0301971  30.1380424  66.1257248  77.6484299
  30.6703205  66.8035126  77.2318802  30.2219353  65.3668137  77.0711517
  68.2340088  46.6767540   4.0853901  67.5715103  47.3497047   3.9289637
  67.7861404  45.8517113   3.8984301   2.5888727  26.5135784  58.1647606
   3.3273988  26.3916626  58.7613716   2.4099364  27.4534492  58.1940498
  76.3863907  50.9497757  15.8133698  76.7949295  51.7143021  16.2193604
  76.8307266  50.2011452  16.2113037  74.4335403  70.5517960   7.4944272
  75.3565674  70.3428116   7.6379128  74.4211502  71.0215073   6.6604905
  49.3184891  52.4213333  75.9561691  49.1787033  52.4656448  75.0102692
  50.2670441  52.3388443  76.0545044  19.3295231  67.2096939  42.4110870
  20.0872059  67.4763947  42.9316826  18.8588409  66.5929337  42.9717064
   1.7418202  43.0445976  18.2339516   0.8271050  43.3258514  18.2545815
   2.2098620  43.7805901  17.8396358  31.7310867  51.2788506  37.6615257
  31.2706585  51.2515907  36.8227806  31.5383072  52.1482925  38.0124321
  53.2987671  44.5275917  37.0506897  52.9823036  43.6407509  37.2227058
  54.0620193  44.6242104  37.6202049  37.6265488  58.8303947   9.2197685
  38.3668823  58.9414215   9.8162689  37.9317856  59.1945076   8.3888149
  25.9754601  26.4047050  13.0840416  25.7102795  27.1865768  13.5683851
  25.2688580  26.2619305  12.4543114  55.9591370  45.6147232  86.2091827
  55.1713524  45.3052483  85.7621307  56.2255096  46.3904076  85.7156372
  23.5859184  47.6285515   9.3843985  23.2509766  47.7712440  10.2696581
  22.9591942  48.0763321   8.8161211   7.7008991  13.3556576  49.3820992
   7.7106004  12.4701309  49.0188065   6.7838626  13.5120173  49.6075478
  51.9565125  55.9666405  64.2301559  51.2193985  56.2906075  63.7125244
  52.7120895  56.0482903  63.6482048  71.6933823  70.7163849  31.3965092
  72.5796585  70.9962234  31.6255264  71.7727890  70.3744049  30.5060177
  16.3631344  58.5848961  25.0821934  16.5652485  57.8146400  25.6133099
  17.0119171  59.2363701  25.3484535  68.1248169  35.3008308   7.0748010
  67.2088242  35.3679924   6.8052053  68.3192062  36.1479836   7.4757633
  48.8644218  11.7002907  65.4966660  48.7805138  12.1172609  64.6391525
  49.7952919  11.7719803  65.7077942  35.2923088  68.5296936  40.9556160
  35.5430450  67.6786041  40.5964355  36.1237373  68.9582291  41.1588593
  84.0335312  54.1298981  34.7389641  84.4891434  53.7213631  34.0029259
  84.6710434  54.1158791  35.4528389  65.5318451  50.6791992  58.9048767
  65.7587357  50.7087250  57.9754257  65.6469269  51.5797348  59.2082367
  23.0592842   9.1360779   5.8362761  23.5568466   9.5048590   6.5661135
  22.2932339   8.7351704   6.2469764  31.4220734   5.5543323  38.9248276
  31.9518261   5.7817945  39.6889305  30.9463139   6.3580813  38.7153664
  60.4907761  62.2584496  65.2508392  61.1963806  62.0090675  65.8476334
  59.7748489  62.5284500  65.8259659   8.7871885  57.0296402  70.8244705
   8.6451550  57.2928238  71.7337570   9.7313995  56.8856506  70.7615051
  68.7680206  23.5919819  80.1819687  68.8849106  22.6742592  80.4276352
  68.5249634  24.0292873  80.9980011  86.6660538  60.8843536  61.9902725
  86.2613373  61.0310555  61.1353378  85.9872513  60.4476929  62.5048447
  74.7149277  54.1856194  80.9404449  74.5637131  53.3432617  80.5117264
  75.0370331  53.9563026  81.8121643  37.0503769   1.3535370   1.6022040
  37.0438042   1.9539362   0.8567448  37.1333389   0.4846763   1.2092278
  70.4407806  18.5164204  65.9744492  70.4066544  19.1370983  66.7023392
  71.1531448  17.9190388  66.2022705  82.5088272  10.5298290  44.1572952
  81.9645462   9.9282951  43.6492195  82.0609818  10.6044302  44.9999695
  23.3339558  52.0930481   5.4262776  23.8779964  51.5118561   4.8948016
  22.4757061  52.0711975   5.0030012  48.9687958  45.1176910  76.1099167
  48.6612434  44.4470558  75.5000916  49.4330177  44.6287842  76.7893982
  37.3556061  44.8138618  12.4230309  38.1142273  44.7910423  13.0063019
  37.4271126  45.6539421  11.9698353  75.4063492  54.2184601  64.4675522
  75.1266937  54.4296417  63.5768089  75.8586578  55.0060997  64.7696609
  34.6762886  71.0217285   1.9996033  34.1395149  70.9011841   2.7829149
  34.5375519  71.9360275   1.7525499  70.3830032  40.8896217  73.0195389
  70.0730896  41.6870956  73.4487457  70.0164337  40.9349594  72.1364746
  19.2452469  66.4434586  75.2820129  19.3495693  67.3846054  75.4219894
  19.0501328  66.0922775  76.1508255  55.5905876  10.5662527  19.7929096
  55.0824394  11.2973137  20.1444302  54.9350128   9.9084625  19.5610409
  36.5912361  46.8395348  29.8640289  36.1338959  47.1656799  30.6390781
  35.8934631  46.5280151  29.2875767  39.2443085  15.5029478  75.4956589
  39.8768997  14.8394165  75.7709503  39.7778816  16.1953316  75.1056137
  83.5122833  22.5800400  79.2169800  82.7261505  22.5286598  79.7606583
  83.2695236  22.1394310  78.4026337  54.8322906  45.3558388   3.8359094
  55.2914658  44.5159683   3.8385546  55.5239487  46.0065727   3.7159555
  19.5764179   4.9873838  56.0559196  19.8737087   4.9895344  56.9657784
  18.9114799   4.2996383  56.0228348  72.9780884  14.6410427  62.9292755
  73.2877960  14.3504839  63.7871170  73.6532974  15.2466412  62.6233711
  18.4182854  40.2664680  41.2141228  18.1289730  41.1359253  40.9374046
  19.3384228  40.2260017  40.9534645  12.1349077  19.7893124  78.1623688
  12.1318159  19.0581875  77.5445709  11.2379541  20.1229801  78.1430817
  29.5118256  69.1096191  11.2320251  28.9160786  69.8167419  10.9844513
  30.3016949  69.2700882  10.7157040  54.1174698  16.2935696  54.7163506
  53.2594528  16.1147766  55.1011467  54.4761162  17.0028172  55.2498055
   6.4746723  50.3251534  70.4537735   5.6468444  50.2781715  70.9320221
   6.7216697  51.2491188  70.4927063  46.4448280  52.5712357  47.2909431
  46.2474365  52.4128685  46.3678017  46.5315323  51.6968994  47.6707458
  52.4755669  14.3189640  30.7323666  53.1364136  14.7296038  31.2899418
  52.6732635  14.6380911  29.8518524  67.8766937  32.0275803  73.4005814
  68.0211487  32.0103226  72.4545059  67.5034714  32.8925591  73.5701447
  30.8020344  47.1293106  51.2867050  30.5343761  46.2377815  51.5097847
  31.2980289  47.0340958  50.4735909  85.4918213  55.1615219   1.4404173
  85.4638443  56.0246773   1.0276089  85.8471146  55.3252411   2.3140285
  59.6872482  24.0944004  25.5320644  59.7846489  23.2055664  25.1904221
  58.7659035  24.1543179  25.7845745  47.4178429  21.9548092   0.3411117
  47.2223396  21.6435757  -0.5427127  48.2607651  21.5548096   0.5549105
   8.0441713  17.9491520  32.3541565   8.0630140  17.2159271  31.7391281
   7.8259540  18.7089500  31.8144150  76.1277237   1.2399420  63.4581985
  76.9515228   1.0153421  63.8907967  76.2721252   2.1198223  63.1100731
   0.9033536  56.0418472  72.7190170   0.2505760  56.3624840  72.0966797
   1.5033224  56.7782135  72.8374786  18.6095715  24.5273075  14.0272245
  18.2154789  25.2260818  14.5493698  17.8732014  23.9669666  13.7822580
   8.5148487  54.9644127  19.1151943   7.5803819  55.1691170  19.1483402
   8.6051760  54.3784828  18.3636894  45.2593918   5.9750772  64.3404541
  46.1371651   6.3404140  64.2296677  44.8603973   6.0431571  63.4730453
   1.3197455  58.0759239  48.4377632   2.0749524  57.8581467  48.9840851
   1.6890128  58.2260704  47.5675163  33.9788017  52.4918251  56.7414627
  33.6275864  53.3547935  56.9609222  33.9301796  52.4492416  55.7864456
  56.0540924  63.3851318  60.8062477  56.1928673  62.4564362  60.6205063
  56.8449783  63.6570511  61.2718582  36.9370155  66.7562561  31.6561623
  36.4403687  66.8034286  32.4730797  36.2784042  66.8589020  30.9691906
  85.4396973  22.6993084   7.4057093  85.4427032  21.8358536   7.8188305
  85.6435928  22.5258350   6.4867063  80.6536789   3.2407854  75.8788834
  81.5330505   3.6054716  75.7791824  80.3079376   3.2020357  74.9871445
  44.5387421  67.5600586  19.1977844  44.1478767  67.9246368  19.9918518
  45.3068085  68.1078033  19.0356503  86.9012985  23.0713520  22.2333107
  86.9145355  23.3417377  21.3151875  86.0727921  22.6024399  22.3329716
  47.9084930  69.3909607  63.1378326  47.7619286  69.6367569  62.2244148
  47.4445610  68.5599136  63.2396355  65.8752441  61.7639771  25.9445457
  65.6731033  62.5373306  26.4711380  66.3152618  62.1109581  25.1685181
  27.6768799  45.5065384  32.9969139  26.9690933  45.3232841  33.6147232
  27.2542400  45.9846344  32.2834473  21.1881313   4.9365435   4.7386522
  21.2411995   5.3499870   3.8769796  20.3326283   5.1993914   5.0781474
   2.2126391  62.4830284  84.0196304   2.5115988  61.8075294  83.4108963
   1.2873576  62.6046867  83.8068237  76.0340347  44.1327782   6.4251332
  75.1064911  43.9815483   6.6068454  76.1348419  43.9166183   5.4981241
  36.5645981  65.7160950   6.7132597  36.0588036  65.3338013   7.4303775
  36.3682823  65.1605148   5.9589233  34.2779846  44.6887169  79.8459702
  33.6978073  44.0225143  79.4774628  34.5190926  45.2362022  79.0987320
  51.5942039  11.3631096   8.1994209  51.4297333  10.6570482   8.8244467
  52.5338058  11.3133211   8.0236254  22.5776863  11.0948219  18.8091145
  23.1185074  11.8580723  19.0120773  21.6835613  11.4354057  18.7812729
  60.1093941  43.1762009  65.1104584  60.2146072  42.2277832  65.1857376
  60.9027367  43.5373344  65.5059662  71.3183289  10.5201416  36.5233269
  71.9586639  10.2252445  37.1708107  70.5404739   9.9900560  36.6970863
  85.3879318  15.2976208  22.8032608  86.0517273  15.9726896  22.9442902
  84.9485092  15.5591402  21.9940987  51.0887871  61.8108711  59.5893364
  51.3273087  62.6110153  60.0574303  51.6300507  61.1296120  59.9882774
  27.5150452  51.7890701  83.5363998  27.3400879  50.9174271  83.8911743
  26.7680244  52.3168755  83.8185577  12.1467657  52.9822006  16.7567883
  12.3130379  52.6388054  15.8789120  12.5116816  53.8669701  16.7409668
  65.1969147  48.7186241  82.1911240  65.1412964  48.5447044  81.2515030
  65.6484528  47.9546204  82.5498047  69.7233734  54.4094124  13.8684607
  69.4169769  53.5109444  13.7455521  69.2702484  54.7114182  14.6556730
  83.6401825  16.6311054  82.0586929  82.9565277  16.6264000  82.7286453
  83.5074463  17.4532585  81.5868149  47.1734848  54.8157692  59.4337883
  47.3443642  53.9829597  58.9939461  47.4308357  55.4809914  58.7954483
  25.2991104  -0.1167154  54.6835747  24.7821884   0.4930273  54.1570396
  26.2078686   0.0858932  54.4614487  49.5284500  16.2311611  85.9661026
  49.3195686  15.3204746  86.1740723  49.4692726  16.6880779  86.8051300
  81.2494278  20.7585506  14.2307959  80.6477814  21.5026913  14.2534466
  81.8455429  20.9101009  14.9642200  57.8066559  15.3863049  52.9815483
  57.6609573  14.8618145  52.1942024  57.8101501  14.7495708  53.6962433
  59.1622887  15.6313553  25.3769226  59.9977570  15.4637604  24.9408722
  59.3258553  15.4220476  26.2965240  14.5859432  41.7741318  39.0157356
  13.9459839  41.1299667  38.7128563  14.9962759  41.3643265  39.7772598
  46.6734161  33.3472900  73.9522324  46.4303703  34.1802139  73.5480042
  46.3644295  33.4201317  74.8552628  36.6409836  36.8567009  61.6524734
  37.0644455  36.0025558  61.7381783  36.2753067  36.8550606  60.7678757
  30.8949966  71.2130966  25.4643898  30.1904316  71.5426712  24.9065342
  30.7805500  70.2627792  25.4584694  77.9830475   9.6030045  42.3266373
  77.5713654   9.7449217  43.1790504  77.3179550   9.1450043  41.8127136
  11.5646019  58.8175163   2.2748394  12.0548801  59.5770760   2.5893629
  12.1162014  58.0675240   2.4972904   0.4110965  45.9908142  43.4014931
   0.6975825  45.6231079  42.5654602   1.0613320  46.6638832  43.6025047
  24.7483826  36.8825912  17.0271683  25.5899925  37.1610336  16.6660671
  24.9748020  36.2161827  17.6759129  13.2117100  66.4643326  65.7111588
  14.0102978  66.9378510  65.4782028  13.5089893  65.5763168  65.9093628
  49.8341942  18.1102276  64.2648163  49.1654434  18.7530499  64.5010071
  50.6605530  18.5182476  64.5234299  72.6111984   1.9834780  49.3624573
  71.8722687   2.4130223  49.7933960  72.9502487   2.6416600  48.7557640
  71.0534592  48.9585266  55.6508522  71.8925323  48.5474815  55.8587761
  70.4362869  48.2288933  55.5964050  56.1955795  62.0017052  83.9450302
  56.6743011  61.6006317  84.6704254  56.6411552  61.6844482  83.1595078
  84.6397934  14.8914022  66.2028656  84.3473206  14.9251184  67.1136703
  85.5953598  14.8837395  66.2582855  25.9881153  36.1145134  13.8278980
  26.2046814  36.6221771  14.6099510  25.1076813  35.7788620  13.9964428
  32.7248764  57.3637123  16.7637291  32.5958977  58.3118324  16.7378883
  33.1006851  57.1497574  15.9097843  51.1181183  63.8457985  14.6818495
  51.0123215  64.5881195  15.2768278  50.2272606  63.6326256  14.4040785
  82.9650955  31.3218384  17.4901466  83.1278000  32.1811600  17.1011391
  83.1849365  30.6995659  16.7968349  73.3482437  38.7783012  84.9260941
  73.5375137  38.5963821  85.8465881  72.3940582  38.7340355  84.8644791
  64.0038223  11.2588596  74.6384735  64.2374954  12.1785078  74.7644653
  64.1718826  11.0939779  73.7106781  76.3164444  22.5557365  62.2407227
  76.4966507  21.7384949  61.7760963  76.0528336  23.1684494  61.5541954
  57.3039284  39.3357773  32.7503471  57.1362343  38.5822601  32.1843758
  56.8430824  39.1314278  33.5640373  17.0754890  32.3749046   3.6606057
  16.8662376  32.7945709   4.4950671  17.5670567  33.0378418   3.1757271
  84.5508270  33.6386185  36.8234940  85.3074265  34.2175179  36.7303886
  84.6511383  32.9982147  36.1191826  71.7718506  35.3500595  69.9169846
  72.2384262  34.6029968  69.5422363  72.0085449  36.0871544  69.3540497
  75.4080124  68.8227005  65.7799683  76.1780167  68.2764969  65.9380646
  74.8367615  68.6539917  66.5292587  45.4375038  59.1869049  31.6805630
  44.8804932  59.9640427  31.7256355  44.9366074  58.5067673  32.1308365
  14.3554611   4.9781981  16.0590916  14.3477106   5.9326806  16.1307468
  14.7273159   4.8059640  15.1940536  75.1839523  37.9379082  55.0989838
  75.0451889  38.8415337  54.8153763  75.5858536  37.5088310  54.3436012
  26.2018528  58.6246033  73.9248657  26.8080082  58.2328873  73.2960815
  25.4405136  58.0444908  73.9169312  28.2665424  20.9678783  86.8552399
  28.4475784  20.0867920  87.1825714  27.9971390  20.8350792  85.9463882
  10.7996101  67.2295532  40.6266861  10.9648857  67.0411530  39.7028809
  11.6434374  67.5294952  40.9646530  42.4277534  49.4525375  24.9042587
  42.4740257  49.5529823  23.9534683  41.9942970  48.6092110  25.0352001
  55.3978081  54.7505798  63.9537354  55.2308083  53.9386482  63.4750786
  55.0274811  55.4365616  63.3982925  38.9533043  62.0870285  10.1196547
  38.8258133  63.0342445  10.0671206  39.6271706  61.8994522   9.4662418
  12.9172611  45.3636856  14.5335035  12.8042822  46.0658836  15.1741171
  12.0809259  45.3260002  14.0694399  76.8086166  10.6119337  81.4363785
  77.7549744  10.5021381  81.3437119  76.5939178  10.1605568  82.2527084
  75.0458145  11.6603251   0.9713128  74.1639099  11.5207462   0.6263447
  75.2596588  12.5602503   0.7250714  55.4376831  50.1328468  14.2070093
  56.0985527  50.6770210  14.6352119  54.7069550  50.7287292  14.0421085
  36.2204590   4.6921639   2.9505517  35.6241188   4.0878167   2.5085413
  35.8347397   5.5565047   2.8078389  15.8886576  51.1453247  11.9752712
  15.3032856  50.7759094  12.6364079  15.3233976  51.3115311  11.2208920
  69.0063171  25.5575790  17.6455383  68.4371567  25.2301903  18.3420315
  68.4311523  26.0911598  17.0971699  54.8564186  35.8383980  20.7669525
  54.9179497  36.7408333  20.4538136  55.5616608  35.7591515  21.4092827
  84.6319580  23.9393597  29.4797668  85.0763321  23.5148716  30.2136440
  84.2911377  23.2151260  28.9548283  36.9174881  13.8884296  80.7416916
  36.9501419  13.0482979  81.1992340  37.6182022  13.8346281  80.0918198
  78.2737808   7.5838304  19.2638912  79.0254593   8.0872564  19.5765820
  78.1537857   6.8989730  19.9217701  25.8587017  59.8999863  19.4072647
  25.4411640  59.8531227  20.2673225  26.6877346  59.4344597  19.5178089
  16.9441452  40.3510933   4.2714515  17.1204414  39.5457687   3.7850289
  17.7906704  40.7959442   4.3130813  40.2248497  69.7257385   4.6785192
  40.6157379  69.2111053   5.3846288  39.6444511  70.3424759   5.1246266
  26.0861473  34.7430267  18.2877617  26.2524910  33.9618225  17.7602386
  26.8898659  34.8666496  18.7927246  17.8835659  12.7405167  63.6341476
  17.7645721  11.9081821  63.1766624  18.4715405  13.2422361  63.0695267
  39.8973198  66.6570892  16.6636448  40.0638466  66.9271469  15.7605562
  39.5883331  67.4520035  17.0982399  37.8605309  16.6498337  87.6105957
  37.3461952  16.8055725  88.4027023  38.6657219  17.1494675  87.7457581
  77.5979385  45.6604500  18.7742310  78.2318954  45.1108551  19.2349606
  77.3133545  46.2981453  19.4288979  35.6227989   5.0618114  72.9652252
  35.2022247   5.6728954  73.5701447  35.0999527   4.2626452  73.0300293
  16.4566231  66.9697647  59.3161316  17.3233929  66.7239838  58.9928169
  15.8500881  66.6270370  58.6597099  61.9723816  31.3647308  76.1628265
  61.5790520  32.2028656  75.9198151  61.9738350  31.3694038  77.1200104
   5.7306862  30.3842430   1.3274220   4.9465752  30.4281845   0.7801828
   5.9547281  29.4539223   1.3506410  51.1027336  66.7461243  80.4677124
  51.4018784  66.8448029  79.5638275  50.2869949  67.2454681  80.5058899
  68.1726074  59.2282333  23.5820656  68.1620102  59.8198891  24.3344383
  69.0984344  59.1499062  23.3519840  61.4325867  43.5912743   1.7475233
  62.0609016  44.3085365   1.6639433  61.9233017  42.8115234   1.4878711
  45.8221092  30.2709789  81.8475342  44.9568443  29.8620186  81.8647537
  46.3190918  29.8084984  82.5223312  51.6133461  40.0765038  10.0937853
  51.8675995  39.4694977   9.3987074  51.1786346  39.5261497  10.7452240
  50.8718262   2.5310884  80.1885605  50.1429596   3.0479383  80.5318527
  51.4361191   3.1712639  79.7549973   8.6526747  56.4319534  76.2272491
   9.3104534  56.7140121  76.8628616   7.8169770  56.5511322  76.6785126
  61.3367386   7.1779308  55.2106094  61.4545860   7.4793701  56.1114311
  60.5972939   6.5717759  55.2556801  55.7896500  22.9767685  28.4223976
  56.4640770  23.1049290  29.0894470  55.4837837  23.8604908  28.2181606
   4.1266589  31.2208385  29.8890266   3.3945789  30.6345387  30.0801945
   3.7476165  32.0987968  29.9308529  43.3339195  62.2057266  36.6174049
  42.9203110  62.9617271  37.0340881  42.7307739  61.9589119  35.9163132
  85.4711533  49.7227554  44.0036850  85.3653717  48.7793045  43.8814507
  84.8010178  50.1135445  43.4429359  69.3222198  21.6419201  64.8068542
  68.9938736  20.7776833  65.0548859  68.5930862  22.0502529  64.3400955
  75.0719223  -0.0143697   4.9893427  74.5698700  -0.1685546   4.1890898
  75.7872925   0.5600456   4.7163572   8.7778902   8.8435459   7.0857692
   9.6159945   9.2066507   7.3720689   8.5482149   9.3543406   6.3095155
  59.0912361  17.2040787  67.7256470  58.1528282  17.3615131  67.6215515
  59.3571968  17.7975311  68.4280090  12.0081978   7.3343782   2.5806351
  12.4279490   8.1044283   2.9641228  11.4007015   7.6906419   1.9323630
   8.3499451  65.5261078   1.8120803   7.4980702  65.1036758   1.7021075
   8.9218874  64.8308105   2.1371670  85.2671585  60.1723633   1.6304257
  85.1375351  61.0900803   1.3912103  85.9335480  59.8574753   1.0196910
   9.9931278  54.6340179  44.9024239   9.3798809  54.6094246  44.1678772
   9.9032021  55.5173416  45.2600327   4.6875696  53.1195030   9.6340208
   4.3467302  52.3691788   9.1471195   4.3047071  53.0324783  10.5069904
  75.3822250  30.4278374  33.0414314  74.4849319  30.2857971  33.3429680
  75.9146576  29.8591862  33.5976486  83.4859314  25.5815754  65.0661087
  83.3353729  26.0427685  64.2409592  84.2779694  25.9828510  65.4237137
  72.1669540  42.5916824  13.8082228  71.3500290  43.0902214  13.8264542
  72.2012634  42.1568794  14.6602802  75.6290283  14.5440655  41.0795403
  76.3420563  14.1961079  40.5440521  75.9323349  14.4370394  41.9810867
  30.9363174  49.4275780  62.9094543  30.8966923  48.7760811  63.6096039
  30.0376263  49.4855232  62.5850677  10.0277843  42.5235710  77.7372131
  10.3168669  42.7637329  78.6175461   9.1348686  42.2005882  77.8581161
   5.3621211  27.6731834  17.6013508   5.5678263  26.7385788  17.6220951
   5.3584285  27.9380894  18.5211582  36.9182739  48.5651932  54.4557228
  36.6274414  47.6797142  54.6738434  36.3861465  49.1355362  55.0105019
  44.8852768  35.4788475  84.6776047  44.1371613  35.6749001  84.1135864
  44.6051559  34.7221985  85.1926270  84.3857803   3.8981280  14.7621517
  85.0017090   4.2697177  15.3936501  84.7139969   3.0138233  14.5993328
  52.2763023  34.3886452  15.8377924  52.4986191  35.1130791  16.4226036
  52.6959152  33.6244278  16.2329273  60.7618599  63.3580627  14.2547293
  59.8151627  63.2807083  14.3731117  60.8642960  63.7231178  13.3758259
  78.3650284  60.7385559  72.7749023  78.7389908  61.6082420  72.6333618
  78.0221024  60.7677612  73.6680832  15.1651907  47.1299553  27.3199253
  15.8231840  47.6449776  26.8529911  15.2629290  46.2438698  26.9713078
  59.0106087   2.8737345  10.4976902  58.8681908   3.6445370   9.9483156
  58.1334229   2.6167343  10.7818165  79.3757553  46.2489967  48.0659218
  78.7481918  46.8193741  48.5098457  79.2569122  45.3941422  48.4798393
  86.9568481   1.4583120  31.0439358  86.9674606   1.9745357  30.2379379
  86.0721512   1.5737357  31.3906612  23.2343273  43.6801300  58.9769974
  24.1811447  43.6729813  58.8365784  22.8695049  43.3213768  58.1680260
  44.4403725  60.0132103  88.0765152  44.9328651  59.3389854  87.6084213
  44.9468536  60.1699066  88.8734741  79.3424683  17.9960766  78.8449097
  79.9216385  18.4798660  79.4337616  79.5226517  18.3610020  77.9785385
   4.9078641  54.5412712  54.3769035   4.1160364  54.0034676  54.3796310
   4.6286716  55.3804817  54.7429733  12.2427588  24.0946331  20.6626205
  12.4074230  23.2786560  21.1351643  13.0132666  24.2089138  20.1063023
  16.4052277  67.8610382  71.2411652  15.9887743  68.3359985  70.5219803
  15.6837931  67.4103317  71.6800461  23.6119099  69.0772018  33.2045708
  23.6289330  68.9449768  32.2566986  22.9125195  69.7154846  33.3448410
  13.4864702  50.4380722  16.9741230  14.0644960  50.0852280  17.6505985
  13.2161875  51.2920570  17.3115940  50.4156609  29.9911900  85.6545944
  50.3957100  29.5627251  86.5103073  51.2988281  30.3544579  85.5891571
  81.8129272  53.3382416   9.0810709  80.8696365  53.4693146   8.9848576
  82.1431046  54.1852722   9.3806610  21.5669212  30.5726318  26.1363983
  22.0219707  30.7692871  25.3175659  21.3188267  31.4291935  26.4842262
  19.0852604   8.7529659  59.0471802  19.2045364   8.2327070  59.8417435
  18.1405716   8.7420492  58.8933067  20.5197086  51.8855629   4.7805181
  20.2662106  52.2669487   3.9399741  19.6964474  51.7946777   5.2603207
  65.4710693  49.0989990  67.1612244  65.6882629  50.0138245  66.9819260
  64.5666428  49.0045433  66.8623505  34.9357071  66.1734924  72.4453812
  35.0773087  65.4370193  71.8505783  35.4323196  66.8938217  72.0571365
  66.9990997  59.0999527  77.8334961  66.7197647  58.1847496  77.8582916
  66.3180161  59.5446548  77.3289185   2.6323171   4.9031210  65.9460144
   2.6117284   5.1551328  66.8692093   3.0955217   5.6198006  65.5123749
  42.5031548  29.0008888  12.3879328  42.4279099  28.2782345  13.0111046
  43.4045715  29.3079243  12.4849291   1.6843684  35.1652031  71.3858261
   2.2763224  35.8931885  71.1964569   2.0102978  34.7991257  72.2080078
  86.7352524  51.0293159   1.7914737  86.3206711  51.5291214   1.0882306
  86.4385605  51.4557343   2.5954473  28.6619549  61.5525208  20.2926426
  28.4532852  61.0251160  21.0637016  29.2995071  62.1938133  20.6064930
   6.3802528  11.8725548  83.3775940   7.0685081  12.5057859  83.1737366
   6.6232867  11.0880709  82.8859100  23.4596539  64.7988815  83.1431427
  24.1767578  65.2355804  82.6834869  23.2053127  65.4148102  83.8302917
  60.4184837  35.5210876  24.1988106  60.1309891  35.8527641  23.3481808
  61.1306419  36.1066895  24.4559708  35.4805870  49.8716469  26.0465546
  34.6174393  49.5186501  26.2624397  35.3966789  50.8142509  26.1903839
  46.3052864  16.1084557  61.0253677  45.6394005  16.7152004  61.3489304
  46.1042824  16.0060863  60.0951233  41.3550644  37.3061676  64.9418869
  42.1969872  36.9737892  65.2532120  40.7690659  36.5504456  64.9833832
  86.4342194  21.4223652  30.5474224  86.4804611  20.5078144  30.2686939
  86.0605392  21.3858051  31.4279099  63.7701378  32.8294563   7.5831084
  63.3382988  33.2771454   8.3106556  63.1609612  32.1343689   7.3341303
  34.4579697  21.0218086   9.5571766  34.3540955  21.9059353   9.2053804
  35.0395699  20.5836277   8.9359112  76.1953430   6.6758299  26.9470825
  76.7868500   6.3142695  27.6071014  75.9078140   5.9158683  26.4411011
   9.8674870  28.9810352  88.3904648  10.0013809  29.8272247  88.8173904
   9.3039980  28.4953594  88.9928131  -0.1445180  40.1603508  33.8285904
  -0.3681076  41.0466118  34.1128197   0.7521805  40.2327576  33.5016060
  53.1794777  63.0452271   4.2747808  53.2450027  63.0378685   3.3198545
  53.9269180  63.5696373   4.5621090   6.1654201  38.0893974  78.7144928
   5.5109329  37.4150314  78.8964462   5.6734290  38.9103775  78.7275620
  66.3853226  43.7739716  26.0397892  66.3769226  44.2622223  25.2165203
  65.6006699  44.0695000  26.5015392  52.9490395  42.3888397  23.3373795
  52.0473518  42.5298615  23.0487595  52.9955826  41.4520912  23.5286026
  63.3409195  45.8147469  29.6134319  62.5056572  45.6655884  30.0565128
  63.4893036  46.7570267  29.6929340  36.2952232  69.0813370   1.6183788
  36.5564346  69.0086288   2.5363739  35.6233406  69.7630844   1.6138124
  78.0635300  23.0544071  48.4660606  78.6851959  23.4291992  49.0899925
  77.8434982  22.1978760  48.8323593  18.9023724  30.2697525  74.6925964
  19.4417553  29.7365761  74.1086273  19.0007763  31.1623249  74.3611374
  38.9586449  34.7979774  79.5729599  39.0600281  35.7325668  79.7532349
  39.7763329  34.4050713  79.8783112  49.3385315  24.5365448  13.7197819
  50.0084457  25.1933079  13.5297575  49.0918236  24.1909122  12.8619337
  54.9357872   0.0518259   9.9812260  55.5670815   0.7577883  10.1202040
  54.1050720   0.5007910   9.8244658   5.6494617  45.2734108  58.4826775
   4.8390007  45.7736053  58.5785408   6.3453431  45.9199905  58.6006432
  68.1644592  69.8722153   8.2061872  69.0335693  69.4795761   8.2881145
  68.1647720  70.2756882   7.3381772  44.7218361   9.7553864  66.6772156
  44.2173843  10.1624804  65.9729233  44.2727089  10.0229111  67.4790573
  64.1313324  34.7472229  62.1760216  65.0509262  34.9788551  62.3061333
  63.7913208  34.6106224  63.0603104  73.4035339  26.0037823  78.0629501
  74.1436157  25.6900063  77.5432816  72.6590576  25.4860306  77.7564850
  25.9737854  19.3478355  44.6892433  26.7968616  19.8342571  44.7358437
  26.0571251  18.6711292  45.3610725  56.3750839  19.3156853  86.3064117
  56.4403305  20.1829014  86.7063065  56.3080788  18.7143459  87.0481262
  66.5021820  32.4181595   7.3701296  65.6089478  32.7584534   7.3195167
  67.0419998  33.1025887   6.9746666  85.4139557  23.8947296  55.5205078
  84.9958649  24.5665054  56.0591621  86.3238754  24.1816463  55.4433174
  62.5764809  69.7679291  85.6458206  63.2565002  70.2482300  86.1181641
  62.8895531  68.8635254  85.6293869   1.8950825   2.2970326  69.0201035
   2.4124420   1.4975343  68.9232941   1.4844100   2.2138226  69.8807220
  66.2125320  56.8126602  12.8951378  65.7873154  57.5617943  13.3125420
  65.9290390  56.0580864  13.4113588  55.0337143  57.8443069  37.6866531
  54.9658356  57.2585602  38.4406624  54.1899071  58.2952385  37.6569366
   2.7110376  34.1621437  25.4137344   2.4115388  33.3540955  24.9970894
   2.4116516  34.8583336  24.8289967  46.9696922  37.7562065   7.1428733
  47.8839073  37.7200737   6.8615594  46.5407448  37.0538559   6.6540556
   3.7072046  26.0221672  64.0487442   3.6906681  26.6613197  64.7610931
   3.1378126  25.3138390  64.3492355  53.7641792  23.8533020   4.8898768
  53.6286430  23.0717678   5.4256625  54.6612968  24.1244812   5.0844822
   9.1004848  66.8469238  14.7339258   8.1858988  66.6898727  14.9686565
   9.2867966  67.7236938  15.0697803  24.3866539  64.2022858  72.2100296
  25.2760677  63.8789101  72.3535690  23.8235760  63.5415306  72.6132431
  12.7309675   1.3172255  80.3152084  13.1391745   2.1447327  80.0605927
  12.5611401   0.8690113  79.4866638  47.3842583  17.5015793  77.5905914
  47.3512955  17.6147251  76.6406708  48.1697998  17.9768448  77.8612823
  32.0455551  50.4753571  84.1469727  32.7613411  50.4454041  83.5121613
  31.2650166  50.2555008  83.6383972  31.0377884   6.8658404   9.5692368
  31.2693195   6.0723953  10.0520096  30.3545742   6.5850186   8.9604788
  73.3095322  64.0439529  82.5036621  74.2270584  64.0396805  82.2309799
  72.8540192  63.5535202  81.8194046  69.1395340  64.5525055  37.9867516
  69.2340698  65.4985199  37.8755646  69.7943192  64.3221970  38.6458740
  36.2624817  52.2558441  19.1001987  35.5761909  52.8473701  18.7914410
  36.4357529  52.5380707  19.9982853  44.4569130  51.1066284  16.7756100
  43.7001305  51.4631271  16.3103962  44.9137077  50.5786743  16.1207561
  61.7863235  38.1823311  63.1862068  62.4944534  37.6735840  62.7912903
  61.6581573  37.7856903  64.0478821  49.1464195  56.9486504  66.9237595
  49.1894226  55.9981117  66.8195496  50.0564384  57.2171402  67.0502930
  85.6403503  25.5866699  36.4891205  86.4079971  25.0869331  36.7669868
  84.9001923  25.1321125  36.8913345  83.7120285  43.3184700  60.5052872
  83.5513306  44.2550125  60.3899841  83.9577103  43.2291985  61.4261055
   3.5573997  71.5345993  42.0212135   3.3507621  71.7650681  42.9269829
   2.8005247  71.0296402  41.7239189  29.8550377  70.0347137  23.2716656
  29.6037807  70.8900681  22.9231281  30.7124481  69.8603745  22.8834839
   4.5245919  64.5089798   8.2125511   5.3785386  64.3714142   8.6225300
   4.4057751  63.7472343   7.6452298  23.2984982  16.6797962  11.2049570
  22.6958294  17.4113750  11.0714903  22.7412243  15.9020786  11.1761122
  28.1308918  29.1429253   1.4013582  27.2532196  28.8429508   1.6378698
  28.5823250  28.3526382   1.1049044  79.6352844  66.8346100   6.1417270
  80.0297470  67.7067490   6.1379972  80.3765869  66.2368622   6.2386289
  78.3684692  46.1987419  27.9711819  79.1280365  46.0626717  28.5375500
  78.7414856  46.3541679  27.1034660   4.6456270  18.0721397  22.1512451
   4.7988243  18.8637409  21.6353664   5.5187678  17.7933807  22.4271984
  24.2297211  52.6894760  41.8017693  24.7762966  52.8334961  42.5742645
  23.5240650  53.3308830  41.8846970  31.1260281  47.6638947  65.0714569
  30.2555008  47.9230804  65.3735199  31.6439571  47.5852776  65.8725815
  56.8444824  40.7697296  72.0389175  56.3302879  41.1287880  72.7620468
  56.2774849  40.1042976  71.6491165  52.1445923   7.8445749  82.0755005
  51.6971970   8.5418930  81.5961075  51.8079758   7.0353227  81.6907501
  27.1230545  55.4342537  52.6193428  26.2520390  55.8203659  52.5272560
  27.6764240  55.9486427  52.0316200  79.3046265  57.3054581  16.9786282
  79.3416519  58.1665497  16.5622406  78.9049377  57.4694366  17.8327904
  65.6059036  24.0292625  61.1230278  64.9589539  23.8092632  60.4527397
  66.4425812  24.0276508  60.6580467  83.5023041  46.3854256  35.3301010
  84.1957016  46.4848251  35.9824448  83.8622055  46.7803726  34.5359268
  54.0196533  51.4087143  50.5068893  54.3045692  52.2129211  50.0729523
  54.4393120  51.4388809  51.3666611   0.3584022   0.8403113  43.9122963
   1.1425613   0.4121010  44.2557526  -0.3521399   0.5203887  44.4681854
  55.9417801  20.5311852  68.5170746  56.1849976  21.3620510  68.1087341
  55.5105171  20.0383930  67.8189316   0.7565439  20.1548939  82.6775589
   1.3906134  20.2977562  81.9748688   1.1397462  19.4559250  83.2074966
  52.2232170  21.7429829  79.7796173  52.4139938  22.1741447  78.9465866
  51.7093658  22.3850365  80.2694702  56.3609161  17.6845226  67.7061234
  55.9019165  17.9635105  66.9138412  55.6682358  17.5716324  68.3570328
  49.1742477   6.1278429  39.5284157  49.8511429   5.8160315  38.9277382
  48.9508705   5.3612466  40.0563049  77.2148285  35.0967140  56.7134132
  78.0753174  35.1052742  56.2942200  77.1595001  35.9394417  57.1639481
  54.3180275  17.8726254  39.6450577  54.2021027  16.9745655  39.3347664
  53.5672531  18.3478317  39.2890358  77.6766281  61.2428207  35.1991234
  78.0824814  62.0202141  34.8154907  78.0678635  61.1734047  36.0699577
  42.0767555  26.5219402  71.9043045  41.6849976  25.7255630  72.2628250
  41.4439850  26.8287449  71.2549133  25.8533134  43.8242874  77.2235794
  26.5339203  44.3893280  76.8578796  26.2644691  42.9619560  77.2833099
  53.4772453  62.0907593  21.1281757  53.6541595  62.6795235  20.3944950
  52.5663834  62.2678528  21.3631325  43.5004311  15.8195381   0.9352475
  42.9335747  16.5433636   1.2016733  44.1438217  15.7471666   1.6402611
  68.7237701  63.2913742  31.3746090  68.1459045  63.9785233  31.7064590
  68.1295624  62.6155891  31.0483379  29.7846394   9.2621279  77.0482178
  29.7676201  10.2168999  76.9822388  30.7142296   9.0362921  77.0151443
   3.9854214  60.1476707  17.3669510   3.1841221  60.6325951  17.1694698
   4.0806432  60.2190247  18.3167267  44.0575104  42.0066681  65.1067047
  44.5331764  42.7300606  65.5149612  44.5990982  41.2364349  65.2789078
  31.4663506  64.4624405  23.4136505  30.9825535  65.1504745  22.9567261
  31.7422943  64.8688507  24.2351875  67.9034576  28.9591637  65.0220947
  68.1007233  28.0511360  64.7923126  67.0598373  29.1339302  64.6049728
  86.6061859  36.6419716  54.2738380  86.2719574  35.9406395  54.8329926
  86.7973175  36.2128563  53.4398346  15.7567587  23.8855152  13.6779146
  15.4621620  23.6212692  14.5494766  15.2858944  23.3052158  13.0797739
  62.8109283  17.4865646  56.2744370  62.5316238  18.3997459  56.3401718
  63.5161438  17.4049892  56.9165039  49.2820854  55.9127235  40.6625862
  49.0967979  55.6804543  41.5725060  48.9723206  55.1620102  40.1559258
  58.6431503  38.5024071  73.7442398  59.0423546  39.0608826  73.0771790
  58.7663269  38.9821701  74.5633163  41.7419662  52.6626701  36.9081993
  42.1800613  51.9206886  36.4913445  41.8384628  53.3803329  36.2821960
  58.7242661  55.0718422  73.7353210  57.7694588  55.1370239  73.7532349
  58.9476051  54.6048698  74.5404816  83.0418777  55.2025795  31.1015835
  82.9699631  56.1085205  31.4021358  82.1775055  54.8260574  31.2668934
  13.7665348  16.5492439   5.9823260  12.8219547  16.3944111   5.9770451
  14.1024418  16.0049763   5.2701659  67.5112915  56.3019257  33.7359772
  67.1898117  57.1570435  33.4502106  68.4628067  56.3634758  33.6519890
  80.8815613  45.7193298  22.0871334  81.8160248  45.5187950  22.0342102
  80.7583542  46.0540276  22.9754066  33.5230293  54.9587021  70.7380295
  33.7629166  55.2324028  69.8527145  34.0267830  54.1583595  70.8860550
  54.1531754  26.6462212  54.2880745  54.1833839  26.3667374  53.3730850
  54.6108589  27.4868641  54.2969742  37.0354156  33.2191734  78.4691849
  36.8307114  33.6004906  77.6154175  37.5958748  33.8688507  78.8935013
  21.4155197  14.6760845  11.7604628  21.6065750  14.4607677  12.6733522
  20.5856285  15.1517982  11.7952137  85.5003510  61.0092812  24.6813107
  86.2578888  61.5823250  24.5630627  84.7445068  61.5787506  24.5376492
  67.9655151   0.4391731  68.9758453  68.0859146   0.9459046  69.7789383
  68.3270798   0.9949602  68.2854843  68.6350632  49.6192856  25.8267746
  67.7269974  49.9217186  25.8404102  68.6474609  48.9283371  25.1644554
  63.0492134  70.9773102  32.5832062  62.6022568  70.2981491  33.0883865
  62.5285072  71.0635834  31.7846756  54.1581230  58.4688225  42.8250198
  54.5473557  57.5943604  42.8321342  54.4775772  58.8797264  43.6283455
  11.9942017  28.4735260  11.1119680  11.1937418  27.9816303  10.9288416
  12.3679466  28.0447865  11.8818569  86.0607224  53.5679550  32.5400925
  86.0769730  54.5247498  32.5173912  86.5798721  53.3015213  31.7813225
  83.5743637  43.4644203  40.3832626  83.3209381  43.9911346  39.6252556
  83.8661652  42.6326218  40.0101700  19.9633369  24.6873741  82.3218002
  20.8258667  25.0356655  82.0960388  19.9099903  23.8558521  81.8506775
  64.2742462  60.9489632  18.3311481  63.8892212  61.7234917  17.9211559
  63.6006203  60.2740364  18.2479153  31.2310467  64.2612000  55.9024086
  30.5671062  63.9695320  56.5271873  31.9932613  63.7133064  56.0896759
  72.4934235  40.1148987  21.2386570  71.5596619  40.2318649  21.0636177
  72.5591660  40.1087532  22.1935749  73.2393646   1.5405148  59.5427284
  73.6389847   2.1200840  58.8941650  72.2975159   1.6706280  59.4321518
  10.5120459  31.1499271   8.8573484   9.8861275  30.7741680   9.4764318
  10.8601303  30.3959579   8.3813238  68.9878311   2.1855705  70.7946548
  68.3243484   2.8746927  70.7609482  69.1376648   2.0428548  71.7292175
  83.2826157  65.7837677  88.3840714  82.5450592  66.3622818  88.5778809
  83.7691193  66.2381516  87.6962585   7.8677974  23.1036663   8.2864819
   7.1454725  23.2338943   7.6720557   7.6674047  23.6866322   9.0187559
  18.4185238   8.9081116  23.2678509  19.1967087   9.2844076  23.6790237
  18.6245289   7.9783425  23.1712933  32.1376648  64.1676636   0.8214369
  31.3352375  63.7408066   0.5212075  31.9255314  65.1010513   0.8249749
  50.1447563  36.6137314  15.5487452  50.7567596  36.5290413  16.2798462
  50.7003822  36.7978516  14.7913752  73.0551910   9.7640371  13.0622206
  73.8241577   9.6890898  13.6272879  72.5040359  10.4172897  13.4931774
  18.6462498  20.3072834  65.8171539  18.5810165  20.6512833  66.7080231
  19.4299488  20.7223511  65.4569244  20.0158062  19.2113190  79.2806396
  20.4942932  18.7685719  78.5797501  19.5758152  19.9418316  78.8459091
  21.3256054   1.0692270  55.7741127  20.9998569   0.1822716  55.9271812
  21.9023743   0.9848518  55.0148659   4.0322251   7.7078352  54.6308250
   3.1565559   7.9947910  54.8898468   3.8771203   6.9960065  54.0099602
  77.4192276   1.9609734  15.6762285  76.6947632   2.5782821  15.5746603
  77.0336990   1.2119150  16.1306686  80.3861923  59.8429489  83.3207092
  79.6541290  60.4407692  83.1692581  81.0250854  60.0707054  82.6453094
  60.8954201  44.4843903  30.6267357  60.7652969  43.5469398  30.4836025
  61.0079575  44.5687637  31.5735455  24.2292862  46.1902161  39.3747787
  24.7912750  45.6454887  38.8237114  23.3384876  45.9496956  39.1201057
  78.2199249  14.6720228   3.0356865  78.0518875  13.7338037   3.1236646
  77.4515076  15.0904083   3.4239161  47.9200401  31.3640308  69.8271942
  47.6051712  30.4838867  69.6212006  48.1602783  31.3219318  70.7528000
  85.8083725  23.3900070  72.4438705  86.7584457  23.3184395  72.5358582
  85.6064682  22.8936653  71.6507034  64.5253448  22.7538166   6.0250416
  64.4758530  22.4137535   6.9184279  64.6542969  23.6959896   6.1341996
  63.8342285   9.7703257   0.7364270  62.8957520   9.6506577   0.5909232
  63.9287148  10.7015419   0.9367762   5.1205511  20.5090656  17.0958691
   6.0052438  20.1916866  16.9147053   4.6299119  20.3203812  16.2959290
  40.2955475  41.3477364  54.1635475  41.0104065  40.9006920  53.7103844
  39.8586693  41.8552704  53.4796066  59.3949890  32.2599068  26.7426434
  58.7635231  32.7401543  26.2070618  60.1864395  32.2241135  26.2054710
  22.6852894  42.9367409  21.5906677  22.4293537  43.0864563  22.5007858
  21.8619156  42.9615021  21.1031494   1.5485588  32.7513695  69.6700134
   0.7911007  32.2889061  70.0286484   1.5322235  33.6067581  70.0992889
  39.7348404  40.9862213   2.5321088  39.5030670  41.7546959   3.0536060
  39.9359131  40.3097153   3.1787474  80.0210571  59.3039780  12.3302994
  79.0812073  59.1246452  12.3027534  80.4236221  58.5344315  11.9278479
  64.2278595  56.8483086  63.9796753  63.5001183  57.4311066  63.7629509
  64.8039474  57.3789215  64.5299530  81.2477036  15.7246017  28.4670448
  82.0978699  15.7115488  28.9066811  80.8120422  16.5043430  28.8111916
  48.8583298  16.7137909  22.8389378  49.0445328  15.7963200  23.0384521
  49.7068138  17.1512089  22.9094353   8.8710403   2.0195370  71.7966080
   8.3796444   1.6044552  71.0877533   9.7538042   1.6574486  71.7201004
  82.0921555  40.8383598  47.0126610  82.1868973  40.2310524  47.7464447
  82.5962753  41.6092339  47.2731400  18.2693024  63.2947121  30.9036922
  18.9686737  63.8281479  31.2812595  18.3813438  62.4333649  31.3058815
  27.8839188  47.1907196  22.5932522  27.9035435  46.4031830  22.0495319
  28.4663277  46.9904480  23.3260021  62.3733978  21.7258987  70.4608841
  61.8345871  22.1024189  71.1566925  63.2742004  21.8793640  70.7459030
   3.2040973  42.9161797  38.1060677   3.1486185  42.0131569  37.7934914
   4.1233516  43.0300560  38.3473892  57.4812126  38.4073410  57.8238106
  57.3771324  38.5182800  58.7688446  56.6220474  38.1133423  57.5211029
  46.7799072  53.7029877  38.9933205  46.0458069  54.2551193  39.2625389
  47.2419662  54.2227859  38.3356438  74.7646790  18.8370590  39.4464073
  74.9732361  18.9745445  40.3704414  73.8257370  19.0123634  39.3841438
  76.1316605  39.3617210  46.2170525  76.4849548  39.8730850  45.4890976
  75.9156876  40.0128708  46.8845787  59.9027214  51.0826874  10.8768816
  59.5270882  51.8717041  10.4862661  59.1581612  50.4907990  10.9842348
  24.8028965  58.8763390  34.0751648  24.8893299  57.9241600  34.0291862
  24.8910332  59.1689148  33.1680450  43.3240776  38.0857811  62.2956314
  43.7823563  38.4818382  61.5544472  42.4133873  38.3604088  62.1886101
   8.1202440  65.8288345  30.9473591   8.3656816  66.6229630  31.4220753
   8.7171669  65.1577682  31.2783890  77.3702698  48.5299339  22.8186378
  77.1388092  47.9650650  22.0813618  77.9922485  49.1587257  22.4525738
  49.9116592  46.2292252  20.7837620  49.6329193  46.9573822  20.2284927
  49.3947220  45.4836960  20.4784889  63.5854607  23.5014000  13.8908854
  64.4248962  23.4837227  13.4312391  63.7934303  23.8546104  14.7558842
  58.4038048  19.4623680   7.1103959  58.7202873  19.9684982   6.3621292
  58.8107300  19.8784580   7.8703394  84.0924225  32.5715103  22.1677380
  83.2658691  33.0213890  21.9926720  84.2561722  32.0555573  21.3783016
  52.6967583   4.1449065   0.3315456  51.8647995   4.6176863   0.3079394
  53.2071915   4.5919166   1.0067279  56.2430954   2.6686833  61.0491867
  57.0012474   3.2521486  61.0174942  55.4937019   3.2551377  61.1526718
  19.5483437  17.4544106  75.4352646  19.4529457  18.4044151  75.3672791
  18.6514282  17.1211300  75.4088821  52.6166039  49.8037376   0.5238351
  53.0327835  50.3743782   1.1698921  51.6829910  49.8494568   0.7300115
  71.7616959  62.8480148  12.6671600  71.5594177  61.9705887  12.9918747
  71.2321854  63.4322243  13.2098789  78.9942169   3.7211492  10.2009592
  78.1931686   3.2530935   9.9654121  79.6850815   3.0619488  10.1346836
  34.5689545  63.3506813  79.0817184  35.3496437  62.8138542  79.2180252
  34.5902824  63.5723915  78.1507950  57.8054237  27.1855907  75.9958725
  57.4464722  26.8778172  75.1636124  58.7465858  27.0264854  75.9242630
  38.7389412  51.8499184  59.6989174  38.7963943  52.6619797  59.1954422
  38.2944031  52.1010399  60.5085831  29.7346630  21.8366909  12.3375731
  30.2282562  21.9273815  11.5224829  28.9282150  21.3895817  12.0807352
   8.7639828   9.9711952  79.9712830   8.3909836  10.8494864  79.8957291
   8.2881145   9.5706606  80.6988525  51.1261902  23.3275852   0.9596452
  51.1480751  22.4845467   0.5068310  50.8420639  23.9511375   0.2912994
   9.0602942  65.7815857  43.1713219   8.5287800  66.4659042  43.5780602
   9.9340773  66.1662598  43.1023140  67.5203629  25.5473328  69.4879150
  67.2576065  24.6714687  69.2049866  67.5621643  25.4882240  70.4423752
  86.5573959  59.4224472  57.8439903  85.8730316  59.0260506  57.3047791
  86.0904617  60.0373802  58.4097328  65.2939148  30.2259731  42.3981857
  65.1745911  31.0102673  42.9337921  66.0885239  30.3992729  41.8934174
  64.0890503  63.8993454  63.0436440  63.6260071  63.0696220  63.1593170
  64.7965546  63.6955490  62.4319801   7.6522636  52.4593658  33.0803757
   8.5588284  52.5572472  32.7891846   7.6787744  52.6568336  34.0166092
  63.6016769  39.3847504  12.7186012  63.8783989  39.5443192  11.8162737
  63.5970917  40.2515869  13.1245642  71.6987457  48.2698174  59.1028023
  70.8495636  48.0118599  58.7442207  72.3184280  48.1072044  58.3916168
  84.4037628  66.3950119  56.9596748  85.0784073  65.9831924  56.4197731
  84.2652969  65.7802658  57.6801949  77.3675613  22.4765263  27.9644527
  76.6653442  23.1242924  28.0237808  77.9784698  22.7211971  28.6595516
   7.2578726  62.8397179  87.5800018   7.1965094  62.4813576  88.4654617
   7.5190353  63.7516289  87.7082520  55.2434578  28.7663231  29.4028282
  55.0534897  29.1065254  30.2771320  56.1855202  28.5969696  29.4111958
  48.8760452  69.7055588  15.5283232  49.2762337  70.5214691  15.2277212
  48.0243721  69.9703369  15.8758545  60.6800690  67.2419128  36.7348518
  60.4544945  66.9316635  37.6118317  61.1041870  66.4922333  36.3173103
  26.3433762  28.0740757  56.3363380  26.1300488  28.6872158  55.6329308
  26.7324963  28.6196594  57.0198250  46.1206551  14.6811829  37.4321556
  46.2987785  14.5728588  38.3663788  45.4316635  15.3446159  37.3950424
  12.2785234  42.1861076   8.5288992  13.0639982  42.6717186   8.2770205
  12.4691782  41.8622322   9.4092331  29.9422169  58.8583641  48.3565369
  29.4085159  58.8473740  49.1510658  29.4518452  59.4090652  47.7462158
  34.3225899  55.3549271  18.8397045  34.8798141  55.8455391  19.4438820
  33.9301224  56.0240211  18.2788868  63.0688858  65.2034760  30.8547745
  63.1740723  65.2325592  31.8057327  63.0071602  66.1219482  30.5924244
  71.1247864  37.6263428  21.4652386  70.5505905  38.3481865  21.2093544
  71.9566650  37.8167839  21.0317211   6.6409798  22.4802265  14.2318354
   6.5668206  23.3776054  13.9071188   5.8174653  22.0643597  13.9766665
  41.4346046  67.4338531  72.3621750  42.3851547  67.3252792  72.3920898
  41.2779350  67.9572830  71.5762329  80.2248535   8.3697100   4.0220051
  79.3507004   8.4447947   4.4046912  80.1253738   7.7240758   3.3223674
  87.0002975  41.8898811  76.6419907  86.1340179  42.2717972  76.5008011
  87.0304031  41.7048988  77.5806656  50.5175018  41.1068649   2.7555590
  50.9742165  41.7442627   3.3045290  49.9711685  40.6124344   3.3665345
  25.0263042  32.3835144  19.3859844  25.8620415  31.9433422  19.2309856
  25.2516823  33.3120232  19.4434872  66.3840027  68.3862000  59.2675438
  66.5304337  67.6137085  59.8134880  66.6081161  69.1251831  59.8331451
  70.3316574  51.5512123  26.9324150  69.4628143  51.2143440  27.1512146
  70.3799591  51.4876556  25.9785480   7.9564114  59.1274147  30.2787838
   7.0822215  58.8325615  30.5339012   8.5526505  58.5618477  30.7695637
  12.5930672  51.8192368  10.9935398  12.7637377  52.0706711  11.9012203
  13.1183243  51.0301132  10.8607912  41.5491180   1.7713057  54.6156654
  41.3571777   0.9126832  54.9927063  42.2881927   1.6149671  54.0278244
   1.8452820  49.1898079  32.4822922   2.6039691  48.9795837  33.0267487
   1.3783382  49.8661118  32.9730186  18.8211975  44.7462082  17.4523582
  18.2702732  44.6938095  18.2333622  19.5662060  45.2841034  17.7204304
  73.3525391  45.3400764  25.0522747  73.1293793  44.6815872  25.7101669
  73.2962875  46.1737823  25.5191803  19.6862030  15.6809168  46.8601379
  20.1795654  15.0367918  47.3680038  18.8627491  15.2404547  46.6500206
  34.2043648  23.2470722   8.2269888  33.7299614  24.0325794   8.4992933
  33.9097710  23.0881653   7.3302202  73.3814163  40.1525078  63.2762337
  73.3022308  41.0744705  63.0313911  74.0751114  40.1385422  63.9356499
   7.3013954  60.2667923  33.0977745   7.5224614  59.4339294  32.6810036
   6.3581634  60.3589363  32.9634094  21.0709209   9.8576431  77.6363373
  21.3614826  10.3671160  76.8798676  21.1665421   8.9456272  77.3619003
  78.4484024   5.4234114  63.3164902  78.2966080   6.3582492  63.1776733
  79.4013443   5.3332434  63.3187981  57.4765511  69.7418823  85.1056824
  56.5639877  69.9828796  84.9463501  57.6198311  68.9705582  84.5572586
  25.6351776  48.2832603  72.9024658  24.8207340  48.1766014  73.3939285
  25.3576756  48.6123734  72.0475311  84.7922668  53.3907547  62.9473228
  83.8489914  53.5471573  62.9025536  85.0911636  53.4682579  62.0412941
  53.6333580   4.0646839  15.8376904  54.4632111   4.5416451  15.8469124
  53.3523331   4.0906501  14.9230413   1.4768475  31.3850307  24.3234177
   1.7799629  30.6616840  24.8721638   1.5886140  31.0687180  23.4269314
  37.0962563  24.2276783  88.4918823  36.3190384  24.5524330  88.0372391
  37.1935997  24.8097439  89.2455139   0.6792505  44.0335617  78.9493179
   1.5742869  43.8574371  78.6592789   0.7578247  44.8006630  79.5164261
   3.5814044  21.4231834  88.4593658   2.6424041  21.5543690  88.3278275
   3.8391736  20.8209000  87.7614822  53.5907364  64.5923538  58.8647346
  53.4034996  63.9851990  59.5806503  54.5369186  64.5262222  58.7358780
  46.6207047  34.4751701  79.2652054  45.9690323  34.7776489  79.8977051
  47.3380470  34.1391144  79.8025284  65.9038620  27.1096153  64.2535782
  65.1897888  26.5395260  63.9683952  65.5067520  27.9783764  64.3151321
  43.4434471  52.6864243  53.4594307  43.3386230  53.4841042  52.9408264
  43.8775558  52.9774284  54.2613640  31.9753971  48.1112709  67.6323318
  32.7242012  48.2067413  68.2209015  31.6586323  49.0049171  67.5008545
  18.8427296  61.7946434  80.4112854  19.5278187  61.8563080  79.7456436
  19.1444588  61.1048355  81.0023499   4.9426112  56.0738792   6.7377148
   5.0999980  56.5582924   5.9272785   4.0062914  55.8757973   6.7203708
  66.1118164  27.8468933  69.2964706  65.7561874  27.6165581  70.1547852
  66.7049866  27.1269264  69.0819321  71.5781708  37.9547844  48.0039597
  72.3460770  38.3742599  48.3920174  71.2706299  37.3481483  48.6774902
  42.6275787  44.3286629  76.8337555  41.8836784  44.3919449  77.4327850
  42.8289070  45.2361107  76.6051941  41.7212791  26.9465389  80.1489258
  42.0566978  26.1118450  80.4760513  41.0213585  26.7025776  79.5432663
  45.2805443  18.4755840   1.0752200  45.7073364  18.2146034   0.2591494
  45.9523849  18.3545914   1.7462064  65.4848862  12.7524023   8.2528934
  65.0833054  12.0710659   8.7921047  66.2785263  12.3457966   7.9050026
  55.7653275  17.7830162  71.4613190  56.7026711  17.7066460  71.2830429
  55.3775864  18.0031796  70.6143112  23.3750668  26.3981895   1.5291874
  23.0645771  26.0732307   2.3743086  23.3448238  25.6343575   0.9530987
  76.5978851   6.4387555  73.9483109  76.4631577   7.0094361  74.7048874
  75.7843475   6.5073934  73.4486465  32.0321999  34.6508293  16.9068279
  31.5939484  33.8647041  16.5809803  32.9060326  34.3513222  17.1577148
  41.1715279  67.1756210  44.4818840  41.2679138  67.9632187  45.0172615
  41.3634949  66.4539719  45.0807190  55.7013664  32.1780472  13.0041399
  55.9600792  32.8060493  13.6786137  54.9631157  31.7048798  13.3879728
  31.5029449  16.5532913  82.0435028  30.7863140  17.0577908  82.4284058
  31.1271477  15.6877642  81.8826523   2.5175681  32.9496117   3.7200024
   2.4902184  33.3693428   2.8601706   1.6383847  32.5903778   3.8392394
  64.1727600   0.0658571  80.8524094  64.8787537   0.5460931  81.2850571
  63.4113121   0.6411262  80.9264908   9.5942230  57.4731827  39.9876251
   8.7142773  57.6670876  39.6646271   9.7333889  58.1019859  40.6957741
   6.6136870  28.4364948  69.8425598   7.4040961  28.9543037  69.6897202
   6.9070621  27.7070789  70.3885651  43.1442223  50.5180702  35.3439560
  43.6179390  49.7202911  35.1086349  43.2971573  51.1128311  34.6097260
  62.3116493  42.4991989  52.0068512  61.5607758  42.6326485  51.4283943
  62.4178314  41.5487137  52.0460739  33.5174751  28.9884243   1.6153672
  33.3732643  29.2192764   2.5330498  32.7089920  29.2475739   1.1732966
  73.1790161  21.2757950  61.7377739  73.6910248  21.6098232  61.0012245
  73.7770309  20.6865139  62.1975060  30.9355259  61.9661713  25.6268749
  31.8748341  61.7840157  25.6543369  30.8498058  62.6890411  25.0053120
  53.8352127  70.7607040  65.1330948  53.8877335  71.5967102  65.5962982
  54.2998619  70.9131927  64.3102493  57.9024887  67.9801407  42.2153969
  57.0638580  67.5189056  42.2014122  58.0419807  68.2510757  41.3080025
   7.7596879  46.1172218  81.4855957   7.5474000  45.5495720  82.2264938
   7.2628274  46.9190598  81.6481323  25.0385780  56.0867233  75.1179886
  24.8666859  55.6577339  75.9562378  25.9479256  55.8650665  74.9175262
  15.5182247  68.1909409  77.0493240  15.7795153  67.8814545  76.1820450
  15.3045931  67.3935471  77.5338516   4.7584887  11.7908049   0.7176971
   4.0946288  11.9688082   1.3839078   4.9889870  10.8710966   0.8489893
  60.7420311  16.3732319  65.5375290  60.2949905  15.5272293  65.5117035
  60.3856087  16.8089256  66.3117218  22.3831635  24.5457249  29.8655033
  21.6870518  25.1850834  30.0167656  22.9697876  24.9734306  29.2416687
  63.9991608  44.0422935  37.6933327  64.4391174  43.6130676  38.4271202
  64.5742645  43.8855324  36.9443893  43.0132866  39.7199173  10.3568115
  42.7295036  39.0751534   9.7087536  42.2212486  40.2159119  10.5639334
  10.9178200  60.8081894  26.1828365  10.2774639  61.0284653  25.5063362
  10.4293289  60.8685913  27.0037880  36.1551552  59.8859482  32.1395569
  36.0070419  60.8203011  32.2854195  36.9463387  59.8499146  31.6020031
  23.7178936   6.9204926  32.7419930  24.1931591   7.7466078  32.8308105
  23.8900032   6.4559083  33.5609970  47.2751999  25.3901386  32.5879288
  46.7407532  24.6841316  32.2244034  47.2620926  26.0710983  31.9153538
  39.7336426  68.5657501  10.8400679  40.1140823  69.3522873  10.4490910
  39.9663315  67.8611450  10.2354002  26.5561771   9.0543156  12.6977272
  26.5298576   8.6336145  11.8383389  26.3016758   9.9613676  12.5282602
  74.5172653  69.0158691  30.2703972  74.5757294  68.0995865  30.5410252
  73.7522354  69.0476074  29.6959763  59.0555191  41.4951210  82.7134018
  59.4890137  41.1119843  83.4759750  58.2263756  41.0215797  82.6461868
  24.2169437  55.6738510  51.5226517  24.5126152  55.5787201  50.6172447
  24.1799431  54.7780457  51.8579063  26.2425461  31.3060722  78.0040054
  26.2394581  32.2199936  77.7194519  25.8582249  31.3267937  78.8804169
  51.3127747  65.7406540  72.3402786  51.3418312  65.8366623  73.2922058
  50.5121422  65.2430649  72.1740570   3.5051675  40.2027168   2.1251020
   2.6336942  40.5986328   2.1293266   4.0995755  40.9338379   1.9566615
  57.4174805  36.6438179  88.5581512  58.1009865  36.9841995  87.9809265
  56.8035583  36.2047501  87.9694672  42.6893387  54.0960503  22.2260017
  41.9980774  53.4379883  22.1528778  43.1702385  53.8514214  23.0166473
  13.8887901   3.9438388  79.2796097  13.0514956   4.0879259  78.8386993
  14.5469227   4.1184444  78.6068497  19.5867729  66.3156662   2.1754837
  19.8467712  65.4131012   1.9910560  20.4063396  66.7624588   2.3874297
   4.3442798  48.8391151  16.5047512   4.7122879  49.0131111  17.3710823
   3.5694847  49.3991356  16.4567680  82.5263748  71.5197144  84.9169846
  82.0807190  70.7321167  84.6050415  82.0905838  72.2386551  84.4593430
  80.6854248   9.9984951  58.9944115  80.0909271   9.2535124  58.9060440
  80.4624100  10.5712385  58.2606125  15.7062826  44.8090134  44.1060295
  16.4255142  45.2889671  43.6954422  15.9198217  43.8872757  43.9610062
  33.9640617  46.2409058  18.7044258  33.4992828  45.4077530  18.7823524
  33.8927307  46.4691849  17.7775860  48.1813889  35.8483124  26.6429806
  47.7274284  35.4436150  27.3821545  48.9830894  35.3347778  26.5440235
  27.9502201  61.8257065  55.9434471  27.5375423  62.6609230  55.7235718
  28.5612736  61.6639061  55.2246552   4.3797889  22.7608147  72.9943161
   5.0229216  22.1502705  72.6339722   4.7736058  23.6243820  72.8702469
  50.1709137  20.9235344  47.7211914  50.8059845  21.0032673  47.0094604
  49.9076958  20.0033722  47.7053566  69.0646591   7.7370186  14.8526907
  69.4107132   8.0950594  15.6701803  69.8419571   7.5307612  14.3335495
  34.4126663  64.2100754   5.4592280  34.1568527  63.5117455   4.8566313
  33.7716560  64.9044800   5.3070841  22.7972584   0.3077128  77.4387054
  22.1548042   1.0144367  77.5021515  22.9405975   0.0323268  78.3441544
  53.1122627  64.5500565  30.7940311  53.5245628  63.7783813  30.4057541
  53.8331566  65.0232773  31.2094822  55.6280136  16.8595734   2.6606395
  54.7782364  16.8035583   3.0976470  56.2224998  17.1896458   3.3343360
  22.5445271  18.6699162  82.3850327  23.4215469  18.7369633  82.7626266
  22.4753571  19.4274559  81.8040161  55.2602348  44.6730385  75.9840622
  54.4818344  45.0127678  76.4255447  55.9081383  45.3725090  76.0688705
   3.2029834   8.7278080  83.7058563   3.3824832   8.1579466  82.9580154
   2.3034241   8.5176945  83.9566116  23.5487099  13.8554277   5.5316434
  22.8336945  13.2200260   5.5670004  24.3078804  13.3461561   5.2478623
  65.5435333  51.2865143   1.0274354  65.1588211  51.3876419   1.8980685
  65.6902618  52.1826973   0.7248504  75.8540268  15.9925938  38.8342552
  76.2537460  16.8137035  39.1210213  75.5506744  15.5788364  39.6423492
  72.7828979  31.2700977  39.7703819  72.3173904  32.0833206  39.9658394
  73.6372375  31.5551338  39.4462013  27.0878735  11.4957113  60.8867569
  27.6867580  12.2048492  61.1206169  27.6215935  10.8920822  60.3700294
  15.2313242  64.5250854  88.5233917  15.3972263  65.3709564  88.9395828
  14.6625757  64.0627136  89.1389999   6.9300356  15.4522076  36.0154648
   7.5299826  14.7726603  35.7080421   6.1339340  14.9780922  36.2556076
  36.7911263  40.3575859  50.0768852  35.9860229  40.2676849  50.5867500
  36.5924683  39.9383469  49.2396240  51.1177864   9.2564726  43.3894463
  50.9240150   8.6062927  44.0646896  51.0315552   8.7782907  42.5647430
  86.1815338  60.8058090  12.4335003  86.7708969  60.1813164  12.0105476
  86.6111984  61.6538696  12.3220987  66.2468872   9.0115519   1.7072401
  66.8540726   9.6133299   1.2766277  65.3841934   9.4029951   1.5702569
  20.2896233  60.0156708  81.8200989  20.8078976  60.5147324  82.4514160
  20.2071629  59.1462479  82.2119293  69.1463776  10.0427675  82.2510376
  68.4779816  10.2370672  82.9080963  69.3454056  10.8906279  81.8538589
  71.4836578  68.7984009   2.7928331  70.6408691  68.4287796   2.5295460
  72.1315689  68.1744614   2.4655151  30.8525391  50.9587479  55.5565224
  31.0278778  50.2463570  54.9417152  31.4162712  51.6738892  55.2615433
  78.5019150  46.5441589  67.4840164  78.9405212  46.6014061  68.3328857
  79.2147141  46.4517097  66.8518753  60.5048866   9.2455797  78.1220551
  59.6923370   8.8348408  77.8266068  60.9414291   9.5201817  77.3156738
  23.4833469   0.4511801  12.5298424  24.0661144   0.2596183  11.7950516
  22.8406277  -0.2580286  12.5169973  45.2241249  17.1403408  14.8640757
  45.2866745  17.9957962  14.4392042  46.0625534  17.0342655  15.3135347
  64.5316238  63.8095856  50.0093880  64.4324875  64.2633057  50.8463745
  64.6555252  64.5109940  49.3699303  23.1287785  46.1724243  19.0506001
  23.5664043  45.4381409  18.6198521  23.3728313  46.0893364  19.9724274
  16.5353336  55.4603806  10.2693834  16.0833473  55.9958191   9.6172724
  17.1583214  56.0593338  10.6809359  30.6775398  14.0058699  81.3484039
  30.8649826  13.2292595  81.8756332  30.8044758  13.7179871  80.4443893
  53.4287224  41.4249878  65.3491974  53.0644493  41.5614586  66.2237930
  53.8365555  42.2617950  65.1263504  13.9676218  23.5437222  86.1794662
  13.6469259  23.3692226  87.0643005  13.9862471  24.4985962  86.1154327
  66.6871185  36.8710899   3.8574610  67.4364014  37.3184662   4.2507415
  66.6569061  36.0218811   4.2980952  66.5521011  41.4398384  19.1040401
  67.5039444  41.3591080  19.0431194  66.4060822  41.9635124  19.8918705
  82.3015289  67.1919785  68.6220016  82.2732468  67.4634399  69.5394669
  83.2316589  67.2065811  68.3964691   0.8929807  31.1678219  85.4652176
   1.3440568  31.3234978  86.2949905   1.4313558  30.5142441  85.0188751
  54.1848412  21.3890686  26.4907818  54.7194710  22.0964680  26.8513279
  53.5159645  21.2309418  27.1569881  81.0405197  25.0103168  78.4538651
  80.5639038  24.1802883  78.4428635  80.3742371  25.6715984  78.2667770
  34.2100029  38.6314392  75.5410461  33.6456566  38.1906090  76.1762009
  34.0277824  39.5629616  75.6647186   3.3513703  65.2658234  74.1588821
   2.9542661  65.8743286  73.5357742   3.7094023  65.8270340  74.8466949
   0.9460151  29.0756130  77.0297775   0.2790166  28.7536945  76.4233856
   0.5799746  29.8881435  77.3791199  45.1887741  66.0975189  44.7411041
  44.6278839  66.8730927  44.7520523  45.9782639  66.3793869  44.2790604
  30.5537663  36.6515160   7.5573182  29.9154110  36.5579681   6.8502231
  31.3448257  36.2285271   7.2233520  38.6972084  64.7570114  80.9760056
  38.0140724  65.3647690  80.6928406  38.2608719  64.1824112  81.6050415
  12.4879961  37.6875153  15.9269361  12.1860895  38.3668365  15.3239393
  12.1551456  36.8711586  15.5541010  73.1427155  62.5725632  84.9311752
  73.3164139  63.2689476  85.5645065  72.9090500  63.0340805  84.1258011
   0.4559968  71.4498138  56.1606636   1.3844150  71.2258682  56.0964890
  -0.0018619  70.6405640  55.9332771   5.9489021  16.2868462  88.1617508
   6.6826391  16.8834114  88.3099747   6.3597770  15.4595919  87.9106216
  51.8381729  69.0274887  67.0925140  51.2154083  68.3464890  66.8382874
  52.5214691  68.5599518  67.5728836  41.0881767  46.9280167  41.3256721
  40.9441261  47.3564949  40.4819374  41.8301926  47.3961372  41.7084389
   5.1669011  61.7481461  43.6193275   5.5520310  61.9428787  44.4737206
   4.3643723  62.2692375  43.5939789   4.9996467  43.4912796  34.9060593
   5.9213448  43.2754936  35.0479813   4.8159523  44.1854134  35.5390396
  35.7263947  71.0988617   5.6158924  34.9388542  70.5550995   5.5978045
  35.5535393  71.7920227   4.9787998  13.8802252  15.4310112  82.5677032
  13.5959940  15.2710485  83.4676208  14.7866526  15.7268896  82.6518250
  20.6858616  62.7278175  55.1128273  20.9570618  61.8726692  54.7790604
  19.7412891  62.7558403  54.9604187  78.9913101  34.5535049  69.8091583
  79.4861221  34.0762672  70.4752197  78.5070496  35.2172279  70.3002701
  54.4575272   2.3915689  37.0769768  55.2287521   2.0990767  36.5912819
  54.4773102   1.8822128  37.8871574  69.5871582  39.9279938  32.8784065
  70.3010101  40.3105927  32.3682442  69.6936874  38.9831390  32.7682686
  45.4644852  53.0208168  73.3650742  45.2052574  52.1147461  73.1975327
  46.0352287  53.2463875  72.6305008  15.1135492  41.9776077  81.5473557
  15.5438919  41.1259689  81.4715347  14.7974195  42.1657372  80.6636658
  14.2003431  60.9452858  26.4390354  13.3215857  60.6084099  26.6137657
  14.7558699  60.5132484  27.0878525  10.3036652  49.4700699  76.1688309
  10.6244459  49.5615425  75.2716293   9.6923246  48.7345085  76.1307831
  80.1270905   7.5440674  28.2087784  80.8706818   7.5571818  27.6061745
  79.8940735   8.4655724  28.3217430  77.5406570  47.8712158  84.3745422
  77.7773666  48.2063026  83.5097198  78.1241913  47.1246567  84.5100937
  53.3579903  46.9700966  38.9232368  53.9817696  46.7775879  38.2231865
  53.1696014  47.9035416  38.8261719  51.8487968  20.3307972  62.7132721
  52.1863174  19.9799709  63.5374298  51.4179840  21.1492119  62.9599113
  68.7532883  19.3650684  44.4041672  68.6773300  19.4159260  45.3569908
  69.5766983  18.9006634  44.2539864  29.1041622  55.7452965  79.4650650
  29.2533665  55.2079697  80.2430420  29.9818974  55.9406242  79.1369476
  29.3413486  28.7911339  74.6862030  28.6672306  29.2031345  75.2266159
  29.4989586  29.4182796  73.9804535  53.6329079  16.2324543  47.2814980
  54.5230370  16.5640755  47.3995399  53.1628380  16.5249233  48.0623474
  36.8694153  14.3027563   7.3009648  36.9794579  14.3533411   6.3514576
  36.3017502  15.0428381   7.5160551  79.3486404  50.3192482  27.6489182
  78.4536972  50.6579666  27.6730900  79.4371490  49.9386253  26.7751198
  26.0644264  57.5253334  16.9909039  26.3959522  56.7313881  16.5714130
  26.6664009  57.6809349  17.7186718  63.2691841  58.9686775  82.2556305
  63.8858604  58.3539696  81.8580475  63.4665909  58.9342880  83.1916199
  43.3036041  67.0661240  78.7998810  43.2709579  66.3280563  79.4085083
  44.0312767  66.8605804  78.2129593  17.8205853  13.2806816  66.2809677
  17.7635117  13.0323191  65.3583145  18.5738945  12.7930622  66.6141052
  58.2694550  66.5787048  26.5364151  58.2632484  66.5622482  27.4934521
  59.0622787  67.0650787  26.3103657  63.7140770  25.2735329  24.2070007
  64.1493835  25.2249603  25.0581074  62.7809563  25.3110943  24.4170246
  75.9625626  50.5562592  71.3960648  76.4636536  51.3420639  71.1777802
  75.8288345  50.1165428  70.5564194  64.3607483  11.4564505  27.0570641
  64.8616180  12.2718325  27.0796814  64.2111740  11.2929878  26.1258621
  36.6196861  51.1628914  71.8345871  36.9985542  51.9430084  71.4294891
  35.7552109  51.0798340  71.4320755  83.4737854  28.0100670  86.0660248
  82.5559692  28.2516766  85.9416504  83.9374237  28.4583054  85.3586655
  83.3854446  11.7519989  24.8200130  84.3006210  11.4845047  24.7355556
  83.4244919  12.6079226  25.2467461   9.4844894  23.6240959   4.0816422
   9.7152338  23.8565254   4.9810672   9.1539230  22.7278957   4.1431470
   0.0110491  44.4575996   2.3415585   0.0594152  43.6495857   1.8306729
   0.1489425  45.1549149   1.7004910  81.6129684  12.2679310   2.4773858
  81.5387802  13.1670074   2.7973700  81.5517960  11.7275429   3.2650850
  21.2975330  31.5124493   4.6914806  21.6045475  30.6714020   4.3529344
  22.0960407  31.9720001   4.9511542   6.5825520  58.8049316  74.5285339
   6.7856092  59.3927345  73.8008728   6.2529769  58.0099602  74.1094513
  13.7327013  24.0721531   0.4870450  13.1597738  24.8117657   0.6894335
  14.1338644  23.8434963   1.3255051  33.9211006  60.3086739   3.4251690
  33.6121674  60.0556183   4.2950859  34.5278740  59.6121063   3.1744809
  12.8589268  52.7424049  70.9308472  13.2259264  52.8539848  71.8078232
  12.6251822  51.8153038  70.8852005  84.7101517  37.2011986  84.1966019
  84.0010147  37.8393478  84.2748108  85.0421219  37.1014824  85.0888367
  32.4373817   5.4039850  62.6278496  33.3203850   5.1077147  62.4070282
  32.0783234   4.7025981  63.1713257  15.3129263  55.2837448  72.9767151
  14.9021120  55.6952515  73.7370605  16.2412109  55.5025063  73.0583496
  64.2626419  58.0175667  69.3651428  64.4698410  58.5031166  70.1636124
  63.4050064  58.3490143  69.0990143  13.1197195  70.4167557  25.8352966
  12.5412951  69.6586227  25.9182701  13.7494516  70.3168335  26.5492191
  22.2298546  23.4681034   8.2590246  21.5224342  22.8979950   8.5602932
  21.9195824  24.3540897   8.4460840  76.1274719  36.5074348  52.8587151
  75.6656647  35.7354622  53.1858559  76.2784958  36.3213577  51.9320030
  68.0430984   2.7740552  32.3256836  68.5536423   2.4591537  31.5797501
  68.6160355   3.4075544  32.7577248   9.1744909  20.4675083  44.7373581
   9.3053551  20.5482445  43.7925911   8.3659811  20.9501953  44.9092789
  53.1513252  35.2120972  57.1903305  53.6524811  34.4332809  57.4322395
  52.3528290  35.1556702  57.7151680  48.1174507  11.7293339  73.6246414
  47.4820213  11.1122513  73.9875031  48.1141548  11.5512190  72.6841583
  59.6197243  63.6485291   0.4800498  60.0402603  64.3335648   0.9997699
  60.3190765  63.0197334   0.3018427  71.9467010  63.2291679  62.1858673
  71.8357391  62.3422356  61.8434105  72.1613388  63.1038895  63.1102409
  67.2590408  64.0878754   4.4889660  66.4756012  63.5686417   4.3077154
  67.2753067  64.1720810   5.4423161  38.7895088  67.9409637  22.5411339
  38.0524101  67.9641953  21.9309063  38.8043213  67.0402145  22.8646469
   1.6389414  12.3522511  84.8050613   2.1975486  12.0873051  84.0743103
   2.1747041  12.2000418  85.5835342  58.2169075  37.1913605  66.3847427
  57.9478836  36.3928680  66.8389130  57.3998718  37.6650200  66.2287521
  65.3837433  51.3258438  65.2052994  64.9621048  52.1786385  65.0994949
  64.8420334  50.7256126  64.6929550  10.2942095  17.4096298  76.6561432
  10.4432049  18.0102787  75.9259033   9.3414984  17.3457050  76.7231293
  82.9916306   8.1729641   3.7101500  82.0388412   8.2647343   3.7105834
  83.2116852   7.9551339   4.6158872  49.7853889   0.9510713  45.8880463
  50.6119499   1.2181402  45.4859238  49.1538734   0.9642358  45.1688461
  10.7924051  49.3020248   9.0720301  10.6679068  49.7938194   8.2603216
  10.6735497  48.3867874   8.8181810  17.9150677  51.8296852  37.4704208
  18.2726688  51.1494217  36.8998108  18.6563950  52.4092331  37.6458740
  70.2128372  40.1988029  24.6051464  70.3038712  40.5676765  25.4837112
  69.7904205  40.8914375  24.0971565  66.5450745  20.8596115  23.6380577
  67.3396759  20.9902229  24.1555290  66.7001724  20.0432796  23.1628971
  76.8528824  13.3487453  84.0834503  76.4757233  13.2766285  83.2066498
  76.5461578  12.5660696  84.5412369  47.8111687  43.3256912  30.6734791
  47.3600998  42.8551788  31.3744659  48.5652313  43.7297440  31.1028538
  40.2890511   2.0283861  88.5071564  40.0675468   2.3548632  87.6350479
  39.8968391   1.1559690  88.5430603  35.2340584  47.4852142  36.0905762
  34.4038429  47.9292030  36.2633476  35.6928673  48.0637932  35.4814949
   1.3634068  44.7547836  24.0543365   1.5780507  45.1080551  23.1909962
   0.4963012  45.1100349  24.2496738  79.4688034  34.9632454  59.3121223
  78.8011703  35.6182556  59.5157394  80.2585144  35.2824020  59.7488480
  43.1082802  28.5914478  83.8018646  43.1384010  28.7062626  82.8520584
  43.0338860  29.4806232  84.1483688  74.8947067  68.0317459  20.4460850
  74.1378403  68.1978455  19.8841324  74.5168152  67.7956924  21.2932587
  59.2390862  39.6289291  78.6177902  59.7402840  39.9468803  79.3687515
  59.6807899  38.8197098  78.3603210  48.9639511  42.9654121  71.5719833
  49.5929222  43.6192970  71.2669296  48.1623230  43.1592178  71.0861206
  12.9561157  18.6196423   8.1985083  13.5284843  18.0619087   7.6716700
  13.5365696  19.0081272   8.8530197  75.8597183  38.5203819   8.6985807
  75.4665985  38.0930977   9.4595785  76.7270889  38.7926178   8.9982405
  73.4016953  22.5747280  75.5564651  73.5072784  23.4451218  75.9405212
  74.1152954  22.0590363  75.9320526   2.0301664  29.2812939  57.8594246
   2.5762215  29.7364025  57.2183838   1.1323911  29.4782925  57.5921745
  60.4281387  64.6993790  59.0833244  60.7756386  64.0865860  58.4352760
  60.8649063  65.5282974  58.8874779  22.8826294  59.6236496  88.4983597
  22.1229305  59.3526802  89.0137863  22.6456203  60.4862061  88.1576920
  20.9253273  13.2357435   1.6491269  20.9626637  12.5724325   0.9600286
  21.8189583  13.5742702   1.7043829  10.4959784  10.4099112  71.9234161
  11.1916094  11.0485144  72.0799866   9.7555685  10.9328356  71.6158829
  71.6093063  43.4823418  49.7693596  71.1780853  42.7672691  49.3014374
  72.1870651  43.8805580  49.1183205  40.0600586  30.9055061  61.4050598
  40.6458130  31.6604557  61.4614601  40.2187691  30.5438271  60.5331497
  73.6805038   4.1443062  70.2049408  74.4736786   3.8248808  69.7747345
  72.9919052   3.5478621  69.9111404  85.5931854  51.8209267  88.4761200
  84.8109741  51.3299866  88.7278137  86.1358871  51.1845512  88.0105667
  75.9975586  17.5523167  29.8632889  75.2268600  17.4717007  29.3013611
  75.6564865  17.8931789  30.6901608  78.4464645  70.0816422  13.2759247
  78.9093018  69.6638336  12.5496712  77.5198669  69.9887390  13.0545273
  11.2867374  38.4975510   9.4559393  11.7623920  38.6809654  10.2660894
  10.8969269  37.6348000   9.5971441  81.3404007  37.4519730  18.2589130
  81.5023346  38.2131462  18.8162441  82.1063385  37.4068718  17.6866035
  37.8140488   2.4205081  14.6854095  37.9018669   2.9152114  15.5001421
  38.5002480   1.7549399  14.7341814  18.6545944  65.1457672  72.8413544
  17.7422028  65.0621414  73.1184464  19.0630798  65.6820755  73.5208664
  80.6582413  10.6025639  33.0708656  81.0303802  11.1835175  32.4073563
  80.0390778  11.1526270  33.5507507  35.3397789  12.3849173  76.7638397
  35.4156418  12.4452486  75.8115616  35.9773483  13.0171967  77.0954361
  36.5306587  65.5776596  74.6981354  35.9973030  66.0211716  74.0385437
  37.3340149  66.0960083  74.7446518  12.4347668  40.8624191  19.0705032
  12.4611082  40.9895821  20.0188541  13.1706514  40.2785645  18.8866024
   7.8401194  62.4984283  26.7321815   7.0919876  61.9290352  26.5523949
   8.1434727  62.2287674  27.5990677   8.6986446  71.3495255  81.9952087
   8.9411488  71.7496109  81.1601257   9.5133600  70.9700165  82.3245163
  68.8059006  45.8777504  80.3031540  68.4920654  46.1909523  81.1514740
  69.7407455  46.0834236  80.3028183  48.8889503  17.3737469  37.9806213
  48.5864410  17.8195915  38.7717857  49.0888214  16.4832077  38.2691116
  65.1323853  28.8375111  39.9297180  65.8779755  29.2057381  39.4556580
  64.4285278  29.4731159  39.8000221   7.8153391   0.1751629   3.0014029
   8.0679169   1.0412142   2.6814165   8.6283560  -0.2028117   3.3366208
  28.6610909  11.6444321  72.9975052  28.0734787  11.4144793  72.2777328
  28.2188320  11.3183146  73.7812653   8.7822657   5.8348837   6.5107584
   9.2336264   5.0231357   6.2793069   9.4509134   6.3656731   6.9436598
  21.3810196  45.4743271  86.0151367  20.4996643  45.1438751  86.1890640
  21.3519840  46.3905563  86.2906570   4.3503556  21.0331593  33.2979774
   4.2376862  20.6647091  32.4217453   5.0292497  20.4913292  33.7001610
  79.5693207  41.6328926  19.8195667  79.0131683  41.3873711  19.0802135
  79.1993790  41.1599083  20.5649929  57.6496925  66.0077438  81.9009018
  57.9519844  65.2174225  81.4534073  58.4295387  66.5588684  81.9666901
  18.9182663  45.4796143  22.5159340  19.5481224  45.2152634  21.8453865
  19.0318508  46.4270821  22.5910053  64.2652893  31.4324417  35.0436935
  64.4383621  30.6202564  34.5676308  64.1740952  32.0960655  34.3599396
   2.7365880   4.6817961  29.4793453   3.6529441   4.8505607  29.6985302
   2.7118628   4.7001162  28.5226402  63.5802574  62.8315430  29.2720509
  63.8535614  62.9673157  28.3648014  63.7703247  63.6630516  29.7064457
  78.4058990  13.2790565  88.3430786  78.9590683  12.5761089  88.6838226
  78.9425049  13.7027216  87.6731567  27.1887226  60.9053116  11.9445820
  28.0846500  60.5684471  11.9526463  26.6482239  60.1542397  12.1894913
  75.0861359  20.0735340  51.7575836  74.8460693  19.9958572  52.6809311
  74.3215637  19.7472115  51.2830582  34.0147858  26.0785465  70.7072754
  33.5873451  26.0669632  71.5636597  34.2516365  26.9957943  70.5701904
  40.0995789  51.2840271  79.9291687  40.5596085  51.7582283  80.6217957
  40.3351326  51.7466621  79.1249771  64.3529434  71.3115463  77.7646408
  64.4581375  71.5066910  78.6958084  63.5480576  71.7651138  77.5143051
  53.4077072  10.4445009  17.4600277  53.9809647  10.2206421  16.7268867
  53.4221725   9.6689415  18.0208588  33.9400177  71.2184906  44.9728508
  34.0427322  71.9784698  44.4000359  34.1755524  70.4708862  44.4234467
  80.0750122  20.5714703  27.9451866  79.1629257  20.3039074  28.0580444
  80.0337296  21.3158112  27.3447838  69.5930252  14.1946011  78.5337524
  69.1038284  13.6171970  79.1198578  70.0156631  14.8253069  79.1166916
  28.4734955  44.2388763  30.0317707  27.7926769  44.8132095  30.3822784
  28.2425137  44.1287994  29.1094017  33.0517082  63.2354507  51.0791359
  32.4979744  63.8805351  50.6392708  33.6084290  62.8841209  50.3842583
   5.2451453  14.0921755  66.3777161   4.3808627  14.4082050  66.1143265
   5.6425567  13.7770271  65.5659409  69.5064163  38.2273445  69.1638336
  70.4385681  38.1428337  69.3642883  69.4738541  38.8417435  68.4305573
  28.5234394  35.3119354  19.5438442  28.7277775  34.7557106  20.2955704
  29.3749371  35.5102882  19.1541748  15.5484552  38.0024719  82.5832520
  15.6645794  37.5664291  81.7390900  14.5999546  38.0860786  82.6811752
  72.4907150  51.8935127  23.9383011  72.9442444  52.2505951  23.1747322
  71.8875732  52.5873718  24.2047882  77.9993591   5.4852672  45.4720345
  78.5340576   6.0352430  44.8994484  78.6332245   5.0238457  46.0211563
  56.0097389   2.6713967  34.6804008  56.3412285   3.4526968  35.1230240
  55.3602295   3.0043683  34.0611267  29.1881104  31.4619026   6.1167769
  28.9085846  31.7500916   5.2478437  29.4965305  32.2599106   6.5460701
  39.0465584  53.6251450  15.2399054  38.6527328  52.7554741  15.3092203
  38.3375969  54.1845207  14.9225588  50.0438766  49.7228699  33.0894508
  50.5287704  49.0194740  32.6577759  49.7070503  50.2577438  32.3706360
  13.8199358  54.0992813  44.9556236  13.6431208  54.7900772  45.5941925
  12.9581642  53.7369690  44.7499275  32.0002022  25.2060528  14.8961411
  31.5324478  25.9049911  14.4390583  32.6037674  25.6643562  15.4808598
  45.5660286  10.1417875   6.8358035  45.2131729  10.3699684   7.6958361
  45.0040436   9.4310207   6.5272360  47.3497543  17.9323273  85.6623688
  47.9881058  17.2377834  85.8246841  47.8585663  18.6359119  85.2594910
  65.7563324  12.0346622  42.2531853  66.6626053  11.9514093  42.5497971
  65.2315292  11.8540478  43.0330467  50.1360130  36.6727982  35.3917694
  50.7934723  36.6937218  34.6963959  49.3120842  36.8750992  34.9485435
  35.6083183  24.6244259  86.2966080  36.4049759  24.3436375  85.8463516
  35.4757957  25.5274582  86.0081635  17.1358700  56.1275368  26.3151951
  16.3257923  55.9073524  26.7751141  17.8181877  55.6554871  26.7925224
   4.0302925  56.4972229  56.6435280   4.8995328  56.8111496  56.8927307
   3.7433579  57.1035042  55.9606514  73.4149704  50.3355865  25.8202724
  73.0007095  50.8362465  25.1174488  73.4390182  50.9395180  26.5625114
  32.9765701   6.1339693  66.4661636  32.3009300   5.9279413  67.1121445
  32.7902298   5.5507765  65.7303696  39.0083923  31.6055012  86.1154785
  39.1601295  32.3774185  85.5701752  38.1022415  31.6951046  86.4105988
  40.9325829  47.1863937  54.8890572  40.0694504  47.3630371  55.2632637
  41.3006210  46.5022392  55.4482574   5.9829779  67.1003418  38.4000816
   5.5866671  67.2385483  39.2603531   5.2565503  67.1941757  37.7838593
  30.3174591  51.4416428  20.0700684  29.5579758  51.8315659  20.5029392
  31.0169220  52.0841904  20.1888714   4.5768409  14.1017866  72.6802063
   5.3971682  14.5509415  72.4763641   3.9872522  14.7987795  72.9679871
  62.2613945  26.7343655  47.4312592  63.2150650  26.6977024  47.3577652
  62.0118217  25.8654060  47.7456665  57.7128448  15.7173424  39.5824966
  56.8765831  15.2522383  39.6064949  57.9866295  15.6707373  38.6664696
   8.1771736   1.5142250  67.0319977   8.7494478   2.1195979  66.5605545
   7.7858734   0.9720216  66.3470688  71.4728088  53.4479370  86.8890076
  71.4840851  54.2825012  87.3576355  71.6705704  52.7940598  87.5595016
  80.9383774  46.5814171  34.2150536  81.7244263  46.7517815  34.7340317
  80.2214813  46.6137886  34.8484879  60.7785645  21.6002121  84.3681030
  61.2086525  21.1944180  83.6153793  59.9633789  21.1092968  84.4715576
  10.8311024  49.9338570  31.7602005  10.7961988  49.0059586  31.5277805
   9.9530706  50.1324692  32.0855408  33.4587669  23.1192379  87.2853012
  32.7083626  23.4398155  86.7849503  34.2215462  23.4569607  86.8158951
  34.7578697   5.6405597  80.8315811  33.9872513   6.1479955  81.0863113
  35.2810059   6.2465992  80.3069153   9.8916950  70.3645020  42.9425201
  10.7882318  70.5821457  42.6873932   9.7847071  70.7638474  43.8058357
  21.1866932   6.7727628  83.9555359  21.4037590   7.3323870  84.7011414
  20.7102737   7.3468881  83.3558350  62.6353111  18.7035007  13.0123596
  63.1884575  19.2616405  13.5589285  63.2018433  18.4421520  12.2864342
  12.0612831   2.6630130  64.0490036  12.8380928   2.1274583  63.8878174
  12.4082394   3.5104332  64.3278122  69.9376831  51.1374779  71.2057877
  70.7541351  51.2034073  70.7105255  69.8063507  52.0133820  71.5688019
  73.6892776  33.1537399  26.5996189  73.9080200  34.0032883  26.2166748
  72.9684982  32.8267937  26.0612659  86.4972763  56.4513206  80.3274765
  85.6246033  56.0580635  80.3222198  86.9724960  55.9706841  81.0052567
  14.0996971   2.2994175  39.0925941  14.4111834   2.2305062  38.1901207
  14.5612240   3.0590000  39.4479256  78.3352203  42.0428505   8.1500702
  78.1281738  41.1299706   8.3501110  78.2066345  42.1159172   7.2043638
  64.7027893  22.6616516  32.8183899  63.8495636  22.5009384  33.2213860
  65.3334808  22.4983063  33.5196571  32.9051170  46.4267426  33.0784721
  33.7929726  46.5230141  32.7339783  32.3952637  47.0917091  32.6157608
  62.7388420  10.1226559  12.0963888  62.8049049  11.0666399  12.2404804
  63.5300674   9.7631769  12.4975986  19.2505665  48.2045593  56.6627350
  18.8228722  48.9529457  56.2465248  19.6551628  48.5676117  57.4505997
  63.1009064  32.0763931  16.0540085  63.1162643  31.1196918  16.0807724
  62.5824776  32.2859764  15.2771301  30.9603176  70.1184006   1.7465774
  31.5856533  70.7422943   2.1152873  30.9177303  70.3429489   0.8170627
  50.2239075  18.5209866  82.4121780  50.8969688  18.8466949  83.0097885
  50.5455933  18.7514915  81.5406189  25.4959431  61.1043663  41.5617523
  25.8532639  60.7830620  42.3895912  25.3095894  60.3122025  41.0577888
  40.2654457  52.4956245  54.6639175  40.5323563  51.9781113  55.4236336
  39.3813553  52.1883469  54.4634361  42.2956352  52.1996231  15.5072479
  42.1566505  52.9552574  16.0781517  41.5052528  51.6703148  15.6138372
  71.7183533   6.1626039  73.2927856  71.2179413   5.3752861  73.5071335
  71.0558701   6.8443604  73.1807251  66.5036316  66.7863693  37.7277069
  66.7928619  67.2116089  38.5350151  66.2329178  65.9102402  38.0022011
   5.3160644   2.5166538  84.1854019   5.3198814   3.4713628  84.2543106
   6.2359829   2.2815993  84.0640335  67.7228241  15.8134995  67.1601257
  67.3259735  15.6664248  66.3015671  68.5895844  15.4125643  67.0951920
  56.2881126  28.8470211  87.3794708  55.8039055  28.6948032  86.5679245
  56.6409492  29.7318401  87.2854843  51.3476639  46.4977150  36.6209259
  50.5196304  46.1707306  36.9725952  51.9925232  45.8366661  36.8727303
  65.3508835  24.4264660  29.9145393  65.1245575  25.0512638  30.6034794
  66.2872772  24.2675838  30.0334682  71.0339966   9.4166594  51.6113319
  70.5496902   8.7644043  51.1051216  71.9484711   9.1423140  51.5428200
  66.5274124  46.5910187  46.9065056  65.9566498  47.0816460  46.3151093
  66.1914597  45.6952553  46.8752632  37.6849937  20.6150055  87.9482040
  38.2729874  21.3287106  87.7009811  37.5227661  20.7508011  88.8817291
  76.8515320  11.1252575  32.1805992  76.6680908  12.0580759  32.2920914
  76.9443665  10.7911053  33.0727615  60.4588966   7.8980169   4.2332797
  60.9037895   8.0818510   5.0606279  60.6785545   8.6421576   3.6727123
   4.2644458  57.7400322  38.5041351   3.9138908  57.5139046  37.6426201
   5.0343866  57.1801491  38.6039124  44.9405556  29.8282185  14.0454063
  45.7086334  29.6462250  13.5039597  45.2120514  29.5936337  14.9328136
  73.3834763  26.0270729  52.7401657  72.4768295  26.1953030  52.9969177
  73.6718063  25.3260708  53.3247147  74.4854889  44.2958450  14.1355886
  74.8227997  44.2341957  13.2419167  73.5358200  44.3521118  14.0297918
  49.6686287  65.1142883  25.1073914  50.4275017  65.6976471  25.1132088
  48.9563370  65.6513519  24.7603531  67.2686539  66.8175278  45.3667793
  67.3102188  65.8711700  45.2292404  68.1841278  67.0938034  45.4093208
  48.3735008  31.4720306  74.8396225  47.9280167  30.9799271  75.5292740
  47.6829414  31.9983215  74.4366608   4.1682177  23.0701466  81.8204651
   4.8569307  22.5745411  81.3774261   4.4258766  23.9858608  81.7141113
  61.8887482  14.0811234  36.7958374  61.3130684  14.6555061  36.2909546
  61.9103508  13.2647486  36.2965393  19.1533928  71.2580109  15.6182070
  18.6787148  70.5928268  16.1166573  19.6259289  71.7619476  16.2807655
  64.0763931  62.8957634  56.3204575  63.2980194  63.1296730  56.8260803
  63.7322235  62.4865952  55.5265045  24.5894890  17.5186920  67.0071945
  24.7249775  17.7329044  67.9302216  24.0688686  16.7155876  67.0216141
  20.8951511   6.6239390  71.4814224  20.5058384   6.0807638  72.1667175
  21.8363361   6.5862122  71.6516571  22.6556568  37.3160667  65.0795670
  23.1142197  37.6281967  65.8596497  21.7274513  37.4086876  65.2942505
  48.6744347  38.7116547  53.0984268  48.5894203  38.5489922  52.1589851
  49.5754662  38.4624825  53.3040695  59.1715164  39.0761375  36.7788925
  59.4672050  38.1659470  36.7975922  58.5076675  39.1264839  37.4666443
  57.6083450  29.3754139  82.4895859  58.0604095  30.0523262  82.9932327
  58.2542000  28.6752014  82.3957748  46.0992851  52.6448708   8.1373043
  45.5865517  51.8950081   7.8355675  46.7447014  52.7878494   7.4450450
  44.0035362  30.3297882   4.4636912  43.4375229  29.6102676   4.1841335
  44.0556908  30.2377644   5.4150290  62.0998344  21.9033070  41.1044884
  62.8689117  21.4320374  41.4248848  61.3796272  21.5841103  41.6482239
  61.6641350  70.3304291  68.7371063  62.3352814  70.9495773  68.4499741
  60.8973465  70.8745499  68.9165497   8.7093945  54.0752716  70.7138977
   8.6811132  54.1290092  69.7586288   8.7450914  54.9867172  71.0041046
  12.6865091  53.2692375  37.1893044  12.4716616  52.3387871  37.1234894
  12.2990570  53.5463753  38.0195503  56.1310158  57.5614738  22.6050587
  56.4503860  56.7260513  22.9460964  55.1847572  57.5318184  22.7462997
  60.2468414  66.5395813  43.1484032  60.9622421  67.0837631  43.4775047
  59.5202446  67.1498032  43.0222359  22.8706493   0.8238789  53.3400078
  22.8525639   0.0292440  52.8066597  22.6897335   1.5316478  52.7214890
  39.2959976  15.0449266   7.9434094  39.0660439  15.2138777   8.8570890
  38.5101852  14.6474924   7.5682087  65.4839172  26.6087418  80.0072861
  64.9418945  27.2004089  80.5291672  66.3591537  26.6885509  80.3865280
  40.7849464  20.3405781  79.1334915  40.1532936  20.1969967  79.8382111
  40.9959679  19.4617558  78.8182602  19.6711864  38.6978531  76.0429535
  19.7696228  39.5530815  76.4614258  20.5664539  38.3720284  75.9503937
  74.6799698  62.5062943  25.2643013  74.3483276  61.7154236  25.6894665
  74.3413773  63.2251053  25.7980576  58.2212296  45.0967903  66.2975769
  58.2454910  46.0460320  66.1768417  58.8679543  44.7598763  65.6775208
  61.5450974  31.8344154  35.5866394  62.4854774  31.9445324  35.4459496
  61.1934967  31.6439342  34.7169724  38.4409904  61.1499825  71.1357727
  37.9470978  60.3384666  71.2530212  38.6980858  61.1428146  70.2137756
  61.4280243  62.9047012  57.5029488  60.7422867  63.1240425  56.8721695
  61.5725250  61.9661140  57.3829422  64.0194092  46.8317642  75.4163437
  63.9477730  46.2189102  76.1481323  63.9139366  47.6951942  75.8158340
  30.7304974  60.5251503  59.3388519  30.4168701  59.6574783  59.0838623
  29.9869080  60.9258194  59.7891541  72.6942291  66.2842789  70.3320465
  73.2648849  66.7014694  70.9774399  71.8442230  66.2231293  70.7679138
  70.6886215  44.2123795  21.0910702  71.5791092  44.3051758  20.7524738
  70.5660782  44.9759445  21.6551476  44.5526962  64.6721268  58.1915703
  43.8280067  65.1542664  58.5898132  44.6855888  65.0965042  57.3439407
   8.9103374  58.0819016  56.9203529   9.3654852  57.4214592  56.3979645
   9.5865803  58.7238121  57.1368713  70.4484787  57.9553947  13.9865694
  69.7203979  57.4458427  14.3422222  71.0310516  58.0940971  14.7332954
  78.6321487   4.3676829  51.9217529  78.9565430   3.8319664  52.6456337
  78.0597687   5.0119457  52.3383408  76.2053070   6.5392704  47.3877449
  76.5863495   6.2555757  46.5567513  76.3340530   5.7956452  47.9765358
  33.9646416  17.3427334  70.6530075  33.5123215  17.7001724  71.4171219
  34.3200111  16.5066261  70.9544601  17.8661232   2.3124356  33.8211098
  18.7847347   2.3060379  34.0900803  17.5764713   3.2109284  33.9793625
  49.8735733   4.7699227  70.5023193  50.3104286   4.9391561  69.6676025
  50.0675735   3.8520684  70.6924210  79.7061996  26.4479733  72.5005417
  78.8055420  26.7375565  72.3549805  79.6843567  26.0180626  73.3554840
  11.4598475  56.2038841  67.2531128  11.7594995  56.6478386  68.0464172
  11.5032902  55.2723618  67.4690094  54.2701721  14.7408915  58.0399399
  53.9750595  13.9968653  57.5149956  55.1897430  14.5522337  58.2271004
  73.8533936  29.4027290  24.0174866  73.1351089  28.8621273  24.3461800
  73.8045502  29.3130417  23.0657501  54.3169060  40.9578476  21.0390301
  54.2705917  40.9830818  21.9947758  54.6952858  41.8025970  20.7951851
  44.6464539   7.2435632  19.7857361  43.7592583   7.2776365  20.1434383
  44.9662476   8.1433058  19.8522778  22.1505032  19.1868248  10.6693363
  22.5860062  19.6209812   9.9357996  21.8637199  19.9032574  11.2356491
  32.3467979  17.5384636   7.3350272  31.6924820  16.8398552   7.3278837
  31.9440346  18.2386036   7.8486586  69.3389206   4.6043320  33.7377892
  68.9883423   4.7398410  34.6181107  69.3599548   5.4796495  33.3509979
  80.7740479  66.8927155  13.8775015  80.8889694  67.8158417  14.1030550
  81.6362000  66.5021515  14.0202465  63.2613449  61.3724518  63.7680435
  63.5664787  60.5814819  63.3236504  62.4475479  61.1075134  64.1967316
  66.7107773   2.5368578  34.5714645  67.1662140   2.4388723  33.7352791
  66.5921326   3.4815180  34.6703186  19.7822781  52.0364304  53.4876022
  20.4296589  51.8419495  52.8098793  20.1853237  51.7283211  54.2993011
  13.6101294  10.3924885  23.3898087  14.2144985   9.6628675  23.2533417
  14.0962687  11.0064449  23.9402237  66.9535980   5.8233304  38.8217392
  66.7034454   6.6454983  38.4002037  66.1466293   5.3088908  38.8411369
   1.6626977  10.2587576  65.4610977   1.9539359   9.3962879  65.7570038
   2.4673302  10.7067528  65.2001419   2.1651666  24.2776566  88.4879379
   1.5409509  25.0032654  88.4967194   1.6399300  23.5072384  88.7042999
  16.1747742  27.4153080   0.9672273  16.5919247  28.2252502   0.6736139
  15.5211191  27.7003765   1.6057446  26.0647907  38.3046227  56.5347519
  26.6031227  37.8301353  57.1682281  25.8516426  37.6535110  55.8662796
  22.0019302   3.9117949  60.7290955  22.0144539   4.8644309  60.8216133
  21.2560959   3.7366712  60.1552505  71.8442993  17.6251984  47.5555153
  72.7666550  17.8423004  47.6910324  71.4833755  18.3863392  47.1009521
  66.7881317  63.0804749  14.4400702  66.3124695  63.6540947  15.0408497
  66.9457932  63.6217384  13.6664991  67.7084198  19.4314289  65.4676208
  68.4901810  18.8953876  65.6008224  67.0509796  19.0438824  66.0453873
  49.6021729   0.9562995  41.1717529  50.3846970   0.4051243  41.1622009
  49.3003578   0.9594942  40.2633858  75.7786789  39.4788857  64.5074844
  76.3290863  40.1900024  64.8355026  75.8280716  38.8053551  65.1858215
  83.4280930  39.1470184  52.0833054  83.9845123  39.1006050  52.8607864
  82.7674789  38.4680901  52.2206802  60.5808067   9.4423475  10.3171806
  60.5300293   8.4922628  10.2123356  61.1588097   9.5697460  11.0694523
   9.1012564  27.8900490  15.0762062   9.0874739  27.7295647  16.0197563
   8.1825905  28.0227528  14.8423815  73.0344238  39.8719368  32.9733315
  72.5441208  40.5722504  32.5427475  73.9079895  40.2391930  33.1083717
  39.1998482  27.6973991  84.9551086  38.6534843  27.9764233  84.2203522
  39.7590752  28.4524117  85.1380081  46.8223190  34.0324287  86.3340530
  47.5691910  33.4337654  86.3298416  46.8757133  34.4879036  85.4938583
  43.4373207  20.6432915  77.4076004  42.5172043  20.3865891  77.3466187
  43.7917023  20.0991077  78.1108170  61.9673424   1.7094271  80.6390533
  61.5573730   1.6301650  81.5003738  61.6358223   2.5372984  80.2912674
  61.2030945  28.7988853   3.6392581  61.3914490  28.0282421   4.1748528
  60.3365059  28.6281662   3.2703273  62.3607864   0.6363867  87.2362900
  61.4112740   0.7167209  87.1457062  62.6337776   1.4614717  87.6374664
  72.7358170  32.2536011  69.2359924  72.1303329  31.7532406  68.6889496
  73.6020203  31.9215527  69.0000534  47.0921097  49.7301979  66.7640686
  47.5149536  50.3138084  66.1341248  46.5676689  49.1368904  66.2263184
  42.9509659  68.2017517  57.6131287  43.6214714  68.5358276  57.0172691
  42.2708473  67.8528900  57.0369644  78.2162704  62.0579910   5.7293859
  77.9849777  61.1533508   5.5187755  77.3814926  62.4753761   5.9418969
  19.6578903  24.8381176  86.4389725  19.7242889  25.6673508  86.9124603
  19.8629189  24.1711063  87.0941772  66.1610260  43.1648254  62.8818512
  65.6559830  42.7386856  63.5743599  65.5535889  43.7961884  62.4963112
  57.5677643   8.7718544  39.8977318  58.3550224   9.2899113  39.7301788
  56.8979378   9.4188108  40.1191216  67.0850601  57.7702980  46.2133789
  66.9643784  58.0270653  45.2991905  67.7902985  57.1235466  46.1894112
  10.2624388   9.7269955  18.7386227  10.3453617  10.5835123  19.1578293
  10.4619169   9.0998325  19.4336815  21.0940304  42.7407494  37.6333542
  20.4172230  42.2139854  37.2082863  20.8140583  42.7985458  38.5468674
  10.2922087  20.9704208  83.2572479  10.0502625  21.8216248  83.6221390
  11.1051884  21.1366959  82.7801208  40.1424141  38.5911713   4.3427596
  39.7644653  38.9109879   5.1619682  40.6843796  37.8465614   4.6036391
  68.7908325  31.4323063  42.0462418  69.0404739  32.0275307  41.3394012
  68.5180664  32.0089874  42.7598724  34.9338608  11.1917696  13.7791376
  35.6826477  11.2776499  13.1890745  35.2860222  11.3990374  14.6447315
  32.9044533  45.6531334  72.8837967  32.6548576  46.5686493  72.7582397
  33.1763802  45.3576889  72.0148926  55.4296188  30.4337215  78.0102844
  55.1169930  30.6008224  77.1211472  55.6483269  29.5018616  78.0161057
  36.3836708  24.8436756  15.7930775  36.7887840  25.7005119  15.9270449
  35.4448814  25.0262012  15.7532167  68.4571838  17.6634464  54.4074554
  69.0870438  17.0091228  54.1051826  67.8409195  17.1703968  54.9490738
  73.4068527  16.6605911  12.9178867  73.8383102  16.1744251  13.6205349
  72.7669754  17.2130966  13.3668060  23.6221085  32.1846504  28.3317833
  23.2482491  32.5072441  27.5117855  22.8788414  31.8060570  28.8013039
  29.5455494  23.4342766   1.5607002  28.7042713  23.8886070   1.5152280
  29.8194656  23.3455086   0.6478357  46.9839096  60.8344460  40.0301743
  47.4379005  60.0890198  39.6371536  47.6707611  61.3187637  40.4883270
  84.9928589  61.4415283  15.1311331  85.6776733  61.0035820  14.6256990
  84.5041580  61.9488335  14.4830208  24.5314426  41.1361427   4.5736532
  23.8276386  40.6437454   4.9960690  24.0864563  41.8607712   4.1341820
   0.6264372  24.7275162   3.8772075   0.9783451  25.2324772   3.1441267
  -0.0137482  24.1389580   3.4772172   9.0173635   1.7697293  16.5535507
   8.6290236   1.9413199  15.6956587   8.4933624   2.2905486  17.1621571
  50.9629707  40.6978569  50.5018311  50.9381180  39.7497597  50.6311684
  50.0461121  40.9695015  50.5443382  82.3895416  51.7069931   6.2758222
  82.2283173  50.8110504   6.5716653  81.6091995  52.1919708   6.5443435
  32.7828369  61.3775101  57.6728134  31.9788761  61.2929001  58.1853714
  33.0447807  62.2910423  57.7871895  58.3286324  48.1515083  66.6461716
  57.3858681  48.2942657  66.7301025  58.6541138  48.1658249  67.5462189
  11.8494501  64.9144287  83.2208939  12.0057077  63.9709435  83.2615280
  11.3682032  65.0425186  82.4034424  15.4402952   0.3132517  27.6154900
  14.9965935   0.0297865  28.4148712  16.3564892   0.0718229  27.7516212
  84.0790939   8.0726786  16.4978943  83.4463425   8.2909765  17.1821480
  83.5464783   7.7334361  15.7785435  24.6635666  51.2410698   9.7748613
  24.2953625  50.8836441  10.5828867  23.9007607  51.5037041   9.2597084
  55.3063660  57.8866310  67.2577133  55.1942902  58.0267601  68.1979446
  54.5400505  58.3007126  66.8608170  57.2982635  12.2916527  18.4315586
  56.6424255  11.6718302  18.7508221  58.0139656  12.2300987  19.0641804
  82.6114197   9.8929510  65.5411377  83.3767853   9.8280115  66.1123047
  82.4223709   8.9887609  65.2902679   5.5926471   2.5859158  67.2078247
   5.2794685   2.6372275  66.3047714   6.4511523   2.1680274  67.1402283
  73.4803848  58.9612885   4.5690556  73.4447556  58.0881195   4.1784892
  74.2997894  59.3353004   4.2451420   3.8761425  12.8392630  87.3866043
   4.6138310  13.3820772  87.1083984   4.2071371  12.3546553  88.1427994
  78.5400467  42.7455063  27.4083061  77.9057541  42.1108246  27.7415962
  79.2754669  42.6922874  28.0186787  34.0438347  61.2003326  65.0029449
  33.3474731  61.8028603  64.7416458  34.8329582  61.5537987  64.5923538
  13.4796047   0.7492021  88.0192947  13.8566179   1.5122403  88.4573212
  12.6015835   0.6686813  88.3918915   2.0172248  16.6335583  28.8561287
   2.3423181  15.7558823  28.6555576   1.9430708  16.6492481  29.8103237
  35.1160126  48.4540291  58.4568138  34.9991341  47.5054169  58.4047661
  34.7317238  48.7875404  57.6460571  75.6611557  31.0837383  81.9996033
  75.0286713  31.6674786  82.4184647  75.2132034  30.7690697  81.2143936
  48.9112511  54.2907448  32.3190994  48.7792130  53.3505669  32.1971931
  48.7953110  54.4289856  33.2591438  82.0597610  41.2154388  30.5553093
  82.7273407  41.9007721  30.5254784  82.2744751  40.7057648  31.3365650
  75.7364578  60.4389229  46.8488312  75.1777649  60.0878639  47.5422668
  76.4682999  60.8449020  47.3133888   9.9359226  23.6870098  15.2576704
  10.4652977  23.6380463  16.0536575   9.6442451  22.7876492  15.1083088
  43.7609634  16.1171074  70.8951721  44.4246864  16.2709732  70.2228394
  43.0863953  15.6021938  70.4523926  18.2599430  64.5855865  23.0605698
  18.0205193  65.0524750  22.2599926  18.0767822  63.6665001  22.8657169
  59.8271713  37.6767921  71.2464905  59.4979744  37.9488869  70.3898544
  59.1093407  37.1728706  71.6299210  28.1083679   6.3944936  16.0758858
  27.6631508   5.5854912  15.8238344  29.0121975   6.2707858  15.7860270
  71.6461029   9.7540302  71.9655685  72.5662003   9.7954845  72.2261963
  71.1873627   9.4593163  72.7522888  33.2865448  70.9927444  10.1968861
  33.1102676  70.2645950  10.7926645  32.4503021  71.4533157  10.1275597
  67.2230301   4.4895101  71.2418518  67.3940506   5.2265544  71.8281555
  66.3465042   4.6571856  70.8957138  70.5101547  70.9687119   4.4494190
  70.8653336  71.8149109   4.1773243  70.6640778  70.3924561   3.7007761
  49.4565086  28.5822945  17.0628490  50.1708603  28.8121128  17.6570892
  48.6937485  28.4826946  17.6325016  49.9886131  35.1916161  84.6677475
  49.3482819  35.8979950  84.5826721  49.5781021  34.4428444  84.2352524
  72.1838531  53.5876350  19.0904694  71.3475952  53.8856430  18.7325535
  71.9422073  53.0030212  19.8088455  80.2936707  57.1997375  45.4697838
  80.0034714  58.0828285  45.6981812  79.4859161  56.7259560  45.2715492
  36.4869270  54.6552544  60.2564812  35.9822464  54.1802940  59.5962219
  36.9604568  53.9730492  60.7325058  58.1688423  66.3916626  85.0818939
  59.0563889  66.3394852  84.7272491  57.9001274  65.4793549  85.1900864
  31.5067825  58.1225357  86.0633087  32.0772629  57.7602081  85.3854370
  30.6644344  58.2470360  85.6260681  79.0202713  18.7231369  88.6033401
  78.7098923  17.8220749  88.5139847  78.6700745  19.0147247  89.4451065
  70.8389282  15.1996841  61.3580475  71.1264343  14.8095350  60.5326080
  71.4551086  14.8639803  62.0090866  58.0046883   3.7309468  45.9122009
  58.2747116   4.6390343  45.7754669  57.0733910   3.7221282  45.6911964
  69.4837875  33.7934189  56.7077637  69.0526733  34.1059914  55.9123573
  69.1534119  32.9027290  56.8250427  69.4278336  51.9238930   0.3655574
  68.7326584  52.3428230  -0.1418431  68.9697113  51.3046417   0.9337805
  79.2931061  68.5852051  28.8238430  80.0969467  68.1064606  28.6216755
  79.0602646  69.0196304  28.0033016  64.9793854  19.7467556   1.9544123
  64.6488953  20.4351997   1.3773042  65.2498932  20.2087593   2.7478917
  14.9443798  25.5130920  25.7191715  15.7671270  25.2079811  25.3367767
  14.8644295  26.4198627  25.4231873   4.2709913  41.9512444  60.9268456
   4.1811628  42.1674767  61.8549690   3.6369419  42.5172768  60.4865913
  66.7190781  46.4833946  52.9120903  66.3065948  47.3446388  52.9780426
  67.2914200  46.5498505  52.1477356  35.2998695  48.4635239  21.7790031
  34.7286606  49.2125740  21.6090717  36.0482025  48.8342323  22.2467632
  68.2871094  39.2976799  63.4044952  68.6336288  38.8599205  64.1820068
  68.7218323  40.1504288  63.3960075  10.6723776  46.2259789  73.2665024
  11.2099504  45.7709465  72.6182785  10.8340912  45.7557220  74.0843964
  50.7255707  31.7742062  78.3770523  49.8533058  31.5414600  78.6951981
  50.8793640  32.6538887  78.7216339  66.4260864  20.8879910  10.5426617
  66.7695923  20.0659676  10.8926840  67.1984863  21.4423084  10.4314718
  57.1445580  41.6023064   6.0066781  56.6078339  40.8100929   6.0302868
  57.3026543  41.8120193   6.9271445  64.6646729  35.8390427  87.7443161
  64.1463318  36.2848511  87.0743866  64.2195587  35.0015526  87.8736115
  13.7970009  11.0021095  63.7574043  13.8340521  11.1201973  62.8082390
  14.3240347  11.7197371  64.1087952  27.6468258  53.1116753  26.3662930
  28.3076706  52.8615456  25.7205753  26.8149681  52.8509331  25.9709988
  19.0337143  58.8006096  42.2238083  19.8902035  59.1780930  42.4242172
  18.6397095  59.4156799  41.6051941  61.9417343  14.4638195   3.0167789
  61.8896751  13.6217670   3.4689605  62.8781357  14.6013832   2.8737411
  10.9759254  50.5171547  82.2941971  10.6041965  51.3834457  82.1281128
  10.3351173  50.0859299  82.8595657  46.5685043   4.6414914  55.6047325
  46.3114433   5.4603696  56.0285149  45.8309212   4.0508685  55.7576103
  70.8496704  44.2194023  45.5981903  71.7075424  43.7984123  45.6535110
  70.8870621  44.7342453  44.7921066  58.6848755  38.6135521  41.3874817
  57.8654594  38.2289734  41.6987457  59.2476349  37.8614998  41.2032318
  83.9471512   2.5803168  77.8925171  83.7202530   1.7164949  77.5481873
  83.9383392   2.4690855  78.8431931  66.0442276   0.4766599  42.4749489
  66.5195923  -0.3485071  42.5716858  66.6395264   1.1386566  42.8265305
   7.7225637   6.2881293  81.0319901   7.8577700   6.6056018  80.1391525
   7.7818193   5.3355556  80.9590302  37.2236366  10.2446604  20.4496193
  37.5980034   9.6763735  21.1227703  37.2394981   9.7146053  19.6527367
  58.5027161  35.7954521  63.8920517  58.4813766  36.3685074  64.6584549
  58.0495071  35.0009995  64.1743240  63.7266350  50.6465797  22.8082542
  63.7696800  51.5763130  23.0318089  62.8921661  50.5489120  22.3496056
  76.3120346  62.7117577  69.0265961  75.8301773  63.3501358  69.5524521
  76.6814117  62.1038437  69.6670914  24.3073406  34.2460632  67.6413269
  23.6728363  34.3729591  66.9359665  24.0480690  33.4207802  68.0511093
  80.6083374   5.9985604  39.5792007  81.4966049   5.9545531  39.2252502
  80.1711349   6.6633201  39.0470581  75.9684143  39.4390259  67.9877777
  75.8924942  38.6492844  67.4522629  75.5161209  39.2203217  68.8025436
   9.8907967   7.1834683  76.7014389  10.6604261   7.5474300  77.1389771
   9.7686348   7.7381268  75.9309464  61.8384819  10.8777704  56.7419014
  62.4402847  11.1782742  56.0608978  62.2113190  10.0489197  57.0422821
  78.9722443  22.9390755  77.9239807  78.1583328  22.7464008  77.4585266
  78.9007111  22.4503880  78.7439194  11.4126282  51.7056465  63.8219795
  11.1695824  50.9582024  64.3683243  12.3289795  51.8745499  64.0410767
  81.1980438  36.4736061  14.5826349  81.2357941  35.7941170  13.9095068
  80.2787094  36.7393532  14.6034136  84.3554306  23.7925854  44.9518204
  84.7879944  23.4462891  44.1713066  83.9961700  23.0205441  45.3889847
  20.5702076  52.5080147  68.2460480  21.4903069  52.7141151  68.4108810
  20.3751793  51.7872810  68.8449936  32.4601059  22.8515701  80.2898560
  32.7095070  22.1516113  80.8932495  32.2607574  22.4007492  79.4693375
  42.3646126  28.0347691  22.2753410  42.8249283  28.5598354  22.9300537
  42.7461472  27.1607800  22.3578453  56.9711647  36.5632057  54.3374710
  57.5944099  36.3523979  53.6422310  56.3428841  37.1555481  53.9244003
  78.0900040  40.8630562  53.1459351  78.3060150  40.2717400  53.8669853
  78.3139725  40.3700752  52.3566055  65.5790329  54.7131767  15.6487551
  65.2112732  54.4813004  16.5015240  65.0496368  54.2243233  15.0186825
  69.1843262  53.0474854  35.4766006  68.4999924  52.4408493  35.7592850
  68.8307648  53.4560623  34.6864815  40.6990204  32.5126648  66.2625046
  41.2389030  32.7939758  67.0011673  41.1459160  32.8631783  65.4920120
  71.3407974  23.8843861  -0.0733673  71.6092834  24.7848186   0.1093008
  70.4940643  23.7935810   0.3637000  29.8060131  50.1200829  85.8278046
  29.9529018  50.5759926  86.6565399  30.6427803  50.1844139  85.3674622
  40.5909615  39.4337807  61.9608727  39.7602425  39.1246872  62.3222580
  40.5918427  39.1170425  61.0575981  78.3516235  36.8604889  78.9265060
  78.7617722  36.6422234  78.0896225  77.4409256  37.0535011  78.7037888
  72.4058914  29.9414043  11.8276339  72.4222412  29.1399441  11.3045416
  71.5728455  30.3564358  11.6039886  64.8536987  28.2982197  54.1881981
  65.2987137  28.0065804  54.9838943  64.8928604  29.2537727  54.2284012
  26.6347752  23.9586220  15.6129141  26.0539093  23.5826912  14.9514732
  27.5124664  23.8629169  15.2431440  85.5483856  51.6330070  85.4888840
  85.4724121  52.3365021  84.8442459  86.4324570  51.2880135  85.3638458
  63.0309258  60.1194725  51.6293297  62.9159889  59.2297401  51.2955627
  63.9787369  60.2228928  51.7141304  66.1818771  65.5002594  41.4143066
  65.8982315  66.0923004  42.1109200  65.4344025  64.9187775  41.2750359
  76.3403244   2.9814796  51.5660439  77.1871796   3.4171813  51.6621361
  75.7180023   3.6954405  51.4274673  54.6101303  25.2502785  27.1515961
  53.7651711  24.8698673  26.9116783  54.4418945  26.1908722  27.2082863
  18.2115421  65.2560196  35.8214722  18.5250969  65.9466248  35.2375298
  18.7934074  64.5154266  35.6506500  18.2488708  57.1759796  75.1679306
  17.6035233  57.1241646  75.8729630  18.2313900  58.0930214  74.8941498
  55.6301384  46.2140350  36.9892769  55.0534782  46.2779579  36.2279587
  56.2125130  45.4815903  36.7877960  59.8958740  53.7852173  49.7504692
  60.4484367  54.4505386  50.1606598  59.3825417  54.2668724  49.1018295
  48.0155678  67.0353470   3.5722773  47.8110924  66.4798965   4.3245406
  47.1624260  67.3277817   3.2515478  52.9134331  30.6769352  59.7051544
  52.6471062  29.7688885  59.8492165  53.1856117  30.7040558  58.7878685
  32.6863670  16.2812557  84.3549118  32.2712479  16.5675888  83.5413284
  33.4395752  16.8630238  84.4571381  38.4868698   8.5147915  82.1595154
  37.8231049   9.1862545  82.0020828  39.1797752   8.9704018  82.6375656
  75.9279022  63.4155083  17.5074406  75.0930252  63.4473038  17.0403118
  76.5234070  62.9715614  16.9036903   0.3079330  70.4798279  50.4775581
   0.4727322  70.5564117  51.4173508  -0.0790710  71.3204422  50.2329712
  10.9082346  36.9880180  27.7741508  11.0383453  36.2157211  28.3244762
  10.4274292  37.6005402  28.3308144  10.2031269  28.0272503  72.8148117
   9.9102383  28.7879105  73.3166504  10.8001118  27.5666847  73.4044952
  82.4252472  24.7625046  26.6476669  82.1689682  24.9564800  25.7460423
  81.5988464  24.7281628  27.1294498  63.9952660  63.9528961  33.2008858
  64.8120422  64.1473236  32.7411995  64.1149902  63.0645370  33.5366173
  56.6408882  19.1839352  81.8436661  56.5385094  18.2766514  82.1310425
  57.5823822  19.3477154  81.8983841  83.8270798   4.7746172   5.7677784
  83.5452271   4.2873950   6.5419922  84.0223083   5.6526098   6.0952625
  35.9605331  13.3986454  16.9341679  36.7897034  13.0254536  16.6351089
  35.4993019  13.6334457  16.1289558  65.4206696   0.7361224  23.2386856
  64.5746613   1.0984973  22.9756508  65.4587402  -0.1188501  22.8099613
  36.7389412  37.7413940  26.5130501  37.3118553  37.1486969  26.0265160
  36.0407028  37.1786041  26.8476505  43.7941437  64.1960220  70.4275131
  43.3267708  64.3595657  69.6083450  43.1128349  64.2136917  71.0996323
  82.3434296  30.6503620   3.5573320  81.3985672  30.6243210   3.7082758
  82.6814804  29.8851776   4.0225711  51.8383064  38.0581398  40.7233276
  52.5868835  37.7306900  40.2246895  51.1309280  37.4449081  40.5238533
  39.3484612  19.0453491  12.3186359  38.4587517  19.0412178  11.9656076
  39.4606400  19.9266224  12.6750183  52.8805771  62.3989563  77.9640427
  53.0275383  62.0115051  78.8268967  53.3936958  63.2069473  77.9737625
  47.5047684  29.9428806  76.7875443  46.7748680  29.3312778  76.6904984
  47.6216393  30.0281143  77.7337570  25.7203026  52.7716370  44.3513489
  26.3663635  52.8950539  45.0467682  26.0269775  52.0010071  43.8735313
  83.9411392  55.3868637  14.1709833  83.8917999  55.9105797  14.9706831
  83.3349838  54.6615791  14.3218813  62.3787308   4.5129972  39.9974670
  62.5929909   4.4582438  40.9287720  62.0614548   3.6382856  39.7728615
  69.9704742   1.5895339   6.7074032  70.2034378   0.9954352   5.9939570
  70.7421951   1.5980726   7.2736292  24.1271000  40.8879776  48.7280579
  24.3721695  40.6234131  47.8413925  23.2140675  41.1650276  48.6515999
  11.6566839   4.5717783   2.1052964  11.6409798   4.0646472   2.9169633
  11.5161076   5.4762664   2.3852456  52.1088562  70.3688736  34.5113525
  51.4486389  69.7517776  34.8268509  52.1332741  70.2302017  33.5645638
  25.8259544   3.5699158   7.8217354  25.8200455   2.6141150   7.8731341
  25.0687637   3.8423328   8.3400841   4.5925918  16.7336617  51.9121094
   3.9638669  17.4434414  51.7811584   4.7668529  16.4024754  51.0310974
   1.3680112  68.6693802  36.2065811   2.0884500  69.2950745  36.2821350
   1.1856409  68.6263046  35.2679024  61.8064880  71.6822433   3.1465414
  61.5765076  71.7720261   4.0713558  62.3987961  70.9308243   3.1188829
  29.8218517  62.8019905  89.0328598  29.9086361  62.0151672  88.4946976
  28.9098530  62.7940445  89.3234177  41.1069298  56.3836136  13.9832945
  40.9681168  55.9336815  13.1499147  42.0061913  56.1642113  14.2270594
  12.3315287  47.6713600  16.0484276  12.8026905  48.3952370  16.4610329
  11.4083920  47.8582115  16.2191219  46.1994171  24.2315559  20.7190304
  45.3430138  24.5632401  20.9888306  46.0811844  23.9801865  19.8030243
   3.4979699   9.6554222  61.7809601   3.4683142   8.9157362  62.3877716
   3.6194153  10.4210920  62.3424149   3.7465177  54.6933250  21.7036705
   2.9140704  55.0157356  22.0490894   3.6620009  53.7401237  21.7259827
  77.3118820   8.7207336  67.1731644  76.5905762   9.3467312  67.1092834
  76.8902054   7.8917003  67.3992691  75.3923492   8.6541624  30.5419941
  76.3230133   8.5764055  30.7518559  74.9826279   7.9159694  30.9930286
  49.1158066   3.8924389  41.0762596  49.2786293   2.9577205  40.9496803
  49.6339798   4.1235776  41.8471680   2.5041931  63.6340981  29.5359707
   2.9640257  63.3395576  28.7498207   3.2019403  63.8620605  30.1503105
  35.7919464  37.1987000  64.2407303  36.1581497  36.7094879  63.5039825
  35.5990791  38.0645523  63.8810997  15.4722576  30.6202450  16.6814499
  14.6150246  30.2936687  16.9548206  16.0947495  30.1584187  17.2430992
  45.4328537  46.0779305  33.2358170  45.7540932  45.3597450  33.7810249
  46.2253914  46.4977722  32.9013863   1.1571378  32.1489105  58.6289978
   1.2689918  31.4422703  57.9930878   1.2056381  32.9501991  58.1076431
  19.2116776  17.3030071  16.8438549  19.1852436  16.8476562  17.6853924
  18.2984772  17.3320599  16.5584583  81.6501541  57.6179390  21.9383659
  82.0919342  57.2138748  22.6852226  81.1387711  56.9081535  21.5498791
  52.2069054  62.5699806   6.7329478  52.3713074  62.1557541   5.8858242
  51.4110680  63.0843353   6.5976210  27.8573132  43.3814354   4.6685596
  27.4993134  42.6950798   5.2315712  28.1744881  44.0489922   5.2768383
  80.8944244  35.5894623  26.6635590  80.4221573  36.2696457  26.1834087
  80.6515732  34.7741089  26.2248669   8.0593204   3.3432217  80.6499557
   7.5086923   3.5157843  79.8862381   8.8231611   2.8873725  80.2964249
  59.4188614  28.7984505  78.7873230  60.1259079  28.6498260  79.4151993
  59.2068939  29.7272015  78.8807220  83.3506165  65.5805054  13.8273706
  84.1840820  65.9458542  14.1241646  83.2590027  65.8931580  12.9273224
  39.1863518  37.0836296  66.9436340  39.0059814  36.3832893  67.5707092
  39.2369690  36.6398926  66.0970154  17.8251724  47.5139198   2.4926293
  18.2236500  46.8517303   3.0573864  18.1700535  47.3236351   1.6202301
  48.6527290  13.7281904  86.5225601  47.7801628  13.8564186  86.8946075
  48.4944839  13.2907639  85.6859894  76.0755157  70.2522507  47.7062988
  76.4703674  70.4004745  48.5655708  75.3772583  70.9043655  47.6478577
  74.1447067   5.9977107  72.1690903  73.2462387   6.0783629  72.4892349
  74.0500870   5.7327394  71.2541809   5.9737258  51.9772949  48.2555351
   5.3321924  52.6460915  48.0160065   5.5794282  51.1535683  47.9687614
  72.6186676  63.7901344  72.9989853  71.7463150  64.1772079  73.0725021
  72.4781418  62.9714928  72.5232620  47.0416527  70.9231644  80.7809677
  46.1925964  70.7441483  81.1850586  47.0892448  71.8781509  80.7366867
   8.3649616  35.9052734  36.6128578   7.9143124  35.0669823  36.7149200
   7.7266645  36.4686279  36.1753159  69.9146957  17.4319515  23.2118740
  70.7885361  17.1003990  23.4185352  69.6486969  16.9386692  22.4358921
  67.8760681  46.1921997  21.2279301  67.6845398  47.0564232  21.5921745
  68.4347534  46.3696671  20.4712219  46.4830208  60.7833176  81.6933823
  46.7549095  60.6469193  80.7858047  45.5305672  60.6899719  81.6746902
  45.6516228  20.8772469  62.9264832  45.5595322  21.0765896  61.9948082
  45.3700790  21.6766186  63.3714180  71.6140823  51.7875824  69.2704315
  71.4618759  51.9076958  68.3330765  72.5656662  51.7243385  69.3523941
  49.4197311  56.6935425   0.4470346  49.5856209  56.4667549  -0.4679952
  48.9224434  55.9516449   0.7913091  71.5881271   9.0557346  47.6232605
  70.7272644   9.2587185  47.2572708  71.9048157   9.8907108  47.9678726
  53.4900169  34.8487968  13.2818327  54.4317207  34.8820496  13.1135540
  53.4198570  34.5870590  14.1998758  23.7975540   3.5964885  39.6540031
  23.6876869   2.6480784  39.5855980  23.5669746   3.9275401  38.7859764
  83.5964966  61.8405075  10.4139051  82.7921982  62.1766510  10.8093071
  84.1868896  61.7003441  11.1541872  54.3270798  -0.0050716  25.8671246
  53.4948349  -0.3408805  26.2000427  54.5071869   0.7653627  26.4058495
   9.4862499  33.3862572  14.3135080   8.9219007  32.6903191  13.9767389
   9.1829453  33.5276756  15.2103014  34.2575531  37.1418571   4.5099888
  33.9509087  38.0067253   4.7823977  35.1723404  37.1128426   4.7902603
  28.8331223  15.3845711  84.9993820  28.0906734  15.2595577  85.5904541
  28.9495850  16.3337822  84.9585571  30.2872620  40.5371399  69.3675842
  30.2733974  40.2531662  70.2815857  30.2757912  39.7233582  68.8637466
   3.5165417  13.4821825  14.9637566   4.0793066  13.6128035  15.7269506
   3.3505981  14.3655348  14.6345387  17.9097805  13.3289843  70.3403778
  18.7196941  13.7521505  70.0554123  17.5816555  13.8889856  71.0439148
  55.9331551  49.2268143   8.8703270  56.1378975  49.1068687   9.7976494
  56.6775780  49.7176247   8.5222235  63.7959442   8.1482058  85.7118149
  63.8505707   7.1928897  85.7366943  64.4906769   8.4432459  86.3004837
   0.1265388  46.1282959  60.9851913  -0.1620774  46.0380592  60.0770111
   0.2852821  47.0659485  61.0940170  68.7675323  69.1732712  47.7727242
  69.3928146  69.7982407  48.1396866  69.3120575  68.5162735  47.3390465
  78.2106247   0.9721985  57.8041115  79.0580826   0.5297488  57.8518066
  78.2548828   1.6480571  58.4804878  46.4660454  38.3113022  87.9396744
  46.0035210  39.1479378  87.8912811  46.1355133  37.8113747  87.1933136
  78.1330185  64.6291046  68.2048340  77.8685913  65.4004593  68.7061462
  77.4804001  63.9646187  68.4257050   7.0126147  16.1914463  85.3533020
   7.1643729  15.9548120  84.4383087   6.8126631  15.3610849  85.7854462
  37.6324196  41.3712692  74.4869919  37.6060410  42.1755219  73.9686127
  37.7922592  40.6784172  73.8461761  70.3044586  38.8953171  41.6734352
  69.5213852  38.4022942  41.4285812  70.7974930  38.9824066  40.8576126
  70.2528534  33.7179909  14.0645037  70.0415649  33.1396980  13.3315849
  70.1505051  34.6011925  13.7099419  48.2283630  10.2025156  82.2413254
  49.1710472  10.3652029  82.2747192  47.9456291  10.2440891  83.1548691
  18.5360107  43.2465553  73.1546707  17.5814533  43.1853333  73.1185684
  18.7517929  43.0852661  74.0731812  46.3216934  29.7408962   1.6179609
  46.8113480  28.9251823   1.7232218  46.9865990  30.4276085   1.6685561
  71.4457550  55.7939186  64.7805786  72.1395721  55.3076935  65.2260361
  70.7849960  55.1329956  64.5736618  85.5651855  33.9419479  26.6111279
  85.7594757  33.7038994  25.7045841  85.1533279  33.1609726  26.9808311
  76.4543762  38.3343430   0.5433741  77.2994080  38.7282066   0.3265452
  76.6772690  37.4909248   0.9373284  12.8641014   9.0208292   8.9914227
  13.6912775   8.6807337   9.3325195  12.4974022   9.5288448   9.7150822
  56.7473831  49.0489273  60.5233727  57.3525276  49.6376762  60.9743843
  57.1142387  48.9559708  59.6441650  75.3701859   8.9781694  15.5660219
  76.1959610   8.6481962  15.2118387  75.6249924   9.7160349  16.1199703
  76.7213058   3.6989357  62.2901192  77.1758652   4.4592180  62.6528473
  76.5294495   3.9439671  61.3849220   3.4299369  50.8668633  62.8845291
   3.2675982  51.8083725  62.9432030   3.4749043  50.5743866  63.7948418
  19.5225048   7.8658772  65.1042404  19.3681202   6.9998755  65.4816513
  20.3883324   7.8006759  64.7013474  44.0298958  34.8600044   3.3444169
  43.1433830  34.5299988   3.1980617  44.2562370  35.3081284   2.5294411
  25.0345249   1.5208209  77.1059570  24.3278999   0.9004740  77.2850723
  25.2062473   1.9384719  77.9499435  10.1962004  62.4352570  18.7355690
  10.3299704  61.9303703  19.5377083  10.5366259  61.8734398  18.0393639
  33.9364433  31.0820389  15.9431801  33.0368347  31.4076977  15.9134502
  33.8704643  30.2362537  16.3864918   0.1305224  39.4184685  17.4277725
  -0.1143828  38.7492752  16.7886848   0.9534423  39.1030998  17.8013744
  81.5868912  60.9906464  16.4382286  81.0071259  60.8924599  17.1935215
  81.5390167  61.9211502  16.2189083  62.9479637  45.7569962  82.3726349
  63.7903023  46.1588440  82.5852661  62.6808128  45.3189011  83.1806793
  77.8056259  51.5033340  74.1690598  78.6318893  51.1154175  73.8808899
  77.5421448  52.0710983  73.4448700  59.9688835  69.4611435  27.2764168
  59.0885544  69.5826263  26.9207573  59.8423500  69.4336243  28.2248173
  46.7744522  40.6076698  20.5519104  46.2165222  39.8808098  20.8287125
  47.4201088  40.6945496  21.2532024  50.1170540  49.9277420   1.7764710
  50.0304756  50.7737808   2.2157350  50.1151352  49.2872429   2.4877999
  68.2399368  32.2321892   3.2683251  67.6112366  32.9020805   2.9996150
  69.0757751  32.6956596   3.3213210  10.8417988  56.5225792  52.4891319
  10.6594868  55.6204300  52.2262230  10.8581629  56.4946098  53.4457817
   7.5201597   3.3493304  10.9142942   7.2389865   4.2640381  10.8923101
   8.2650032   3.3132277  10.3141804  49.0958366  52.5983582  88.2221680
  49.1704483  51.6462631  88.1575546  48.1621628  52.7739220  88.1052856
  28.4261398  42.3819542  20.1513271  27.8103523  41.6625252  20.2908115
  29.2660675  41.9510155  19.9930668   0.0527690  32.0820999  40.1051483
   0.7045322  32.6000137  39.6327095   0.3437172  31.1763973  39.9989204
  52.9101410  52.4651794  21.0901146  53.6568222  53.0438309  21.2445679
  52.9424133  51.8351746  21.8100338  34.9072609   4.5470281  88.9722366
  34.6727638   4.9610600  88.1416855  35.8436584   4.3649907  88.8931427
  43.8842506   2.6979907   3.1218464  43.9080009   3.5140469   3.6215663
  43.2008247   2.8382511   2.4664958  35.0085373  47.1270561  43.5418739
  34.6037750  47.9514198  43.2720108  35.9458351  47.2641411  43.4043427
  15.9578447  15.2794571  66.5202332  15.8882465  15.7333260  67.3601074
  16.7094402  14.6960239  66.6248322  37.2657242  43.8469353  37.3308792
  37.4748268  44.7724648  37.2047806  37.7538528  43.5957794  38.1150246
   4.8613176  60.2775955  51.3350449   4.1569595  60.4930573  50.7237434
   5.3018937  59.5264435  50.9376869  51.7084999  53.7903137  27.1505089
  52.1510468  54.5077057  27.6040840  50.8937721  54.1765251  26.8291206
  84.9508362  36.7319221  50.3495369  84.8248749  37.6557770  50.5660133
  84.2010880  36.2885399  50.7464294  54.8809967  49.6968002  69.8445435
  55.0865974  50.1567039  69.0306320  54.7180099  48.7930908  69.5744019
   5.0231848  49.9550171  85.5168610   5.0127912  50.9096909  85.5856094
   4.1877832  49.6786461  85.8936310  50.7566376  60.7333107   1.5614241
  51.0629044  60.3749733   2.3945062  51.2679253  60.2691154   0.8985963
  18.6630650  34.4147377  19.2124329  18.8888893  33.6405983  19.7281322
  17.8950729  34.1496925  18.7062988  81.7784195   3.3249164  26.8136044
  82.2069473   4.1783171  26.7479744  81.7270813   3.0125823  25.9102516
  23.2122040  64.8827896  41.1166611  22.5646763  65.1607208  40.4688225
  22.8542976  65.1766891  41.9543724   9.9283190  30.5277615  73.9755859
   9.0024805  30.7318020  73.8435898  10.3914289  31.1264992  73.3896942
  75.2348862  48.1449356  10.3281183  74.6676788  47.4964638   9.9109859
  76.0099869  47.6498795  10.5933876  44.7147446  10.7084713  83.1273727
  44.0549583  10.6844225  83.8204422  45.4053764  10.1207228  83.4336548
  82.4860306  63.2896423   2.4070938  82.8164139  63.2256241   3.3031857
  81.6378860  62.8466415   2.4323015  56.4718094  40.7105904  83.3660202
  56.7595825  40.8227615  84.2720184  55.5763664  41.0486832  83.3555374
  33.2360992  39.7137871   5.0532928  33.1727600  40.6329155   5.3129520
  32.8388634  39.2320251   5.7787852   0.8402716  26.9219780  70.1515427
  -0.0839682  27.0406494  69.9326096   1.0986667  26.1306934  69.6789627
  12.4617891  14.6397400  25.8410130  13.0306225  15.0649586  26.4827690
  11.6128092  15.0674667  25.9528809  67.4661255  24.8748531  47.2919846
  67.8306351  25.6560078  47.7081146  67.9329071  24.8072624  46.4590530
  79.1232224  59.9680023  45.6606064  79.6614838  59.7337646  44.9045372
  78.4412308  59.2968369  45.6862450  38.5270309   8.5613708  71.0717773
  38.7863998   7.6720185  71.3126373  38.1345100   8.4695568  70.2035980
  30.1363621  39.0276527  85.9669800  30.2211628  39.9094505  86.3295746
  30.2763138  38.4467163  86.7147522   5.9526520   5.9366784  63.3119659
   6.1969032   5.0952697  62.9264755   6.0294147   5.7988863  64.2560806
   8.1671782  36.7841644  33.6001320   8.1217604  37.1817207  32.7305832
   7.3870730  37.1061897  34.0517616  21.7063351  26.3980560  16.2249832
  22.5563622  26.0261898  15.9896021  21.2707558  25.7049198  16.7210331
   1.4325410  49.9329643  13.0725641   0.5987668  50.1519241  12.6564999
   2.0328135  49.7836342  12.3420811  69.2392044  27.4888058  60.1134605
  70.1566772  27.7327633  59.9911690  69.2120667  27.0862141  60.9814568
  38.7242050  36.6247444   0.5039685  38.8660622  35.7100906   0.2600155
  38.8211784  36.6364708   1.4561715  56.2414360  54.4683456  76.7472839
  56.8080788  53.7186089  76.5655289  56.8452988  55.1755180  76.9742050
   0.9674205  18.5366611  42.3227692   1.1982346  18.7714920  41.4239883
   0.5992613  17.6558399  42.2531662   2.4348595  55.4172859   2.9155366
   2.9237831  56.2401733   2.9091763   3.0945723  54.7453804   2.7436237
  51.8481560  59.4408226  42.2983093  52.6615753  58.9965210  42.5374222
  51.6977501  59.1908340  41.3866539  18.2895145  10.4701633  20.4036484
  17.7355614  11.0458155  20.9308987  17.7338638  10.2101917  19.6688690
  20.1217632  66.6379623  52.3076897  19.6287861  65.9897537  51.8046722
  19.5886097  67.4316864  52.2631493   1.0096987  11.2004318  21.6526737
   1.2562776  12.0825930  21.3747845   1.7515564  10.6524830  21.3964863
  71.6377258  18.7131519  10.1646833  72.4278259  18.7756119   9.6279554
  71.9082565  19.0290127  11.0268192  11.1955042  50.4134293  25.9089756
  12.1184349  50.6663857  25.9300442  11.0162525  50.2380638  24.9852066
  30.8435249  25.8661556   2.6838562  30.5984726  25.0262623   2.2955785
  30.6144695  26.5140095   2.0174854  32.7883644  53.4164352  22.2831173
  32.5391541  53.9387627  21.5206871  33.3323784  54.0034676  22.8081608
  45.9810715  34.9076691  16.7639465  45.9154015  35.4443893  17.5537891
  45.5811310  35.4416695  16.0775623  81.4900436  65.6651764  47.6337852
  81.9744492  66.4377365  47.3427048  81.1435852  65.2820358  46.8279305
  18.8808231  11.9905491  89.1127396  18.2582493  12.7031889  88.9685974
  18.7383423  11.3954821  88.3766479  17.1181965   6.2535067  75.0770111
  17.3288441   7.1556334  74.8361282  16.8125324   5.8533745  74.2629547
  20.7742653  48.8474693  20.2923527  20.4713821  49.7389565  20.4648151
  21.6650867  48.8253365  20.6418934  34.2496910   1.4773443  85.1890564
  33.8190880   2.2757721  84.8835602  34.1848564   1.5202700  86.1430893
  38.7064171  60.9657745  64.4103088  38.7834091  60.0127068  64.4546432
  39.0241890  61.2715149  65.2598801  66.9777222  34.2042999  10.5366011
  67.5584106  33.4866943  10.7897224  66.8081360  34.0582771   9.6059284
  83.6667328  27.1879482   2.6572766  82.8717194  26.6599503   2.7307689
  83.7717514  27.3331509   1.7170005  62.1319542  51.2350693  15.1950827
  61.2425270  50.9588737  15.4161301  62.6910400  50.7512970  15.8030462
   8.1348782   7.5694976  64.6889267   7.3834081   7.0576262  64.9881134
   8.5175133   7.9245992  65.4912567  39.2165146  53.3523865  31.8329487
  40.1338234  53.5727158  31.6709995  38.7997856  53.4151344  30.9735126
   0.2609801  64.6842575  80.8575516   0.4245966  65.5509949  80.4857635
   0.5563408  64.7534256  81.7654114  85.5056229  32.4275093  34.4031639
  85.7347641  31.4989109  34.3653450  86.2466125  32.8739319  33.9934387
  11.4394875  16.4334297  23.2939720  11.2504215  15.5124035  23.4734039
  10.9696093  16.6204796  22.4812870  65.4991379  16.5742512  22.5905418
  64.9600601  16.9453659  23.2890396  65.9083557  17.3332119  22.1749058
  38.7305603  52.6995125  87.0668869  38.8742256  53.6230736  86.8604202
  39.0689926  52.2284164  86.3054657  69.0606232  46.8142471  31.8651791
  68.9664536  46.3282585  31.0459251  68.2969055  47.3907013  31.8908520
   8.3160448  46.1280022  58.8683777   8.2073860  46.4552803  59.7612991
   9.2630968  46.0438957  58.7576942  50.8037682  25.1169033  35.7127762
  51.2565956  25.9345150  35.5061569  50.8728218  25.0387077  36.6642761
  72.9007034  55.5503502  24.5748901  72.2404022  54.9853783  24.1735973
  72.4735641  55.8998795  25.3569431  80.9032440  28.9903355  85.7174072
  80.5062180  29.3837948  84.9403687  81.2565689  29.7325916  86.2077637
  71.9503632  56.8500328  20.4583435  72.6713943  56.3595390  20.0636692
  72.3753281  57.5807076  20.9075127  69.6218948  42.7461395  23.3928947
  70.1443176  43.0361900  22.6451168  69.4227600  43.5503464  23.8722973
  11.9186010  66.5658340  10.4441156  12.7769156  66.1641617  10.5789728
  11.2938223  65.8885956  10.7034063  28.8443375  36.0820580  69.7764435
  29.2234554  36.5805931  70.5002899  27.9099064  36.0382423  69.9793015
  11.2727270  69.8164520  62.2612076  10.3809052  70.1387711  62.1308403
  11.2442474  68.9066238  61.9651604  41.1276360  14.0949621  14.3402004
  40.5864525  14.7596798  14.7662354  41.8460045  14.5885305  13.9445171
  45.0256386  46.2649803  55.2945328  45.3121872  47.0866966  54.8959084
  45.7240601  46.0407410  55.9094772  64.9262161  20.1011486  73.3284760
  65.7161102  19.7004223  73.6914139  64.4771576  20.4748306  74.0867233
  30.2422791  17.3328781  13.2220287  30.9681110  17.2986927  13.8451109
  30.6049385  17.7778015  12.4560308  39.0093803  69.0271988  18.0954933
  39.9443893  68.9407959  18.2813091  38.8035660  69.9348068  18.3193665
  64.6308594   6.8827820  28.1617908  64.9268112   5.9726501  28.1792812
  65.2922897   7.3593984  28.6633682  49.4601898  14.1459923  56.1499519
  50.1115685  13.7206564  55.5922585  49.9213676  14.8942108  56.5290489
  41.1958389  33.1753845  13.2062817  41.7327194  32.8691864  13.9371929
  41.1877518  32.4419289  12.5912933  43.4433517  60.8771057  46.0065155
  43.7390594  60.5351753  46.8502426  44.1573868  61.4435692  45.7141037
  64.7837143  54.3770714  18.4185963  64.3388977  53.8235512  19.0604610
  64.9204483  55.2083473  18.8730354  35.1707077  59.2149734  52.3227272
  35.5159988  59.3739700  53.2012062  34.6693115  60.0037231  52.1160736
  19.9469585  24.1238232  76.9633560  20.3565254  23.3191872  77.2812424
  19.2020798  23.8237953  76.4424286   6.8874936  56.4107018  13.4936800
   7.5376177  56.6984367  12.8527594   7.0540342  56.9537659  14.2641211
  70.2542343  66.6305923  28.1659431  69.4884415  67.1796188  27.9975281
  70.0734634  66.2202988  29.0116482  65.6767654  17.0908298  46.7615280
  66.4933624  16.7311668  46.4150581  65.4997559  16.5710812  47.5455933
  55.6392403  29.7895660  49.3616676  56.2143822  29.5629463  48.6308594
  55.6323891  30.7466736  49.3731918  63.6501579  23.0642681  58.9388771
  63.2534103  23.8524361  58.5679092  62.9865570  22.7209721  59.5372200
  47.2095680  35.5400581  69.7855453  47.1292572  34.5968361  69.9273834
  47.5982208  35.8717422  70.5949707  39.8274841  60.4464149   4.1873026
  40.1815796  61.0971031   4.7934856  39.1622314  60.9207077   3.6885865
  17.7911549   1.2769330  83.8261032  18.2806187   1.8483336  84.4178467
  17.1061478   1.8383931  83.4631195  61.3359489  51.9417763  87.6985245
  62.2355728  51.6365547  87.8157730  60.9261856  51.8138199  88.5540619
  78.4017181  14.5630960  67.1290741  79.0536499  14.8356085  67.7748032
  78.7844543  13.7902584  66.7137833  67.5734940  11.4259758  29.4473839
  68.2546692  10.8449268  29.7859268  67.8661423  12.3046227  29.6893940
  13.0317812  43.7308350  16.9587135  12.8117619  44.1801109  16.1426411
  12.2673502  43.8641815  17.5191536  40.1738930  29.2047119   8.0888910
  39.3250046  29.3850498   8.4927473  40.5211601  30.0682812   7.8655376
  71.7728271  38.6687775  27.3934364  72.2347183  39.5058212  27.3460865
  71.5849762  38.5512199  28.3246307  60.9852219  24.7410851  16.2193718
  61.9295464  24.6840668  16.3650780  60.6227036  24.0005836  16.7056522
  64.4367523  13.5279379  72.8595276  65.1498108  13.0410376  72.4463654
  64.7855148  13.7853699  73.7129517  52.1376152  31.2422600  72.1866684
  51.9003677  32.1472321  72.3890839  53.0821381  31.2029419  72.3368759
  62.5897369  15.6016636  72.0067596  63.2831154  16.0075130  72.5270920
  62.7468758  14.6611567  72.0903397  12.6078100  26.2904987   3.3743811
  12.0741911  25.5628223   3.0550547  12.9247627  25.9981194   4.2289495
  73.1580124  60.0504875  18.8454895  73.3763657  59.1209908  18.7777252
  72.8598480  60.2910461  17.9682980   0.6278959  40.5286331   8.2644215
   0.0689844  39.9452248   8.7777300   0.5847110  40.1796684   7.3741460
  86.8487396  33.0927048  65.0025711  86.9647141  32.1640587  64.8015671
  85.9526367  33.1561356  65.3330536   3.5987253  51.7996864  34.5824852
   3.5631235  52.5687790  35.1512184   2.7033043  51.4613800  34.5808105
  15.5576782  52.4194221   4.7398181  14.9112520  52.7662354   5.3547049
  15.2994719  51.5068626   4.6102276  79.6468964   4.9045134  80.4226608
  80.0888138   5.0925970  79.5946732  79.6607437   5.7364225  80.8959122
   8.7959509   4.6521220  57.5805931   9.2420664   3.9785454  58.0939217
   9.3918943   5.4009585  57.5986671  46.4525642  24.3162918   6.5169287
  46.9285889  24.2712383   5.6877112  46.0990677  25.2054691   6.5421662
  63.0068779  49.2399139   5.3220425  63.6519547  48.8489304   5.9113121
  62.2859116  49.5005798   5.8951850  70.7891159  11.0797329   7.8810930
  71.2174988  11.6559086   7.2480469  71.4188461  11.0009422   8.5976629
  61.1830482  32.1067810  78.6574631  60.3703384  31.7031937  78.9621811
  60.9600945  33.0291748  78.5321350  15.6726837  57.4757347   5.2683787
  15.7878056  56.9997444   6.0908213  16.4968395  57.3459778   4.7991648
   7.0357261  48.6592789  77.1271744   6.9958191  49.4118767  76.5370636
   7.5893650  48.0259171  76.6704865   9.9884367  52.0709000  69.2048187
  10.6440773  52.6196480  68.7744217   9.7816992  52.5359612  70.0155029
  36.2260818  45.9541779  71.9048080  37.1285782  45.9056282  71.5895767
  36.1493111  46.8327065  72.2769928  19.1525040  50.0046692  74.8968964
  18.6828594  50.8325920  74.9979401  18.6322365  49.5098953  74.2638474
  13.4305735  41.4989853  72.3594818  14.1970263  41.8090363  71.8771439
  13.7252283  40.6941185  72.7856369  56.9408455  28.1012249  78.2801056
  57.7767181  28.1951962  78.7369537  57.1619835  27.6469364  77.4671173
  86.1769104  70.1711731  18.7122669  86.6112289  69.4149780  19.1069450
  85.9000092  69.8646393  17.8487873  69.4583588   7.0029345  39.1225929
  68.5544739   6.6977100  39.0447350  69.4636307   7.5355921  39.9178772
  54.2416344  31.4897079  23.6614628  53.9701500  30.8586121  24.3279800
  54.9558029  31.9781513  24.0708733  72.3130951  54.0289536  14.7140474
  71.4033051  54.2934380  14.5778008  72.3928223  53.1964798  14.2483616
  22.3876820  51.6127663   8.1200085  21.7917271  52.2882156   8.4437943
  22.6408806  51.9148788   7.2477412  55.2037086  33.7251434  19.0745049
  56.1528015  33.6137581  19.0192642  55.0858841  34.6161842  19.4037418
  45.3009071  41.3903198  18.3994312  45.7573318  42.1703491  18.0840607
  45.7892914  41.1258202  19.1790161  37.5038528  44.8536911  78.9867020
  36.8381996  45.0704994  78.3339157  37.4419060  45.5558548  79.6342773
  79.6607132  56.9014702  25.1942825  80.5566711  56.8329582  24.8644524
  79.2752762  57.6201286  24.6930809  53.5414658  37.7692070  66.0919952
  52.8234177  37.2352867  65.7520447  53.3066559  37.9328079  67.0054169
  67.8552170   3.3881104  61.4668350  67.9955215   4.2814555  61.7806549
  66.9047165   3.3091757  61.3859482  57.8118095  70.7412186  61.3043098
  57.7334404  69.8206558  61.5546379  57.4407158  71.2228851  62.0435829
  74.0592041   3.3409898  19.4382210  74.9391632   3.3390443  19.8149147
  74.1096115   2.7233837  18.7086639  64.8880920   3.3787184   8.5758457
  65.0439911   2.5363939   9.0029478  65.7244949   3.5973370   8.1649151
   9.6187925  67.5995560  28.0588036   9.3566742  67.4649811  28.9695282
   9.0212078  68.2733765  27.7346420  54.0460358  32.5671730  17.0635509
  54.0576706  32.8491516  17.9782009  53.9509811  31.6157150  17.1074333
  49.8123741   1.4673188  52.4954262  49.7493324   2.2613888  51.9646645
  49.1513138   1.5823998  53.1780586  69.2958221  47.7925606   6.5834846
  69.9977646  47.6311340   5.9530520  68.5794754  47.2273827   6.2942529
  65.6549072  35.1673431   6.3824835  64.7958984  35.2160187   6.8019667
  65.5196152  34.5980415   5.6249714   6.5047846  27.3508835  77.6327057
   7.4347110  27.3676662  77.4064636   6.0589828  27.6350746  76.8347549
  74.3324127  59.8474770  32.4304886  73.7312851  60.4449921  31.9856777
  74.3136597  60.1264229  33.3459511  47.5409508  24.1438179  38.5655022
  46.8641319  23.9771004  39.2215157  47.2217140  24.9044628  38.0799751
  47.7360306   0.1686199  74.3294449  46.8969574   0.4645333  73.9764252
  48.0273514  -0.5085219  73.7188416  81.4598999  55.8562202  78.0843658
  81.7570877  56.4232635  78.7959671  81.5009384  56.4093781  77.3042603
  59.9830704  18.1733894   3.8550966  60.4798355  17.8611603   4.6113820
  60.3868942  17.7353992   3.1058817  63.0761490  45.1474533  23.3974991
  63.0896797  44.3707657  23.9567852  62.5590401  44.8851967  22.6358891
  15.7214975  37.5110283  61.1859894  15.0144310  38.1504288  61.2723122
  16.3900623  37.9614639  60.6698875  25.6833668  56.1993484  12.9592190
  25.6416683  55.7145004  12.1349525  25.4218674  57.0902519  12.7265415
   1.1560535  23.1254711  75.2760696   1.9537826  23.6515293  75.2201843
   0.5147602  23.7057171  75.6862946  83.0176315  35.4099770  51.6639938
  82.0685577  35.5344124  51.6613121  83.2541656  35.3916054  52.5913239
  58.5426483  69.9605560  65.8379669  58.9784698  70.4726944  66.5191498
  58.3261299  70.5998688  65.1592712  13.2752438  36.9815979  79.8617554
  12.4426098  36.7731743  79.4380646  13.0367270  37.2060623  80.7611694
  46.7161293  23.8475933  73.8059082  45.9078636  23.4533310  74.1337738
  47.0673828  23.2004166  73.1943436  60.2036743  46.5503654  15.9346437
  59.7558632  46.9286232  16.6913605  61.1223335  46.7907104  16.0551777
  38.2772179  50.8437386  17.6368217  37.9375420  49.9894638  17.9034061
  37.5788193  51.4592819  17.8594818  54.5997009  69.0629120  37.7211227
  53.8328247  68.5263672  37.5205116  54.5028915  69.8363113  37.1655006
  73.4760742  34.5860291  47.2278214  74.2812042  34.2594032  46.8261719
  73.7710342  35.2542305  47.8464813  21.9002285  27.7068405   7.2197490
  21.5325985  28.5891209   7.2713480  21.3001347  27.2304993   6.6459732
  25.5155811  44.1226921  86.4141464  25.2932224  45.0264397  86.6378021
  24.8260841  43.5985184  86.8216629  62.0482635  15.0381269  43.4343376
  62.7526016  14.6436005  42.9200554  61.8872337  15.8819981  43.0122185
  44.0601616  68.4341125  32.8379211  43.4267960  68.7595215  32.1982460
  43.6118851  68.5124512  33.6800270  39.3161201  35.7404251  58.9232712
  40.1587143  35.9498901  59.3262482  39.5397530  35.1895943  58.1730690
  49.3259392   4.0088096  28.5004864  48.6824722   4.6592832  28.2192936
  49.8217812   4.4460917  29.1926975  67.4220505  58.6857071  51.6673431
  67.4194794  59.1751213  50.8447227  66.7043686  59.0654945  52.1742287
   5.3236680  62.6516953  52.5113716   5.2136579  61.7964249  52.0958672
   4.4506993  63.0436020  52.4875679  36.5181503  68.5236969  25.9028835
  36.8607407  69.1693115  25.2847900  37.2882118  68.2202835  26.3836937
  48.5758934  19.8249912  84.1990128  47.8669815  20.3910007  83.8935394
  49.1337585  19.7039738  83.4306564  82.5450058   4.3433647  35.1703148
  83.3201523   4.6115122  34.6768761  81.8246384   4.4193516  34.5445976
  23.0096340  21.5804787  85.5367889  23.6344833  22.3055649  85.5436172
  22.4353561  21.7521572  86.2830887  32.1801414  16.1951046  74.3939209
  31.7792778  16.4033298  75.2378311  32.7855453  15.4791212  74.5864868
   3.0775907  61.2113152  81.7073593   2.5362809  60.9608955  80.9586868
   3.9255753  60.8009758  81.5377121  50.1706085  13.6063938  11.9526167
  49.8971939  13.2275686  12.7880621  49.5869942  13.2083549  11.3067141
  46.2177963  17.6229095  65.3927612  45.4830284  17.9815826  65.8904572
  46.5466385  16.9055824  65.9345551  13.0343122  60.5536385  45.4049263
  13.9202023  60.8848724  45.2575684  13.0006762  60.3690262  46.3435516
   4.1877775  61.8422279   6.6985226   4.7964005  61.9282990   5.9647636
   3.8504019  60.9493637   6.6263981  29.8578033  64.5447235  67.5555267
  30.7018127  64.1558990  67.7850723  29.3974686  63.8538475  67.0790710
  39.2003975  43.0573769   4.0739837  38.3686447  43.4068489   4.3938165
  39.6948929  43.8295784   3.7993855  38.2138748  49.6219978  58.3747864
  38.5065460  50.4185410  58.8176041  37.2629547  49.6227226  58.4842377
  60.9400024  41.9879036  70.4471207  60.4484215  42.7640762  70.1785431
  60.4478149  41.6377602  71.1896744  63.3351936  57.6724930  50.2496834
  63.8617249  57.5227623  49.4644585  63.9237671  57.4658890  50.9757195
  67.2155075  23.5923443  27.2577972  67.7379837  23.6439304  26.4574242
  67.6630783  24.1723995  27.8737907  67.3746490  60.4374542  46.9593735
  66.4957962  60.2899208  47.3087807  67.7984695  59.5805435  47.0074463
  44.9448395  57.1269455  76.5659103  45.5130081  56.3756638  76.7361755
  44.0587730  56.7945557  76.7095413  50.2806511   2.0661929  84.8212891
  50.0124817   1.3316116  85.3732910  51.1031761   2.3678024  85.2069244
  83.6613312  49.9532356  16.0604687  82.9203873  50.3073425  15.5686960
  84.3047943  49.7219467  15.3906221  23.8388405  26.6169224  67.3838654
  24.3679504  27.0175266  66.6940842  23.0136299  26.3933830  66.9534073
  11.4626741  23.4604130  10.1752853  11.8293533  22.7146721   9.7002583
  10.5712318  23.1896210  10.3949089  47.9832191   0.9671800   7.1435318
  48.3347931   1.4996656   6.4300280  47.4891396   0.2747358   6.7046266
  85.8486633  68.6914673  70.0320053  85.7727509  68.0988312  69.2841721
  85.3878860  69.4841690  69.7571487  20.7968903  41.1977158  81.9239197
  20.8001041  40.2453041  81.8283234  21.6757336  41.4098358  82.2383575
  24.7186966  58.2990417  87.0161438  24.1702995  58.5906372  87.7444687
  24.4264870  57.4048462  86.8393478  30.8463249  27.8137894  44.0525436
  31.4693565  27.1372299  44.3177452  31.3622303  28.6198063  44.0323067
  28.4391270  20.4736042  16.8153572  28.3272552  20.3464260  17.7574501
  27.5470505  20.5445156  16.4756451  55.6251144  29.3019600  57.7219086
  55.9287643  29.5431232  58.5970497  55.1660271  28.4715672  57.8480606
  37.3797989  54.8639145  68.3298187  38.2777977  54.6098938  68.5426636
  37.1337662  54.2892723  67.6049118  86.5768509   5.0244102  31.8872967
  85.8912125   5.6257854  32.1779633  87.3352280   5.5857477  31.7260551
  69.4288864  64.0534286  14.1649351  68.7841568  63.9198608  13.4701538
  68.9358063  63.9304733  14.9761009  84.7879333  56.3971291  50.4024353
  85.5634995  55.9475937  50.7380600  84.0519333  55.9463959  50.8164062
   9.2341242  20.7802029  71.3990707   9.6428127  20.2117748  70.7463074
   9.9695597  21.2019215  71.8434982  85.7207413   8.0960474  14.4558134
  85.2383575   8.6385059  13.8318949  85.0744476   7.8667865  15.1236248
  64.5897827  32.0407562   1.2594016  65.0556412  31.5032940   0.6188241
  64.2262115  31.4106846   1.8815427  53.2654610  24.9790497  56.2281952
  53.8398209  25.3024044  55.5340881  52.3827362  25.1992531  55.9306412
  57.7785301  32.7736511   1.1675044  58.5211487  33.3770447   1.1933585
  57.2767181  33.0442429   0.3986126  82.5519257   3.2056661  60.0840187
  82.4419174   2.2785881  60.2953415  82.1351852   3.6681471  60.8111191
  49.2096672   2.6597428   2.0763421  49.1903114   2.2697320   2.9502692
  49.4343872   1.9333940   1.4948355   3.2123475   9.1607971  17.0660648
   2.5606303   9.3894596  16.4033356   3.0747309   9.7978277  17.7671242
  58.3172531  42.7078819  63.2084198  57.8088417  41.9935799  63.5925140
  58.7652855  43.1100807  63.9525528  29.9131107  38.8121758  64.4435501
  29.4022560  38.9394531  63.6441422  29.6552048  37.9453545  64.7571411
  19.9100571  48.4156799  24.6961899  19.1041317  48.3440208  24.1847401
  20.4658451  49.0048714  24.1861057  43.6163826  -0.1893983  45.5635300
  42.7268524   0.1587622  45.6247749  44.1565208   0.4506006  46.0270844
   4.9961219  50.7327080  57.8959503   5.7015901  50.2748108  57.4389229
   4.4074521  51.0221901  57.1988869  43.3254204  48.8820915  42.3731155
  44.2179794  48.8172073  42.7127609  42.7917595  49.0895996  43.1401749
  67.6635132  49.2144585  47.1425743  67.3129044  48.3271446  47.0652580
  67.7106094  49.5327797  46.2410851  55.7439957  43.0279541  34.1396255
  56.6730194  43.1731758  33.9605904  55.7339745  42.4860268  34.9285812
  70.9336624  70.8602219  48.1703033  71.2623596  71.1957245  47.3362579
  70.9217148  71.6236649  48.7475739  71.9172440  27.9288712  75.9347153
  72.3654327  27.3145294  75.3533859  72.1630402  27.6474552  76.8159790
  22.9189587  46.5267067  67.8833694  23.7199326  46.7559204  68.3546753
  23.2233410  46.2164612  67.0305328  61.6844215  49.7022400  25.3580036
  62.3857994  50.0087204  25.9327812  60.9585075  49.5052071  25.9499989
  11.6528330   5.6535645  61.5827675  10.9670210   5.7253671  62.2466469
  11.9944935   4.7654471  61.6864357  25.6122837  70.7223663   4.6680775
  25.8250141  70.7741394   5.5999026  26.0904884  69.9543381   4.3555408
  53.6906281  46.9702950  35.2506180  53.0024567  46.7539406  35.8797760
  53.5409317  46.3735886  34.5172958  23.6495075  20.2393780  46.9555054
  23.9393711  19.9840240  47.8312950  23.8974056  19.5026836  46.3968849
  79.3023453  48.5232773  56.4753609  78.9603424  49.0762672  57.1778336
  79.6427612  49.1411247  55.8283577  33.8128815  27.9190083  75.3613205
  34.1525230  28.2199783  74.5185318  32.9493752  27.5599804  75.1571350
  73.7881927  33.6997223  22.4109135  73.9859467  34.0671501  21.5494480
  72.9277954  33.2935143  22.3062801  22.4669704  36.7852821  70.4141388
  21.5949059  36.3913689  70.3903503  22.6983166  36.7990456  71.3428574
   5.0457540  67.3086090  83.1892929   4.6692910  67.7342377  83.9595871
   5.6581621  67.9532166  82.8347855  26.7173080  49.3940964  12.7177639
  27.3394146  49.7521973  12.0845337  26.9699192  48.4752884  12.8083906
  72.1679382   0.3185170  73.5564804  71.9344406   0.3332509  74.4846497
  72.4387283   1.2160709  73.3633499  44.1625862  56.0936203  29.6837368
  45.0181351  56.0238113  30.1072865  43.9422722  55.1947556  29.4393253
   7.0840344  15.2373285   8.0591803   6.1498132  15.3059721   7.8623276
   7.1394563  15.3668480   9.0059557  55.0641212   7.9233885  12.2881708
  55.9649391   7.8838882  12.6094170  55.1210175   7.6298428  11.3788710
  78.2541962   7.6208706  86.9780807  78.4912643   7.6381345  86.0508575
  77.9620056   6.7227764  87.1339035  72.7584000  44.8891907  88.5516968
  73.3686676  45.3312569  89.1419296  73.0244370  43.9700432  88.5766144
  10.6510124  36.2330780  75.9506454  10.9425020  36.2346916  75.0389099
   9.7696962  36.6054153  75.9209976   6.6860704  45.3287086  61.5223541
   6.0391893  45.7191658  60.9347153   6.8251696  44.4479942  61.1741791
   2.2033510  18.6990452  12.0158367   2.7792819  18.3988819  11.3126736
   1.3224945  18.6388321  11.6461086  12.2829123  47.1686287  84.7638474
  11.9004450  46.8369598  85.5762177  12.8014746  47.9261131  85.0350342
   3.2818151  63.1818695  86.5879822   3.0243130  62.8750420  85.7186203
   2.8958478  64.0550156  86.6578522  12.4162169   6.2993345  68.7272110
  13.1945572   6.8560247  68.7045364  12.1769705   6.1845589  67.8075256
  86.6322937   4.5900750  58.4321976  86.2873917   3.7510033  58.1268539
  86.2452621   4.7066455  59.2998657   1.5836767   5.4897504   2.8755589
   1.6284065   6.0991445   3.6123557   2.1366467   5.8866496   2.2025604
   8.1939335  32.1762161  67.1891479   8.0926476  33.0613518  67.5391617
   7.9315977  32.2500343  66.2715607  70.5458145  54.5364189  11.1919155
  70.4032593  55.4771919  11.0877247  70.3127213  54.3583107  12.1030540
  52.9226494  40.8516655  55.4461937  52.8727798  41.6701775  55.9399338
  53.1898918  41.1184273  54.5666199  23.6791115  23.2529469  53.2476234
  23.7907810  23.7462692  52.4349785  23.4578056  23.9158192  53.9017334
  85.3926468  25.7607555  46.4040146  85.1471863  25.3296318  47.2226219
  84.9576340  25.2474575  45.7231903   3.1971209  38.0276489  43.3051834
   3.9433019  37.4969063  43.5840340   2.9128304  37.6280365  42.4831619
  54.8622398  33.1515121  58.4903526  55.0296364  33.0894012  57.5499496
  54.4271812  32.3279686  58.7110939  65.4948502   0.7648331  45.5104980
  64.6718216   0.9678589  45.9550591  65.9464569   0.1654113  46.1046181
  18.2847481  16.5247269  59.7889290  19.1234055  16.7481747  59.3852463
  17.8021812  16.0666847  59.1007729  58.2227783  32.8824234  59.8573265
  58.1616440  33.4571152  59.0942879  58.4203148  33.4714012  60.5855522
  55.3267975  64.3042679  89.1654434  55.1201668  64.9957733  89.7942200
  55.5665359  64.7718658  88.3653717  64.7345200  13.7785864  85.6978836
  65.6532135  13.9761868  85.5156860  64.7629089  13.0030851  86.2582626
  17.9759712   1.8454698  61.3153114  17.6535473   1.2924871  60.6036339
  18.9290390   1.7766578  61.2591362  39.0895691  51.6146088   9.3103876
  38.1603699  51.6132011   9.0805531  39.1572914  52.2418594  10.0302505
  33.5164452  70.1990509  85.9481964  33.1986160  70.1301880  86.8484573
  33.0566902  70.9580231  85.5892792  18.0752010  24.7152824  84.1189728
  18.6855888  24.7168007  84.8563080  18.6361752  24.7339344  83.3436127
   3.6722975  51.8923531  20.9598808   3.6169088  51.5675621  20.0611744
   3.4182723  51.1446571  21.5008564  18.5405884  26.3072243   3.0088706
  19.1662636  26.2439117   2.2872388  17.7382221  26.6344090   2.6021872
  77.5591431  54.3797150  69.5916595  77.0615616  53.9828377  68.8767319
  77.1921768  55.2594109  69.6794052  49.0487938  15.7433157  81.7431793
  49.0219765  16.6959820  81.8322906  49.5605278  15.5913839  80.9486542
  30.5160065  36.7261963  15.5459604  31.0775414  37.4716339  15.3332844
  31.0804367  36.1358833  16.0451393  56.6528625  39.0123444  23.0897560
  56.1078796  38.8281136  22.3247204  56.6564445  39.9671745  23.1569462
  53.7805519  47.1259956  83.5843506  53.3051109  47.9561234  83.6170883
  54.6864166  47.3758240  83.4020538  11.1056957  40.3174515  62.4829559
  10.9756222  40.0178337  61.5832138  10.9702358  41.2641373  62.4420929
  15.3845673  39.8585434  44.8987732  15.2903605  39.4169388  45.7427750
  14.5999517  39.6105309  44.4097939  62.8129196  68.1571884  55.1428566
  63.4093246  68.5876999  55.7553864  63.1980362  68.3170242  54.2812500
  36.4799843  52.2754135  14.0567007  35.8567657  52.9167671  14.3980188
  36.5469017  52.4794083  13.1238871  56.4929008  44.6160927  18.2875156
  55.7027740  44.3538589  17.8151131  56.6776657  45.5009270  17.9726162
  25.9898739  68.2336044  67.4865036  25.5397377  67.7004013  68.1417160
  26.8315048  68.4477234  67.8890533   9.7947054  40.5705299   9.1131544
  10.4271851  39.8820610   9.3186140  10.3289976  41.3518486   8.9706678
  67.1541214  67.0625153  73.2858124  67.8152924  67.7481232  73.3808899
  66.3808365  67.4124908  73.7282715  44.3704376  48.3650398  33.9543953
  44.8597794  47.5459442  33.8778343  44.0356827  48.5273819  33.0724564
  16.9988251  37.0780182  72.5416870  16.4695988  37.4337578  71.8278198
  17.6058331  37.7837868  72.7645340   4.8916831  25.6937504  26.4140339
   5.0335116  26.6213055  26.2249432   5.4879751  25.5030174  27.1381111
  47.9722481  47.9732437  42.2012634  48.7659760  48.3991623  41.8775101
  47.3628654  48.0101967  41.4640274  41.6601944  31.1192684  26.8741951
  42.3146973  30.9866619  26.1884308  41.0853386  31.8017941  26.5278778
  49.1749916  13.8702583   5.5774732  48.6413002  14.6644840   5.6021700
  49.2905273  13.6306438   6.4969664  48.6215210  45.2649841  28.1783104
  49.2288055  45.2742615  28.9181442  48.1138039  44.4620056  28.2952518
  38.4649544  33.4772835  20.1042194  37.6044159  33.1470680  19.8460236
  38.7898903  33.9322662  19.3272781  22.3488102  11.5245571  89.0848007
  21.8800602  11.4455261  88.2539825  23.2406387  11.7659626  88.8346024
   0.9763420   8.9727297   2.9435515   0.0915441   8.6076670   2.9532187
   1.5222297   8.2879028   3.3298812  77.4732971  64.3884659  27.0520115
  77.1324692  65.0958252  27.5994644  77.8362350  63.7578659  27.6739845
  59.3230057  23.0368271  17.6138802  58.5424500  22.5282230  17.8336105
  59.8533096  22.4437809  17.0816174  27.9349003  64.0014572  46.3812675
  28.6668720  63.8044586  45.7967644  28.0743294  63.4339523  47.1393776
  69.9531250  37.4002647  58.7541046  69.7544556  37.1454544  57.8530846
  70.7965088  37.8491707  58.6956444  73.1215668  52.2631378   2.3584678
  74.0617599  52.2106285   2.5302701  72.9908600  51.7279015   1.5757372
  47.6581421  67.3208923  46.4710846  48.1049309  66.4992065  46.6746521
  47.6041222  67.3337860  45.5154953  41.8981934  56.6258736  21.0635548
  41.2600899  56.4999237  20.3612766  42.1481514  55.7387619  21.3219929
  38.4421883  49.4349098  44.9958839  39.2260513  49.7550430  45.4423256
  38.3101768  48.5538483  45.3459282  23.2314453  12.0870180  11.9507208
  23.0777836  12.9723969  11.6209869  22.4766922  11.5834904  11.6456995
   2.8762312  54.4497566  86.9411240   2.5471885  55.0092163  86.2375793
   2.2282410  54.5378532  87.6401062  55.9357796   2.1279869  65.3535614
  55.7139359   1.8854325  66.2525558  56.7710228   2.5893841  65.4291458
  66.5273743  41.3842125  37.0251923  66.5553970  40.9863815  37.8953514
  67.4458466  41.5314178  36.7994423  31.7684860  34.8107643  87.3989563
  31.3717690  34.4188118  86.6209946  32.6463890  35.0673637  87.1166840
  42.0396309  63.2031937  81.5441742  42.1626625  64.1400223  81.6973267
  41.3844719  63.1583595  80.8477631  86.5067596  13.9039507  28.7186947
  87.3516388  13.6997156  29.1195679  85.9102631  13.2408381  29.0661240
  81.9392548  59.9982567  29.9662018  82.1639633  59.1483498  30.3448753
  81.0453415  59.8873749  29.6423759  58.7953453  10.7465239  82.7502747
  58.1251297  11.3589268  82.4469528  59.1196136  11.1305294  83.5649033
  43.3610916  35.3887672  48.4670181  44.1009140  35.7637825  48.9447784
  43.4899254  34.4424057  48.5304947  38.5652771  34.8165092  10.3843670
  38.3141174  35.6858177  10.6965380  38.0163765  34.2139664  10.8862457
  35.6057129   1.2912349  50.4176865  35.5442352   1.9167149  49.6957283
  35.7484055   0.4463195  49.9910851   0.9657040  21.3559151  44.9544983
   0.4209429  20.8700237  45.5736694   0.5527892  21.2067909  44.1039124
  76.1364288  33.1171188  46.1940689  76.7076492  33.4199219  46.8999367
  75.7649307  33.9188309  45.8259964  18.5711250  21.4592838   5.5870256
  19.2228432  20.7648621   5.4907246  18.9151802  22.0153885   6.2860298
  47.0874481  34.7731361  62.6608124  46.3558350  35.0947685  62.1340065
  47.0013542  33.8202019  62.6337700  17.3847122  59.9081993  12.6729059
  17.3574047  59.0105133  12.3417807  18.2531910  60.2275276  12.4279470
   1.6312881  33.5524063   9.2656603   1.1711626  32.7170334   9.1840143
   1.5238025  33.9695930   8.4108887  71.4514542  57.5713425  57.6278954
  70.8269348  56.9186592  57.3113174  71.6933212  57.2669182  58.5025711
  56.7387733  16.4060307  82.3738861  57.0761833  15.9271421  83.1308899
  56.1467056  15.7886248  81.9443512  58.1159706  22.6131649  34.6140747
  58.1849976  21.8989735  33.9805145  57.2668991  23.0150986  34.4303436
  64.7041245   0.9243098  71.4666595  64.6269455   0.6075093  70.5667114
  65.4990158   0.5079178  71.7998199  71.4563980  30.6041832  18.2289429
  70.5496597  30.8270473  18.4396515  71.9274673  30.7107029  19.0553665
   1.2283710  53.5461197   9.6774120   1.1603967  53.4693909   8.7257166
   1.5699365  52.6985168   9.9622498  83.4998627  24.7030716  77.2199326
  83.8877945  24.1911736  77.9296570  82.6543961  24.9893761  77.5655441
  16.2785625  55.6483040  58.5751610  15.5774403  55.1960793  59.0443649
  16.6465130  56.2531738  59.2193489  45.6225510   0.8626370  53.8261490
  46.4122543   0.3346902  53.7083702  44.9359512   0.3702203  53.3763313
  10.5307035  18.0479889  15.2894239   9.7447634  17.7253342  14.8484888
  10.5808029  17.5345955  16.0957413  26.5271263  67.8257446  64.7220840
  26.5981007  68.0830994  65.6413040  26.5508862  66.8689804  64.7387161
  46.2942467  69.5413818  21.8375549  45.5392036  68.9717789  21.9848366
  46.7692070  69.1278915  21.1166706  19.5256500  57.3644829  61.8434029
  20.3690186  57.0799599  61.4912529  18.8845158  56.7931786  61.4205704
  52.6318817   8.3426132   7.7897129  53.4999466   8.5127974   7.4240203
  52.7357407   8.4868011   8.7302742  43.8251991   4.6326709  74.1080017
  44.4613304   4.1481681  74.6341400  43.3332787   5.1513023  74.7446060
  25.0169525  27.9029713  75.3768463  24.7795963  28.3775253  74.5801697
  25.1933403  27.0101433  75.0802383  22.7505074  66.5282211  37.9886017
  23.3910294  66.2417984  38.6396980  23.0544758  66.1416245  37.1673965
  48.1807709  54.1599731  66.9953766  48.8852577  53.7960625  66.4591904
  47.3797798  53.9406166  66.5194244  67.0833206  28.9513950  35.0689545
  66.3111801  29.0366898  34.5097122  67.4908600  29.8172588  35.0482788
   1.6906601  14.1935768  58.8764610   2.2461424  14.0205383  59.6365433
   0.8031781  14.2344971  59.2327385  81.2378845  58.9210739   7.7366490
  82.1131287  59.3018990   7.8084006  80.6745605  59.6581650   7.5008545
   3.7663834  16.9458008  33.8471413   4.0711608  16.0625801  34.0551414
   4.5517063  17.4899979  33.9050140  34.3555679  62.8215408  55.1769753
  34.7624130  63.1246643  55.9886589  34.3019562  63.6045265  54.6289864
  50.3673325  30.2769299  24.6511459  49.9955788  29.7688923  23.9300842
  50.3747482  31.1786098  24.3299751  82.8246613  62.7069473  55.0976791
  81.8710861  62.6243210  55.0877533  82.9885941  63.6186714  54.8565979
   1.2069070  70.5720978  66.7843094   0.5355663  70.0394821  66.3578644
   1.0778490  71.4508896  66.4275208  17.8910103  36.1074409  78.1945877
  17.6849976  36.7509575  77.5165863  18.8228722  36.2360077  78.3716049
  36.3117142  31.3413048  14.0191031  35.7882843  31.5711098  14.7868528
  36.5800133  30.4357052  14.1744719   3.1404579  57.9346695  61.2198257
   2.6347415  57.1221886  61.2387199   2.8126907  58.4030037  60.4520607
   9.7289371  30.2779408  65.0221024  10.3298683  30.8193035  65.5340042
   8.8940573  30.7445278  65.0608826  62.8009834  48.5245934  28.3463669
  62.7170792  48.1394653  27.4740906  61.9039154  48.5644302  28.6778984
  29.3531570   0.5885988  56.7557526  29.8960876   1.0109051  57.4214249
  29.3399372   1.2100726  56.0278625  11.1073389  30.0835705  76.6555634
  10.7137384  30.2604446  75.8011475  11.6060705  30.8751011  76.8579941
  78.9300079  60.8473206  62.0095024  78.8505936  59.9578629  62.3541679
  78.0943604  61.0101471  61.5719910  66.0454712  50.7792511  33.9998207
  65.9339294  51.3446465  34.7640953  66.9915466  50.6495171  33.9338989
  45.4915237   4.4938779  83.9440002  45.6785851   5.1763520  83.2994308
  44.5385857   4.4049168  83.9289398   0.3673596  19.4279556  36.6781998
   0.6021641  18.5852261  36.2897339   1.1183478  19.9929790  36.4965515
  57.2701073  31.5529652  86.8522873  58.2060814  31.7509956  86.8834152
  56.8450394  32.3576927  87.1488724   1.1039894  59.1833992  85.1208954
   1.0016702  58.8153610  84.2432251   2.0426531  59.1225357  85.2982025
  45.9325905  36.0977554  74.2000809  46.0800438  36.0963783  75.1458511
  46.5122185  36.7834587  73.8683014  36.3523254  67.6357422  21.0559025
  36.0513878  67.6473160  20.1473122  36.1433640  66.7546768  21.3662090
  41.4850807  22.1778240  70.0588608  40.8233109  22.1085777  69.3707504
  41.5361443  21.2976170  70.4315033  31.8771839  33.2588577  84.7870941
  31.2634830  32.5666275  84.5412827  31.8850784  33.8502884  84.0345078
  69.7742996  51.5566292  55.6268578  70.1446762  52.0649681  56.3484116
  69.9789200  50.6472931  55.8447266  18.3822231  47.6798668  60.1194382
  17.9247799  48.3066750  60.6798744  18.9748020  48.2168846  59.5934219
  71.5344696  45.8680496  28.4512424  72.0090027  46.5944977  28.0471020
  70.8626862  45.6348228  27.8105068  77.0243149  34.8874817  76.6674957
  76.5332794  35.6846886  76.4685593  77.8975220  35.1976166  76.9074020
   8.9399729  49.8574524  33.9869843   9.5928688  49.3127556  34.4266052
   9.1380281  50.7484512  34.2753067  29.7770348  69.9774780  28.3726540
  29.9187946  69.7151794  29.2822323  30.4938469  70.5829849  28.1835003
  39.4248199  55.4260826  27.3389263  40.0909309  54.8907700  26.9076843
  39.8119202  56.3003998  27.3831673  31.2957973  51.7698441  64.5238113
  31.4039555  50.9444427  64.0513229  31.2675133  51.5158501  65.4462662
  84.5632706  45.2265968  45.1395187  85.4239349  45.2520676  44.7213669
  83.9466171  45.1360321  44.4130440  41.1188927  52.2999344   4.4203806
  40.8759422  53.2245560   4.3726373  41.4001732  52.1726761   5.3264260
  74.1071167  51.3551903  67.9345703  74.1600113  51.1501122  67.0010986
  74.3952866  50.5542793  68.3724518  23.3034191  56.8868599   7.1842237
  22.5594597  57.4891510   7.1841874  23.0246544  56.1618462   6.6248708
  76.2388992  56.2579575  77.3244858  75.4062958  55.7895393  77.2644958
  76.2911148  56.5375252  78.2384567  34.6508179  64.5852890  27.7873955
  34.3952370  65.1551590  28.5127640  34.6858253  63.7093773  28.1718121
   7.4272962   6.1856456  83.9730453   7.5310702   6.9148145  84.5844193
   7.8973331   6.4635139  83.1868591  57.3917732  17.6352425  63.0966454
  58.2192535  18.1161575  63.0815430  57.5502434  16.8685589  62.5459061
  43.6341820  12.4514418  74.1783905  43.9657021  12.8153105  73.3574677
  44.4196205  12.1898699  74.6589127   0.3962650  65.1067047  49.7113342
   0.9061458  64.5992432  50.3427925   0.2366121  64.4992447  48.9890175
  37.3582039  58.5558167  71.4887238  37.8388290  58.0459061  70.8366241
  36.4461098  58.2874336  71.3778992  67.7495193  43.7902489   9.1693115
  66.9049530  44.1138763   9.4826918  68.3623581  43.9981918   9.8745956
  45.5195007  70.2387924   0.5421816  44.7011490  70.0927429   0.0676294
  45.4236298  71.1122437   0.9218076  40.6007233  59.3322678  77.3471680
  41.4335747  59.7898827  77.2323761  40.7524986  58.4623718  76.9777374
  64.8179016  52.5803642  69.4621735  64.1945038  53.2059937  69.0931168
  64.4237671  51.7238312  69.2971191  64.9838104  20.4881668   4.6078315
  64.8912582  21.3127117   5.0851068  64.2953415  19.9266319   4.9640837
  78.8041763   6.0920415  72.5732193  78.9112473   5.1448722  72.6606140
  78.1650391   6.3240066  73.2469635   7.4436431  33.2674179   6.4532962
   7.8826222  33.2759895   7.3038583   8.1298790  33.4984741   5.8272576
  31.4748669  53.7260437  43.7238998  31.7919121  52.8360977  43.5699196
  31.1070232  53.9980888  42.8831177  66.8079300  57.4672928  30.8269291
  66.0224380  57.0965691  31.2291698  67.0211029  58.2250023  31.3716011
   5.6931710  55.7284660  28.7924385   5.6670737  55.0916100  28.0783234
   6.2360568  55.3141441  29.4631424  54.6108398  48.1844864  61.9692078
  54.9071579  49.0616379  62.2121735  55.0484085  48.0058670  61.1368256
  40.3192101  63.0730743  57.4255371  40.2328377  62.1203156  57.3935318
  40.3207664  63.2821808  58.3596191  35.5654411  17.6786747  21.5103760
  36.3792610  17.6641808  22.0140820  35.7785378  18.1833801  20.7254581
  46.8891525  21.0646477  18.5685177  47.6569748  20.4940948  18.6024094
  46.1547470  20.4911575  18.7875900  84.3512115  31.6052132  62.3382721
  85.2851791  31.4365997  62.4628258  84.3190002  32.3032112  61.6840630
  42.2349167  33.2351875  68.6587372  42.5330925  32.5260429  69.2283325
  42.2144051  34.0057106  69.2262802  26.5262966   4.8884339  51.9411812
  25.6589127   4.6060963  52.2312927  26.3729553   5.2952995  51.0884361
   4.7764845   9.4516335  80.1179504   3.9614844   9.8237829  80.4548721
   4.8709755   8.6207905  80.5837860  54.1697273  47.4071312  52.0438271
  54.3829346  47.5561752  51.1226540  53.3520470  46.9099426  52.0230103
  75.5428162   8.2564049  41.3903618  75.2139740   7.5697722  41.9705582
  74.9839478   9.0118656  41.5725098   8.7824802  60.4021111  50.0449524
   9.5370493  60.2405701  50.6113129   9.1561909  60.4943314  49.1685562
  56.9421844  47.4978523  17.4160366  56.1964798  48.0205383  17.7109184
  57.1160126  47.8085175  16.5274963  37.9409065  51.0256310  74.5566254
  37.1765976  51.0240288  73.9803848  38.0342369  50.1140289  74.8332214
  12.3969078  69.0059891  69.9380569  11.4424782  69.0739899  69.9639893
  12.6787395  69.2545395  70.8184128  80.5863419  50.3027191  67.5941391
  80.2404861  49.7837143  66.8680191  79.8901978  50.9285049  67.7941666
  68.9884567  17.0014000  57.8571625  68.7879333  17.1728706  58.7772827
  68.2395706  17.3568401  57.3785553   4.3684778   7.0101628  81.3047638
   5.0018144   6.4075465  81.6946030   3.8816044   6.4740214  80.6788788
  13.0091515  21.3421516  28.7574177  13.0046511  21.6299095  29.6703300
  12.1190872  21.5113506  28.4485664  15.0170193  68.8302994  87.9911041
  14.4834986  69.1771393  88.7061539  14.9965639  69.5153885  87.3229218
   0.3642900  17.6641560  22.5329685   0.1727618  18.0322151  21.6703682
  -0.2172560  18.1359367  23.1291733  51.7304039  50.4713135  19.4823837
  52.2659264  51.1679688  19.8620167  51.8756104  49.7183914  20.0553226
  44.2979431  47.5889359  22.1332684  43.4920692  47.2284737  22.5032158
  44.3459778  48.4780617  22.4845200  85.1844330  53.7394676  68.3614807
  86.1332474  53.8655090  68.3518753  84.8641205  54.3801613  68.9964142
  17.9156780  50.3419228  55.5148239  16.9590378  50.3481331  55.4827003
  18.1731110  51.1880760  55.1487846  67.7557220  33.2407150  68.4314270
  67.6466064  34.1067238  68.8243103  68.4433289  33.3598480  67.7762680
   7.7498970  43.0211563  65.0872269   7.0721202  43.5257034  64.6374664
   7.4833670  42.1086884  64.9749985  76.3391113  26.6293716  84.9181976
  76.8430023  25.8838730  85.2446289  75.4402847  26.4502964  85.1943817
  34.0335808  50.2279091  44.6535645  34.9884033  50.2305298  44.5861626
  33.8305283  50.9814720  45.2077713  53.1765137  62.3007774  17.8851604
  52.7973404  62.0558968  17.0410671  52.6674156  61.8076706  18.5285110
  68.4477997  35.3310814  65.9491119  67.9146500  34.6924057  65.4757462
  69.3363724  35.1906776  65.6220779  18.0530605  61.5300179  37.1748924
  17.2912884  61.6450615  37.7429619  17.6986313  61.1428871  36.3744278
  14.8906851  43.3656120   8.1266298  15.3508415  43.6859741   7.3508353
  15.3887072  43.7192917   8.8635950  22.0662308  44.6747284  81.3404922
  21.6252384  44.4662781  82.1640854  22.7726116  45.2701111  81.5910492
  71.9821854  15.3060331  83.3202133  72.8310623  15.0688601  83.6935501
  71.9403992  14.8235083  82.4945908  35.4978981  48.3939896  76.8488617
  36.4417191  48.4329758  77.0034943  35.4027596  48.5459976  75.9086151
  32.0239601  71.5427475  19.5092831  31.2038059  71.9256592  19.8206673
  31.7808437  70.6666336  19.2100430  60.7846718  61.0311546  43.3807106
  59.9472771  61.3452377  43.7218170  61.0864830  61.7326469  42.8036041
  44.3988342  32.1512985  78.4435272  43.5671425  31.8601837  78.8173828
  45.0656929  31.7338734  78.9887619  57.2766609  62.6291542  30.7729034
  57.3716354  62.4998779  29.8292389  58.1733170  62.7305946  31.0921974
  38.3833656  41.0881920  71.0404892  37.7297211  41.7874527  71.0370560
  39.0789375  41.4077110  70.4657516  71.6452179  29.0635586   5.9371114
  71.2524109  29.8645344   5.5901637  71.0456085  28.7826996   6.6283607
  84.0945511  68.8367996  12.5464001  83.7155838  68.6575089  13.4069061
  84.1523972  67.9785080  12.1266222   4.6811342  12.9062262  21.9293003
   5.3368239  12.2369890  21.7332764   4.0355659  12.8218212  21.2276249
  14.4870777  15.8084993  22.8320999  13.8856916  15.1255159  23.1289177
  13.9203634  16.4726639  22.4397335  19.9770718  53.5194359  49.3764915
  19.1203327  53.0938683  49.3429756  19.7797108  54.4433670  49.5302162
  74.7886734  21.4260578   8.0765896  75.1757965  22.0603886   7.4732718
  75.4397507  20.7272263   8.1395998   5.8394322  37.1702919  20.0923214
   6.2372046  37.0033455  20.9468021   5.7472506  36.3031921  19.6975174
  10.1927824  39.3928299  22.5372276  10.4737158  39.2078934  23.4333897
  10.1348066  38.5323296  22.1220036  78.6009140   5.6100264  21.5958939
  79.4842682   5.6117311  21.2272377  78.4204788   4.6884241  21.7811623
  27.1007977   5.2002206  11.7357264  27.4085732   4.6288614  11.0321255
  27.8896809   5.4117398  12.2348814  46.6527786  11.2821884  43.1551018
  46.9944458  10.4685631  43.5259285  47.3347206  11.5747538  42.5504570
  30.0303307   1.2022483  74.4586334  29.9427490   2.0690649  74.0621643
  29.3437939   1.1731879  75.1250076  48.0489159  14.3764744  27.2231197
  47.9837074  15.3184509  27.0660858  48.6307373  14.2994261  27.9792824
  28.0342674  47.7031059  28.5436001  27.8832626  48.5079269  28.0479240
  28.2646999  47.0528259  27.8800735  39.5738297  51.5430336  47.3518181
  39.8059425  51.0025597  48.1069641  40.4122314  51.7513466  46.9396095
  23.3427238   3.3589227  75.6018066  23.9632893   2.6442866  75.7447205
  22.8414822   3.4072661  76.4158401  64.8321686  10.6697779  20.9130878
  65.6446838  10.5057402  21.3917789  64.4532318  11.4378347  21.3405514
  70.6647186  11.9399042  52.8963737  69.8009338  11.9400940  53.3088264
  70.6901932  11.1253710  52.3942604  31.4524574  10.3037291   0.2859985
  32.2632027   9.8852568   0.5754916  31.7367020  11.1256227  -0.1139101
  41.3974876  55.6194382   0.3546594  40.9690475  54.9099159   0.8334556
  41.0825081  56.4182281   0.7776910  33.1761818  62.9182816  13.8525867
  33.6907501  62.2978363  14.3688240  32.5790329  62.3695107  13.3441610
   9.5018110  45.8569107  28.8460598   9.5291233  46.7458229  28.4920559
  10.4187632  45.6355896  29.0086784   0.2963253  59.8743477   7.6799903
   0.6404430  60.7346916   7.4399457   1.0282673  59.4362755   8.1142569
  25.1549950  52.9145546  84.4931335  25.4345264  53.7356834  84.8979111
  24.4818211  53.1745224  83.8642578  85.1183319  14.1457005  62.2709122
  84.5862198  14.2524166  61.4824333  84.6852798  13.4454784  62.7591553
  42.3477364  36.7529640   5.1164021  42.0287285  36.1726227   4.4252682
  43.1720200  36.3574028   5.3998041  14.6663494  49.2174187  20.1360359
  14.1650276  48.4106483  20.2544937  15.1955452  49.0579987  19.3545189
  47.5495148  28.4361801  19.2043896  47.7270508  27.8207283  19.9156780
  46.6294708  28.6745949  19.3180008  78.4229813  58.4312973  35.5503807
  78.9641495  58.0250587  34.8733711  77.7295914  58.8793335  35.0659103
  10.3084526  63.8548660  58.5559998   9.7069330  63.1168785  58.6548958
   9.8006506  64.6168060  58.8349533   2.5652044  55.8306618  79.7575684
   2.5524049  56.5389366  80.4013138   2.2479482  55.0653954  80.2370987
  63.3064308  45.8709641   9.2060623  62.9567299  46.7503166   9.0622644
  63.0680885  45.3862419   8.4158278  73.8835754  69.4877243  45.3420219
  74.4853745  68.8297653  44.9939423  73.0182571  69.1971054  45.0539474
  36.2829590  30.9239922  10.3943510  36.5288696  30.0808010  10.7748585
  37.1124535  31.3895359  10.2873907  57.8239937  56.7733002  32.2165642
  57.7068291  57.5336151  31.6469822  57.3835144  57.0143776  33.0314827
  49.8185577  23.3151455  49.0047569  49.7746048  22.4655151  48.5660896
  50.4091988  23.1725559  49.7443810  29.1292076   5.6014190  59.8377533
  29.5421658   5.5152540  58.9785271  29.3145103   6.5021844  60.1033020
   8.0447855  21.8236217  60.3649216   7.7138658  22.5196419  60.9326210
   7.6762080  22.0212574  59.5039215  21.7601566   2.9585645  21.9704323
  21.3075294   3.7876451  22.1253014  21.2729931   2.3190331  22.4899521
  13.4479227  64.7824402  46.4476089  13.1890068  64.7896423  45.5261192
  12.7074871  64.3797607  46.9012985  32.6829834  35.2154999  61.8163910
  32.0670471  34.4929619  61.9380226  33.5360870  34.7905960  61.7274780
  56.7543373  34.2440338  55.7508621  57.5163994  34.2975159  56.3276024
  56.6903801  35.1141739  55.3571701  78.5395279  25.8655014  43.3837318
  77.9878540  25.3908253  44.0054817  78.2306824  26.7702389  43.4316864
  48.3466682  59.6982613  62.6926308  48.6787758  59.2046738  61.9427605
  47.5971413  60.1831741  62.3472214  24.5893440  29.1078148  88.1735764
  24.3020935  29.9181633  87.7528000  23.7774887  28.6694889  88.4285126
  80.9763947  49.6348801  37.1403084  80.5293045  50.0834656  36.4225960
  81.0335312  50.2914276  37.8345070  10.5071335  38.5724602  66.3126526
  10.0994911  38.2025681  67.0957489  11.2479029  39.0794640  66.6449814
  12.6433754  54.9021759  34.9996872  12.6499186  54.3640900  35.7913017
  13.2386980  55.6253624  35.1967239   0.7645034  68.1383514  49.3351707
   0.6731620  68.9836731  49.7748566   0.4292659  67.5022659  49.9670258
   7.1154981   1.6112933  52.4574432   6.9029999   0.7503034  52.0972023
   7.4574671   1.4271274  53.3322983  24.8307705  33.3271980  70.7096481
  24.2017097  33.6932526  71.3313522  24.3694992  32.5911484  70.3075333
  40.1423721  14.1581573   3.7037663  39.9663963  14.5688772   2.8572600
  41.0457077  14.4023161   3.9052732  67.9977417  52.3632698  65.4933090
  67.2493362  51.7705116  65.4243774  67.6195679  53.1939926  65.7816086
  45.8320808  13.1125469  82.7887955  45.4363365  12.2410145  82.7817154
  45.5843124  13.4949484  81.9470062  71.7512894   9.5598669  58.9792442
  72.1229019   8.8979464  59.5623398  70.9853668   9.1355553  58.5925140
  12.9546642  15.6847582  18.1736221  12.2394819  16.2042751  18.5408401
  12.8881416  15.8200331  17.2283669  56.1902809   3.7411354  30.8684349
  57.0905037   3.6720679  30.5505352  55.8474808   2.8491659  30.8126640
  36.5139580  69.4908524   9.0241175  35.9176979  69.5776749   8.2803669
  37.2235718  68.9369049   8.6988068  85.4196320  29.3341484  47.9021263
  85.5226059  29.8013039  48.7312164  84.4728394  29.2441845  47.7938919
  15.5507774  40.3237228  76.3796844  16.3291245  40.7223129  76.7689590
  14.8244829  40.6449394  76.9140549  80.3938141  64.2401428  88.1464920
  79.4596863  64.2666931  87.9392929  80.6429977  63.3257256  88.0123901
   7.1824551  58.8224869  78.7261353   7.4464412  59.2236557  77.8981247
   6.7627807  58.0008545  78.4711380  29.8673058  14.5918579  69.9444733
  29.3911095  14.8745594  70.7252121  30.0949459  13.6788883  70.1202545
  56.4610825  17.6910934  41.7048378  57.1458015  17.2780762  41.1787109
  55.7499237  17.8558826  41.0856972  81.6665955  37.3168907  67.6708298
  82.4751816  37.2772484  68.1815720  81.8584137  36.8140450  66.8792572
  66.8013535  16.6059666  62.1356773  66.9770660  16.2766895  63.0171165
  67.3178864  17.4093781  62.0727386  64.4508438  43.3120384  21.1120796
  63.5271187  43.4729347  21.3046284  64.6507416  42.4927940  21.5649700
  77.2386932   5.3632693  41.5784264  76.4111557   4.9210172  41.3891335
  76.9800415   6.2057481  41.9520035  40.6111488  17.0776863  72.5005112
  41.1712265  16.5143070  73.0345078  40.2992744  16.5080585  71.7973099
  51.8981400  37.1498718  19.8052177  51.9383926  38.0926361  19.6445694
  52.2079849  37.0467873  20.7049961  61.8831940  69.5636139  11.3438740
  61.2671471  70.2940674  11.2877054  62.1958046  69.4444351  10.4470444
  78.6688461  53.2162056  40.4106369  78.1530609  52.4246101  40.5641594
  78.0926514  53.7814789  39.8961449   1.2329707  47.4832611  49.5462685
   1.0353110  48.4037552  49.7190514   1.0387400  47.3670731  48.6162109
  70.6768723  54.0129509  24.3124142  70.1003799  53.8474998  23.5664101
  70.0879669  54.2953072  25.0121975  69.9158478   8.2516003  69.4138412
  69.5178604   7.4103227  69.6376419  69.1802597   8.8631659  69.3802414
   9.8535891  26.8083630  27.5764542   9.1010361  27.3982925  27.6198158
  10.6127310  27.3795586  27.6933746  42.0272522  24.4838772  86.6467514
  41.3459091  25.0320911  87.0359421  42.5256996  25.0811272  86.0890121
  11.8523750  55.6315575  60.7944984  11.9142561  56.3871460  60.2101288
  10.9567890  55.3134422  60.6806602   8.5265007   4.0877509  30.3771114
   8.3465891   4.9682469  30.7066422   9.4810839   4.0180130  30.3888950
  35.5738029  60.0333328  73.7043610  35.6666565  60.9832535  73.6318283
  36.2080803  59.6822624  73.0793304  55.5753441  28.3483086  84.7005386
  54.7301254  27.9826393  84.4395370  55.9480896  28.6929264  83.8890381
  53.9499893  58.2714005  48.5822144  54.6655083  58.8365021  48.2908058
  53.1891785  58.8507309  48.6243095  62.0469322   4.3015189  65.4826736
  61.8008118   3.5016375  65.9472656  62.8947792   4.0979004  65.0877991
   1.5703433  25.0183201  56.0768547   1.9924815  25.7040348  56.5943756
   2.2816648  24.6311989  55.5665703  63.3517876  58.3779221  45.6920662
  63.4010582  58.6938934  46.5942688  63.6490059  59.1178741  45.1625748
  48.9832878  65.6707764  63.1375389  48.2568130  66.2838821  63.0254250
  49.7643738  66.2239914  63.1465111  69.2549362  11.2167206  11.7382040
  68.6112976  10.6207819  11.3550377  70.0705719  11.0154772  11.2794304
  23.1456738  25.4470406  86.0054016  23.0810776  25.7172794  85.0894165
  22.3295078  24.9763489  86.1743851  57.5875053  20.5277195  41.9900627
  57.0331078  19.7474403  41.9964256  57.2673874  21.0549545  42.7220345
  84.4091721  42.9278870  63.3129768  84.0859833  43.2747955  64.1445007
  84.4873047  41.9854088  63.4608269  60.0718613  61.6548271  62.5550690
  59.3120041  61.0801773  62.6479645  60.2857399  61.9157753  63.4508324
  69.3018188  62.2189598  46.1151352  70.1295700  61.9284859  46.4981384
  68.6734848  61.5393143  46.3590622  80.0023804  42.8427620  85.2385559
  79.5157776  43.0523834  84.4413681  79.7974396  43.5590134  85.8395691
  13.3091316  28.2799606  87.5904999  12.7680445  27.9463825  88.3061752
  13.2595568  29.2320061  87.6764297   6.7796497  20.2524738  27.5047874
   6.0472660  20.8605995  27.4046440   7.3797483  20.6968155  28.1036797
  41.7605896  22.8459816  15.8556852  41.6664696  23.6590862  16.3519039
  41.9405022  22.1799278  16.5191879  30.3304653  48.6611595   1.7312173
  29.6330070  48.9002991   2.3416231  30.7673893  47.9174538   2.1462271
  64.6997223  31.8748150  10.0620708  64.7128601  31.7024174   9.1206150
  64.3139191  32.7473068  10.1404352  64.8988037  48.0594864   7.3582263
  64.4863586  47.6716957   8.1300697  65.4996109  47.3842850   7.0430026
  32.9055252  59.6413078  33.6248093  32.8627739  59.2906570  34.5144424
  32.9776192  60.5883369  33.7438469  49.7945824  63.9933243   6.7565007
  50.2708015  64.7755966   7.0348821  48.9818878  64.3294601   6.3786488
  45.5358162  61.6935349  10.2325926  44.9315033  61.4833031  10.9445210
  46.2217331  62.2167549  10.6473055  28.1301441  70.4266891  26.2281036
  28.6279182  70.0769577  26.9671154  28.1415920  71.3748398  26.3588753
  52.3656425  53.9356041  33.8090935  52.9347000  54.6588058  34.0725021
  51.8808060  53.7108536  34.6032295  25.0849495   3.5445862   4.3558273
  24.3541832   3.1243796   4.8093009  25.3012123   4.3016009   4.9002457
  58.6772728  53.9689674  52.3556862  57.7293968  54.0309181  52.2376823
  59.0274963  53.9314957  51.4656487  82.4239349  49.8441467  84.7365112
  83.2711945  50.1831818  85.0253754  82.6321335  49.2859497  83.9873123
  64.8569107  18.3468800  83.1009598  64.8750839  17.3898792  83.1080551
  64.8579865  18.5795784  82.1724701  37.6649666  41.0035820  30.8244934
  37.4667740  40.2478294  31.3774738  36.9238930  41.0599098  30.2212791
  21.0078697   7.8676510   7.2200737  20.9368191   8.2930460   8.0746040
  20.1448021   7.9830914   6.8225570  79.4555893   7.8325548  48.5198555
  79.1801987   6.9167962  48.5620384  80.3125381   7.8448391  48.9461365
  31.4077778  37.5038834  87.8884354  31.9128189  36.6940613  87.8152771
  30.8025818  37.3441315  88.6126251   4.5837693  11.2849951  54.3135719
   4.6514997  11.4028625  53.3660736   4.8355923  12.1330824  54.6790390
   5.3029156   8.5377197   1.1616510   5.5490332   7.9666376   0.4339676
   4.4617481   8.1937037   1.4621882  56.0453339  71.4293365  15.9603806
  55.8816376  70.5728531  15.5655746  55.2591476  71.9383545  15.7627907
  17.1690311  55.4773865  64.9116592  17.5316963  55.4898376  65.7974091
  16.2515221  55.2325592  65.0319366  54.6420593  59.0085945  54.1250725
  54.0100632  59.1586761  53.4220161  55.0177116  58.1500244  53.9301987
  80.9508438  37.1595116   5.6475196  80.5424576  36.5173683   5.0669184
  81.3516083  36.6349449   6.3406663  72.0600433  21.7190285  52.7615547
  71.2413788  22.2135754  52.7996292  71.8260193  20.8441887  53.0715942
  66.1132278   5.1781573   0.7076524  65.8928223   4.2818160   0.9610776
  65.3311234   5.4993796   0.2589243  77.4927292  14.7067223  63.7591743
  77.4564667  13.8496399  64.1838226  78.1571732  14.6082258  63.0772324
   5.2936420  30.1287842  65.8349304   4.4947248  30.0634251  65.3117828
   4.9832416  30.2627792  66.7304382  23.9958496   5.3863645   9.1422415
  24.0137520   6.3433809   9.1367264  23.3542538   5.1549387   8.4706554
  25.7698727  15.7745905  48.3685112  25.8358059  16.4677830  47.7117233
  24.8298950  15.6780844  48.5213585  34.4373627  49.2147331  73.9840546
  33.8882675  48.8786430  73.2756958  33.9066238  49.8968430  74.3954773
  10.2180386  23.4902592  83.9230881   9.3698874  23.8890057  84.1176910
  10.8303251  23.9296513  84.5132294  73.0352249  61.3945732  71.1131210
  73.9195328  61.1362724  71.3729553  72.5882797  60.5681000  70.9303055
  54.2386360  35.0461273  77.4175873  53.6297379  35.7615395  77.2341232
  55.0544090  35.4828224  77.6626205  58.3969154  20.8036919  37.6571770
  57.6562080  20.1988373  37.6154938  59.0105705  20.3894310  38.2638435
  34.9492645   6.8823385  84.1364670  35.1528931   7.7579947  84.4650879
  35.7553596   6.5936546  83.7085648  56.1138840  54.4266052  52.0823517
  55.6234322  53.7687721  52.5752487  55.4494553  54.8851204  51.5680275
  62.1067162  40.2386017  59.7521286  61.1974716  39.9424095  59.7099609
  62.1712418  40.9110870  59.0740204  17.0135307  51.2555466  64.1860886
  17.5523300  51.2199860  64.9764481  17.4515495  51.8966064  63.6262589
  43.2887001  43.0695229  62.6433334  43.3497276  42.8050957  63.5612564
  44.0693436  42.6961861  62.2341270  83.2031250  22.6169376  87.0879364
  84.0119553  22.6826115  86.5802917  83.3377533  21.8583107  87.6559067
  27.3443432  65.9435577  52.4476204  26.6573372  66.5449524  52.7349968
  27.3369770  66.0102005  51.4927711  80.3522644   4.9752760  15.9028444
  79.4639664   5.0691085  16.2468796  80.2329102   4.8572145  14.9604816
  72.3569412  15.5672483  36.1126328  71.6814957  15.8421440  36.7326660
  72.8150635  16.3758450  35.8834457   5.6630197  30.1995964  61.4670944
   6.5253015  30.5894279  61.3231049   5.6950402  29.8727646  62.3661995
  77.9791489  17.3587761  66.2319107  78.2823181  16.4547329  66.1480713
  78.7815933  17.8734970  66.3178482  39.5466118  45.3353157  88.9391785
  39.2927895  44.4268494  89.1019440  39.0034256  45.6068726  88.1992798
  74.6543655   2.9818254  57.6717758  74.5539703   3.9332099  57.6398354
  75.4922409   2.8147738  57.2401619   1.4980489  47.2990990  75.0511169
   1.6293819  46.4338799  75.4389038   1.5280913  47.1453972  74.1068115
  22.3152714  67.0988846  67.0300674  22.6214066  67.7297440  67.6816254
  21.3793640  67.0058670  67.2080002  59.0180397   4.2063422  29.8978043
  58.9111023   3.7194543  29.0806522  59.6588249   3.6994772  30.3965168
  15.4606714  63.4091682  37.5169449  14.5672112  63.3809204  37.8592339
  15.4918556  62.7040405  36.8703690  31.7364616  59.8280258  36.1992378
  31.9298210  59.5785522  37.1028976  31.6134148  60.7766571  36.2337532
  52.7909660   5.9968891  66.1949081  53.2230873   6.0593944  65.3430862
  51.8763657   6.2154584  66.0161209  58.7311554  18.0647125  45.7414322
  58.4283409  17.5385571  45.0013657  59.1824112  18.8067703  45.3390007
  78.2267075  64.0134048  34.1865311  78.9416656  64.6492310  34.1585197
  77.9021606  63.9781303  33.2867203   4.9403725  23.7097034  20.3162365
   4.1524544  24.1911125  20.5685482   5.1341214  23.1546707  21.0716400
  51.4784889  56.8247833  59.6013565  52.2166595  56.5858917  60.1619530
  51.6349983  56.3510742  58.7844505  59.8767815  18.8640022  62.8652344
  60.6786919  18.4030876  63.1116714  60.0116806  19.7604294  63.1725655
  71.8384018   0.6473013  45.9866982  71.8420715   1.5034243  45.5585938
  71.8263626   0.0186622  45.2649651  30.9681015   3.5936546  20.0174198
  30.0456734   3.8493018  20.0187016  31.3895245   4.2203994  19.4293518
  28.5851593  18.2832870   6.5206423  28.9969978  17.6754551   5.9065065
  27.8787441  17.7768097   6.9215059  51.0593796   9.4417782  63.4018021
  50.5097847   9.6807060  62.6554184  51.6219749  10.2039967  63.5386963
   7.1369133  29.3075161  87.2004013   7.8905306  29.3183765  87.7904663
   6.3972082  29.5622768  87.7519073  38.2951050  64.0303802  84.9645996
  39.0195580  63.4268646  85.1294250  38.6821213  64.7317200  84.4406052
  51.2275810  41.9867325  48.1076050  50.6364708  41.3717918  47.6732483
  51.3563728  41.6183777  48.9816513  28.0864086  68.8920975  50.2959671
  27.3558006  68.7946548  50.9066620  27.9715481  69.7659531  49.9225845
  62.2400627  44.0184822   7.2289577  62.9361801  43.3615303   7.2367210
  61.4297791  43.5089264   7.2339253  51.7469902  28.4493732  14.9908686
  52.5558662  28.8421688  15.3189869  51.9940567  28.0560665  14.1539106
  76.4514618  46.4700356  21.3607349  75.6761856  45.9137688  21.4365368
  77.1640015  45.9372101  21.7137394  74.0017776  28.7240734  87.3906021
  74.8749771  28.5385914  87.7360764  73.9253616  29.6773224  87.4319305
  65.3911514  35.7616348  74.1097412  64.9523010  35.1664047  74.7174759
  64.8745193  35.7068672  73.3058014  13.2514124  60.8288651   3.5364738
  13.9814634  60.4046249   3.9873369  13.5456886  60.9116783   2.6294043
  35.8476715  71.3050995  59.8890762  36.4366531  70.7530365  60.4034233
  34.9944038  71.2028046  60.3106232  81.2629166  21.4833794  85.1009216
  81.8926849  21.2759743  84.4105530  81.7957001  21.8390560  85.8121643
  61.8532562  66.2240829  18.9910736  61.4386978  66.3115463  18.1327477
  62.6609650  65.7402039  18.8187580  71.7617645  22.8955765  78.9669952
  72.0999146  23.1582813  79.8230820  71.1019211  23.5564480  78.7570343
  63.5887871   6.0426641  46.0253944  62.8161583   5.7162724  45.5641479
  63.5295296   5.6527920  46.8975868  49.6775093   8.0785236  34.5723648
  49.3635445   8.8179026  34.0518112  50.6148491   8.2410393  34.6782722
   3.7454205  70.5926514  59.6552582   3.5392859  69.9874344  58.9429054
   3.9735222  71.4115829  59.2153168  62.5786438  25.3067322  57.8588409
  61.6264267  25.3889427  57.8063583  62.8994980  26.2075768  57.8168411
  55.2742958  19.3910561  62.0920601  55.8482437  19.9133625  61.5316925
  55.8639107  18.7838097  62.5390892  50.6805229  15.0952253  64.8278809
  50.5223389  15.0091534  63.8877716  49.8882599  15.5118942  65.1669083
  44.3155670  66.6631546  61.4358063  44.1078453  65.9601898  62.0513763
  43.9667931  66.3587112  60.5980110  12.8291368   4.1998529  47.9695473
  13.0988770   3.6935279  48.7357750  13.1420479   3.6892805  47.2227974
  77.2250824  34.9925346  67.8409348  76.5160751  34.8414879  68.4660110
  78.0230560  34.7966194  68.3319473   1.3625439  42.8433304  11.0446711
   1.2069221  42.6233177  10.1261902   2.2645736  42.5675430  11.2075081
  21.7881088  51.1888275  86.5530777  22.6783180  51.4662857  86.7693558
  21.3339176  51.1632843  87.3952713   7.4918723   9.4968338  82.4400864
   8.2636719   9.8244562  82.9018478   7.2716179   8.6813536  82.8903198
  62.7664108  15.2365818  31.9312992  63.6729126  15.2373362  31.6239128
  62.4938698  14.3209763  31.8711452  50.1351929  23.1943378  21.3226109
  49.8088989  23.2693748  20.4258747  49.6072693  22.4972935  21.7120399
  78.1662216  71.5451202  65.4936066  77.6399612  71.3758621  66.2750320
  79.0482864  71.7054825  65.8289871  27.9175587  53.3258286  20.8714085
  27.4999142  54.1049423  21.2385349  27.7074413  53.3587036  19.9381332
  42.3899002  56.4937515  77.0319214  41.6433945  56.1353645  76.5517960
  42.2740936  56.1753387  77.9271545  26.2012825  69.2580414  60.1681519
  26.8042412  68.5154114  60.2023392  26.6303635  69.8885040  59.5896721
  66.9811554   9.6897078  65.9629440  66.8791428  10.4847431  66.4861526
  66.0852127   9.4067297  65.7800751   5.8214741  33.3963165  41.0344543
   4.9392142  33.2653542  41.3818703   6.1264391  34.2015610  41.4525528
  50.3185997  63.7957573  50.6921005  49.4770164  63.7338066  51.1439133
  50.8279533  63.0603333  51.0325966  64.1096420  69.5493088  39.2162933
  63.9992638  68.9623566  39.9643135  64.0913620  68.9712830  38.4535446
  60.6665840  53.2787323  28.1008739  61.2750664  52.7682838  27.5666275
  60.2308311  52.6299744  28.6535625  65.8241577   2.6337113   2.1172297
  65.9020996   2.9267750   3.0251238  65.0444794   2.0784748   2.1108677
  31.9210758  59.8654480  51.0553513  31.9789085  60.2183914  51.9432220
  31.1593189  60.3014526  50.6734352  65.8399429  69.0764389  87.1268311
  66.7844391  69.1117859  86.9754410  65.5382156  69.9707718  86.9675903
  29.8800602  27.4298725  81.5875854  29.9828396  26.5103855  81.8329697
  30.1946392  27.9175224  82.3488159  23.2563343  21.7372990  76.3256531
  24.0112858  21.3409061  75.8907394  22.6612549  21.0051498  76.4871216
  16.0865288  61.4811363  42.3289375  16.6243839  61.4192238  41.5395622
  16.1407242  62.4021187  42.5840607   5.5243301  58.3360901   8.1700191
   5.3839173  58.4527168   9.1096544   5.3751068  57.4026375   8.0195932
  30.2794552   5.1618319   2.4592965  29.6498127   4.7120299   1.8958610
  30.7575645   4.4563451   2.8951080  42.0909348  62.2011452  52.5147705
  42.1386337  61.2906342  52.2233429  42.9677238  62.5501480  52.3545532
  26.6292686  41.3660583   6.5074878  25.9167843  41.4177780   5.8703666
  27.0184441  40.5037155   6.3621144  31.3448906  55.5235786  36.2053986
  32.0025902  56.0450439  36.6655502  31.2087860  55.9855499  35.3781815
  61.8677025  10.6994839  16.5834427  61.7103806  10.8599949  17.5138817
  62.4261780   9.9222965  16.5655460  71.9341660  48.3968964  68.1214828
  71.0789948  48.5063629  67.7056351  71.8109589  48.7244911  69.0123978
  70.3658066  39.9797134   1.7278856  70.5148163  40.7875938   1.2366005
  70.0863876  40.2745476   2.5946198   6.6497922  27.8655167   5.4090829
   7.5239167  27.6542492   5.7369614   6.0592284  27.6030464   6.1151819
  46.6791954  58.2452888  42.9453583  46.7193413  59.2003326  42.9955368
  46.8243408  58.0477524  42.0200768  11.6088037  56.4776344  57.8162689
  12.3069620  57.0804977  58.0719261  12.0453358  55.6307259  57.7245064
  74.0885849  49.9267845   0.9483227  74.8691483  49.7449455   0.4249766
  73.4038467  49.3876839   0.5524260  80.6343079  11.1109581  69.5438538
  81.2982941  10.8318815  70.1743088  79.8508606  10.6176624  69.7869720
  36.0665779  39.3499451  -0.0421508  35.9870033  40.3007469  -0.1188119
  36.4185753  39.2091446   0.8367714  67.1774521  52.0106773  25.8998089
  66.3309937  52.2338104  26.2870541  67.7620773  52.7149544  26.1798763
  43.7729568  55.1389771  74.3950729  44.3121223  54.5404015  73.8781204
  44.1307297  55.0792389  75.2808838  24.1617489  55.1147079  77.8895874
  24.4474716  54.2553139  78.1994781  23.3728027  55.3025246  78.3980408
   8.2597475   3.8553548  51.7063751   9.1859436   4.0179915  51.5276527
   8.2065058   2.9111018  51.8539696  11.9989004  58.4815063  75.4380722
  12.2409449  58.1574402  76.3056183  11.6423473  59.3550148  75.5995865
  52.5503540   9.6118650  54.7694931  52.3444977   9.8068018  55.6837463
  52.7802696   8.6826878  54.7686195  40.9830017  35.6996040   9.5170937
  40.1625748  35.6130447  10.0025196  41.6652565  35.5432053  10.1700096
  69.7230759  30.9255257   6.9227133  69.0839310  30.7413979   6.2343659
  69.5346298  30.2796059   7.6035275  19.0884342  16.3456707  56.3126335
  18.4219761  17.0212479  56.1874962  19.6209946  16.6664944  57.0404243
  11.8816624  18.5730000   5.0685062  11.3171043  18.5139885   4.2977767
  11.2753983  18.6739159   5.8023262   5.3017931   5.8150864  70.3736572
   5.5400190   4.8913641  70.2948074   6.1289010   6.2610188  70.5560532
  64.2744141  20.8216305  25.1521988  64.9929047  20.8848476  24.5229034
  64.7032394  20.8384781  26.0078049  26.3993702  53.1268768  76.1464157
  26.8749008  53.9161911  76.4054260  26.4623108  53.1118889  75.1914062
  44.7697678   5.4858155   3.7565780  45.3910484   4.7577596   3.7432513
  45.2674599   6.2315483   3.4212918  13.3068762  62.5512047  53.8258133
  13.9654789  62.0420914  53.3532906  12.4714413  62.2594948  53.4608688
  25.2228203  50.1158028  60.0189438  25.6536446  49.4194832  60.5146904
  25.3824692  49.8911934  59.1022682  18.6196899  12.0544462   8.0123091
  19.0764923  12.2152996   8.8379536  18.5453434  12.9186001   7.6074114
  30.7337666  12.1965961  76.8877411  30.2633495  13.0172424  77.0343018
  30.7383461  12.0897274  75.9365387  21.2212086   9.7366352  40.8714638
  20.8391399   9.9656191  41.7187080  20.4893837   9.3817501  40.3667641
  30.1016655  13.4263134  31.5771370  29.1621780  13.3594141  31.7477818
  30.2659740  12.7842293  30.8865128   3.1680384  54.3127060  24.7490273
   2.9364345  54.0468445  25.6389198   3.6866429  53.5837440  24.4085903
  78.9111176  27.4845467  20.1821556  78.3556900  26.7135525  20.2974949
  78.6870728  28.0534763  20.9186039  38.1755219  53.8678093  40.0345383
  39.0635071  54.0240822  40.3559265  37.6368256  53.8358879  40.8251228
  30.8256493  70.9130936  46.7808876  30.3937016  71.5948639  46.2662544
  31.5511742  71.3631592  47.2136497  59.3535347  30.0878086  73.3541183
  60.1357040  29.8453426  73.8497467  58.6236496  29.8259792  73.9153137
  37.7893906  29.0099297  64.2755508  38.2824020  28.7839279  65.0642853
  37.2172508  28.2570972  64.1267929  18.6656857  50.6793900  16.1030178
  19.2173328  50.6492500  16.8846893  17.8770618  51.1433487  16.3841667
  59.5770531  56.9548607   3.2900794  59.9695511  57.7990685   3.0676262
  59.3993645  57.0132675   4.2288275  11.1768084  70.4223862  83.3906250
  11.4744167  70.4589081  84.2996521  10.7477827  69.5702362  83.3131180
  49.5404816  31.2915993  57.9319267  49.3239670  30.9736347  57.0554276
  50.4230995  31.6516476  57.8448563  86.2987442  59.1832848  36.7698364
  85.6971283  58.7960968  37.4057426  85.8960037  60.0200462  36.5377693
  41.3696556  13.3322573  11.2857819  41.5528526  13.6313839  12.1763954
  41.7129288  14.0273361  10.7242994  23.9223213  24.9866238  22.5045509
  24.7917881  25.2247524  22.1827545  23.7623367  24.1159592  22.1404362
  41.8741302  60.5879097  40.2089767  42.6523094  61.0937767  40.4429970
  42.1463814  59.6745949  40.2982521  60.9811249  39.2005272  14.5818863
  61.1948128  39.9552307  14.0332613  60.2359543  39.4903145  15.1081715
   8.5205736  27.9205341  66.3289642   9.1529007  28.1450768  65.6463470
   8.6435947  28.5922318  66.9997253  66.6385117  53.3716660  59.0522461
  67.5403137  53.5778084  59.2982101  66.1620789  54.1920776  59.1793747
  84.0932236  30.7142792  87.9674454  84.8655930  30.7292099  88.5326538
  84.4403915  30.8386364  87.0841370  18.9150238  27.3604126  53.6610718
  19.1387310  27.6079750  54.5582314  19.0866718  26.4195251  53.6223602
  75.1770630  36.2147293  71.6517944  74.3043289  36.4906693  71.9318161
  75.0169220  35.4864845  71.0515900  41.2599564  36.4004097  74.2595901
  41.9930954  36.2861099  73.6548767  41.2099419  35.5710335  74.7348404
  83.7939301  26.8536663  52.6723480  83.2484894  26.0672874  52.6906128
  84.0158234  26.9698429  51.7485008   6.2970924  21.8445854  80.2469101
   7.1272397  21.9299774  80.7157288   6.5490613  21.6017818  79.3559570
  83.9012985  46.0235100  17.7550545  84.3126755  46.6189575  17.1286030
  83.2967834  45.5013161  17.2276974  27.5575905  32.2602921  84.8586884
  27.1387672  32.5866280  84.0622482  27.4515057  31.3100853  84.8129883
  37.5287399  69.9611740  34.2251015  37.2667961  70.5023956  33.4803200
  37.1676826  70.4126740  34.9880028  17.5765553  22.5459518  18.3736629
  16.9962902  22.3915005  19.1190948  17.3939133  23.4480629  18.1108494
  59.6503487   0.7288244  35.6735115  60.5623169   0.4396340  35.7038155
  59.5336609   1.0603082  34.7831535   6.9762135   5.3756437  53.4829903
   7.2943912   4.7574944  52.8250504   6.6247020   6.1066079  52.9746971
  76.6951447  69.7588501  33.3254242  77.3710632  70.4173889  33.4856987
  76.8230286  69.5016861  32.4123268  86.2115173  19.2973461  46.6802063
  85.5348129  19.5471611  47.3094063  86.0588531  18.3658237  46.5214882
   1.5437195  48.7667542  78.7673721   1.2131120  47.9629059  79.1683197
   2.4870813  48.7440643  78.9279556   4.1530862   2.7380302  48.7976532
   4.5317569   2.8008723  49.6745186   4.3429761   3.5846987  48.3935165
  81.3952408  63.4597206  69.7638626  80.7023621  63.4678650  69.1034927
  82.1880646  63.6954079  69.2820892  82.5181351  64.7305450  41.4582024
  81.7808075  64.3215637  41.9113159  82.7157364  65.5100632  41.9773750
  23.8192329  37.4844360  12.4054012  23.4628963  38.2590103  12.8404799
  23.4169216  36.7462769  12.8631115  65.4939575  38.8381615  73.1876144
  65.0515137  37.9914894  73.2478256  65.6270218  39.1041069  74.0974503
  67.9501343  44.3971863  76.0382309  68.8349457  44.0375481  75.9749832
  68.0818100  45.3215408  76.2490921  55.4223099  23.5579739  10.9737482
  54.5119133  23.3904305  10.7301483  55.4746056  23.3029213  11.8948593
  77.1431732  17.7995872  69.4019089  77.7897720  18.3719788  68.9889832
  76.3104935  18.2578526  69.2884674   5.3561425  66.6539917  64.1325836
   5.5439606  65.7309647  64.3028488   6.1600699  67.1114044  64.3789673
  43.7394829  55.7850990  14.5761738  44.0854988  55.1767540  15.2291822
  44.4531822  56.4045410  14.4239883  65.4057007  58.2369385   5.3959107
  65.2686310  59.0397873   5.8987823  64.5241318  57.8972282   5.2420740
   3.3560014  30.7387447  63.0647812   3.8271384  30.6305523  62.2386093
   3.6471136  31.5878963  63.3970871  29.4299641  50.0916710  44.2892227
  29.8979511  50.7666054  44.7808380  29.9733906  49.3089523  44.3801651
  78.7361145  22.7496490   9.6832829  78.0614090  22.5483494  10.3317347
  79.5534973  22.7534027  10.1813726  47.2056122  51.8226318   4.0097384
  46.8107109  51.3262749   3.2928619  48.1302528  51.5758018   3.9910913
  47.7527351   6.8645263  83.4482422  48.0333595   6.1082606  83.9635544
  47.6043739   6.5141449  82.5699158  39.9733124  26.3492508  87.1905518
  40.0647507  26.5505219  86.2592316  39.2480125  26.9003429  87.4846039
  57.2525673   2.3974695   1.8495748  57.5612221   2.0989008   2.7050400
  57.2923164   1.6181338   1.2952394  11.6736374   6.3202791  14.9866352
  11.1898661   6.2045608  15.8044405  12.3267527   5.6205482  14.9936371
  69.3314209  56.4140244  59.1399384  68.9311371  56.1260796  58.3195152
  69.1329041  57.3491745  59.1880302  76.6654587  41.0424042  28.2771263
  76.0902634  40.4801102  27.7582722  76.1881104  41.1840897  29.0946217
  64.2179718  19.0900631  70.6005936  63.5328789  18.5126228  70.9374008
  64.5877991  19.5033665  71.3807526   7.5495000  44.0505638  56.3694649
   6.9678531  44.0273857  57.1293182   7.9002581  43.1619911  56.3091354
  33.0065918  64.5018921  44.2036247  33.7529259  64.9100800  43.7647552
  32.3102760  65.1565552  44.1507492  83.9933777   5.8205457  57.2098923
  84.9019241   5.7231021  57.4949913  83.6552353   4.9256496  57.1774750
  19.5380764  71.2237244   3.0013990  18.6316166  71.4285202   2.7720039
  19.8103085  70.5783920   2.3489671  35.9184914  30.3281288  74.8460159
  35.8472939  30.9996948  74.1676636  36.8409348  30.3423157  75.1012115
  12.4555674  70.1605988  51.6531754  13.3330946  69.9545975  51.9752655
  12.5770502  70.9374008  51.1072311  68.1000214  41.0646133  29.0625134
  67.4570847  40.3719635  28.9105377  67.8514023  41.4411583  29.9066887
  69.5375366  50.5798111   6.3221164  69.5334930  49.6233292   6.2852645
  70.3231964  50.8348198   5.8384333  15.9730301   2.4712920  74.9137955
  15.0664663   2.7337625  74.7541656  15.9938116   2.2333362  75.8407135
  54.2982826   3.8537252  77.1253281  55.0524254   3.4700181  77.5728378
  54.4069862   4.7978697  77.2393723  36.4018364  68.7876434  28.6361828
  37.3040657  68.4821548  28.5418797  36.1256866  68.9979172  27.7441311
  83.7479095  19.6408234  51.9722176  84.1289444  20.4236107  52.3700676
  84.3596954  18.9383087  52.1922646  58.4347992  58.8979874  23.1519642
  57.7617149  58.2846336  22.8570213  57.9499245  59.6861496  23.3967667
  15.6068888  52.3977509  73.6665115  15.0619869  53.1826782  73.7231293
  15.9365835  52.2703819  74.5560684  64.6182098  12.6368561  77.4971390
  65.1298447  11.8384094  77.3669815  63.7470016  12.3256674  77.7428894
  67.7185211  57.2694969  10.7151346  67.4715347  57.3735466  11.6340485
  68.6744461  57.2218437  10.7279758  77.5792313  37.1196480  60.3363647
  78.0296173  37.9319305  60.1049004  76.7655334  37.1451149  59.8329086
   0.8015729  12.4916468  14.3803425   1.7114297  12.7240667  14.5657434
   0.3196768  12.7706690  15.1589012  40.7266541  51.8523445  23.1167374
  40.1723366  51.7254143  23.8867073  41.1813469  51.0169983  23.0086231
   3.4947824   5.1105714  33.4865608   3.8197219   4.2439213  33.2425041
   4.2806582   5.6542649  33.5415916  22.3753529   6.3582764  62.4325447
  22.3578758   6.2260575  63.3804054  23.1717300   5.9129510  62.1432343
  59.7322617  50.9126854  40.4310188  59.9512138  51.8420944  40.3639793
  60.5796204  50.4681358  40.4552956  32.8200607  53.6500053  27.9428387
  32.0118027  53.9234314  27.5090294  32.5306931  53.2778931  28.7759228
  28.8923454  10.7632828   1.1454406  29.7098560  10.9832058   0.6987417
  28.4580250  10.1439514   0.5589026  80.9779968  17.2820492  76.4715195
  81.1217346  17.9082050  75.7619400  81.5024185  16.5192928  76.2277603
   3.6650548  64.6004791  50.0309715   2.8954237  64.4207230  50.5709572
   3.7857087  65.5479660  50.0937881  21.6447830   2.8819878  80.5105591
  20.6951294   2.9315765  80.4013290  21.8830757   3.7156115  80.9161682
  27.3627357   6.8117537  68.3498001  27.5888290   7.5284028  68.9427032
  27.6002674   7.1357083  67.4809723  84.1773453  48.6690254  72.3102112
  83.3500443  48.8160782  71.8517456  84.7598877  48.3064957  71.6427917
  35.5577202  50.1741562  38.5705948  35.6219978  50.7706757  37.8247604
  36.4515266  50.1154785  38.9080849  12.2836971  62.9673882   5.3635855
  12.3892317  63.8663712   5.0522575  12.1668148  62.4501190   4.5667133
  36.6195030  50.2152519  31.5336647  36.1214676  50.8670540  31.0403652
  37.4814339  50.2071037  31.1174431  70.6946411  13.2220688  48.9533768
  70.6918030  13.8855047  48.2633934  69.9645920  12.6437159  48.7325516
   1.7416012  49.1266365   7.4267669   1.9807500  48.2621307   7.7609367
   0.8397785  49.2558746   7.7204413  45.8255997   1.0782021   1.5012602
  46.5285606   1.5381529   1.0424342  45.1745644   1.7559805   1.6829251
   1.9096355  66.2121964   0.8472901   1.9382678  65.8088226   1.7148774
   2.7779582  66.5987625   0.7341113  36.9299660   2.8457887  40.8873253
  36.9701614   3.7137997  41.2887878  37.0278931   3.0108559  39.9495659
  70.6271439  49.1280670  78.0219345  70.0285187  49.6547241  77.4923019
  71.0145187  49.7512245  78.6366272  55.9869080  22.4117050  71.2022018
  56.6346436  22.0828152  71.8255081  55.9459534  21.7393265  70.5221634
  29.0100822  48.8768005  52.2087517  28.9113503  48.3490753  53.0012093
  29.6724243  48.4151497  51.6945419   8.0339136   6.8785467  34.3515778
   8.5903263   6.1227860  34.5398903   8.6170187   7.5040216  33.9214592
  18.8157940  54.5708008   4.9009147  18.9040108  53.8662987   4.2589431
  18.7694454  54.1214294   5.7448049  40.8592720  31.0707645  11.5365705
  41.2995605  30.3285522  11.9506912  41.4979744  31.4080925  10.9084778
  22.8775253  54.2869606  31.6059322  23.3773098  53.5607796  31.9789009
  22.7896538  54.9118500  32.3256721  67.0645905  56.5258789  76.6792984
  66.6461945  55.6655006  76.7096863  67.5519180  56.5262642  75.8554382
  61.6871185  13.8658237  15.7092199  62.5535812  13.6662674  15.3547401
  61.5585632  14.7950096  15.5186453  15.2106562  26.3243103  81.7086334
  15.7002211  25.5087452  81.8154602  15.8756819  27.0110264  81.7575607
  48.6444206  14.8873196  35.9346733  47.7678185  14.7077456  36.2746086
  49.1742592  14.1496325  36.2368736  82.9266510  10.3361683   6.2373624
  83.4674683   9.5920191   6.5019207  83.5127182  10.8848753   5.7161345
  68.7237015  57.9378471  41.3954849  69.0452957  57.0664368  41.6266785
  68.8338776  57.9897079  40.4460640  18.1395435  49.8091011  87.8997269
  18.9370289  50.3226624  88.0281906  17.6168861  50.3273697  87.2877960
  82.1556702  59.6061554  63.4151955  82.9974213  59.3893509  63.0143547
  82.3836288  59.9568634  64.2761688  59.9974289  15.5310612  11.9793224
  59.8808784  15.8232641  11.0752954  60.1593437  14.5903559  11.9079876
  44.0464592  53.2231636  67.4561310  44.5255165  52.7730904  68.1519547
  44.3103180  52.7728691  66.6537323  64.5841751  36.6372910  84.1580353
  64.3287582  37.2174911  84.8752289  64.6717682  37.2164803  83.4010086
  10.5566750  68.6242447  49.6365967  10.8665361  68.2510376  48.8114090
  11.3046131  69.1187973  49.9716110   1.8991927  46.7129936   8.0071583
   1.7506883  46.4136238   8.9041300   1.5927911  45.9901466   7.4595819
  53.7362099  35.2289696  40.7731400  52.8504333  35.1185799  41.1187477
  54.2699127  34.6194839  41.2829628  46.6358147  64.0701523  41.7581863
  47.1407928  64.0462341  42.5709953  45.9086494  64.6638107  41.9453659
  44.0750275  61.1361504  80.9670410  43.5544662  61.0748100  80.1661148
  43.5778046  61.7284775  81.5310898  37.4617805  71.2615204  73.9836121
  37.0764809  71.0956345  74.8439941  36.7346916  71.1529312  73.3706055
  67.3467026  70.5612335  28.2890797  66.8338089  71.1118240  28.8807068
  67.0314789  70.7905884  27.4148560   7.2185020  16.3716240  82.5663757
   6.8568296  16.7991123  81.7900543   8.1633158  16.5084839  82.4968872
  52.1543999  40.9093704  79.7753220  51.6831474  41.1904831  78.9910202
  52.4606476  40.0266762  79.5672455   7.3288665  12.0013666  16.7781792
   7.6465688  11.1285973  17.0096321   8.1176624  12.5426626  16.7460518
  49.7351723  56.3604698  50.4496498  49.6002350  56.9246292  49.6882362
  49.7954559  55.4772415  50.0856438  83.6145325  60.0376701   8.1031780
  84.5212936  59.7355728   8.1555920  83.5069962  60.6061058   8.8657713
  64.4890289  47.7555389  59.3347130  63.7097321  47.2444115  59.1163483
  64.2261887  48.2823868  60.0894203  46.0604973  16.7591038  88.0680389
  46.5124779  16.9986439  87.2589874  45.1996613  17.1707687  87.9923782
  38.3997993  44.5212631  82.9950943  37.4581070  44.6761246  82.9211655
  38.8015709  45.3074417  82.6253204  73.4677505  70.8739395  18.4552059
  73.0936661  70.0973053  18.0391102  72.7773514  71.1891785  19.0384750
  64.9185562  68.1737366  46.4636726  65.7343445  67.9365616  46.0226860
  64.6012344  68.9393463  45.9847450  11.8852453   0.3820468   2.8727844
  12.8395147   0.3181912   2.8337541  11.6017733  -0.4686469   3.2077403
  84.2171936  57.8918686   0.7561280  84.4954071  58.7932205   0.9185878
  84.1330566  57.8350372  -0.1956720  34.0027695  14.2276697  80.6125336
  33.7330818  13.6127958  79.9303055  34.9566765  14.1528416  80.6389389
  46.1545258  62.3812675  86.4782867  46.2616196  61.4325218  86.4101410
  46.6910248  62.6293907  87.2311707   2.1092751  50.5326920   5.0550990
   1.5035167  49.9417000   4.6078649   2.2744455  50.1125717   5.8991656
  12.3927116  70.1159134   5.0251875  12.3065767  69.5900040   5.8203158
  13.3039322  70.4089890   5.0294113  47.8689537  64.2181244  65.3741150
  48.0086899  63.2712440  65.3632889  48.4244118  64.5502853  64.6688690
   0.9833112  63.5608482  74.8153687   0.6195464  64.4360352  74.6813812
   1.9061247  63.7135735  75.0186462  85.3745651  59.1202545  52.8828888
  85.5421982  58.8775749  51.9722633  84.5490952  59.6039772  52.8537788
  28.2227001  67.0851669  71.8532257  27.2868824  67.2172012  72.0050278
  28.2623901  66.4185104  71.1675034  85.6146545  11.3811007  86.6715698
  86.3750381  11.1834354  87.2183456  85.5269089  12.3331175  86.7184525
  56.9551125   8.7832613  87.9373932  57.1294098   9.6656771  88.2648010
  56.2782059   8.9042187  87.2715149  64.1848679  59.8989449  76.8223877
  63.6195297  60.4556236  77.3578644  64.4399261  59.1845627  77.4061966
  24.3455200  58.6976700  15.4636822  25.0914612  58.4338417  16.0023823
  23.5809517  58.3654022  15.9340715  16.1736755  36.8929825  80.1835938
  16.6849709  36.6218147  79.4211807  15.2624435  36.8129425  79.9016724
  69.2219391  23.9795876  32.5090561  69.8232803  23.2386742  32.5843811
  68.4879913  23.6411934  31.9961815  48.3532715  59.5337906  66.7093964
  48.4061470  58.6049538  66.4842377  48.4277725  59.5535736  67.6634903
  41.8057861  58.3918610   7.3797274  41.8733101  57.4565659   7.5718102
  42.3337059  58.8142548   8.0573072   0.8139411  53.9605293  69.7642136
   1.1769775  54.3397751  70.5645981   1.4495832  53.2931900  69.5056686
  73.9845123  21.3454838  48.5551071  73.6362305  21.0070877  49.3799820
  74.4743881  22.1288280  48.8053665  40.2438583  63.1812973  46.8300667
  39.3114929  63.1500549  47.0444221  40.2719040  63.1279907  45.8747635
  77.0112152  53.2594681  21.7467480  76.2248306  52.7166710  21.8033428
  76.9591293  53.6671677  20.8822842  71.5863724   6.6238470  11.1896849
  71.4178391   7.4349680  10.7101936  71.7105865   5.9638257  10.5076494
  13.7939777   4.8473463  43.4257698  13.9147778   4.3038392  42.6471558
  14.4870453   5.5050869  43.3686142  13.2297211  40.9371986  78.7017136
  12.6848507  40.9539757  77.9149094  12.6238394  40.7125473  79.4078827
  83.7145615  50.2768250  35.6967583  82.7721176  50.1142502  35.7368279
  84.0737381  49.4994240  35.2691269  54.6522713   6.2192640  52.9827080
  55.2501106   6.7997847  53.4536819  55.0536499   5.3532071  53.0539322
   4.0124063  60.7845535  87.7624130   4.1082406  59.9858704  87.2436218
   3.6437960  61.4235649  87.1524811  27.6342793  36.8986168  58.5358315
  27.9383926  36.0817070  58.9313202  27.1880150  37.3576355  59.2474365
  53.8698273  10.5568695  35.9928513  53.8739700  10.4952097  36.9480553
  54.6915665  10.9981279  35.7777557  79.8374329  14.9144688  18.5173931
  80.2409973  14.7188501  19.3630276  80.5307159  14.7517395  17.8777771
   5.9419489   3.7387795  20.7518158   6.6114988   3.1714356  21.1339874
   5.6279945   4.2668290  21.4858646  66.9965363  59.4537086  43.6895981
  67.1082382  60.3388443  44.0364227  67.8751831  59.1914177  43.4149818
  60.1816406  55.0030899  20.6660061  59.9181252  55.5999451  19.9656086
  60.5191231  55.5759888  21.3545685  15.2592955  33.5865097  74.4469757
  15.0332413  34.1517715  75.1856308  15.1720505  32.6972961  74.7903748
  67.6437683   7.8071823  43.7929382  67.2201385   7.8041224  44.6512871
  67.6389313   8.7266083  43.5267372  23.1592922  68.9962692  30.3571548
  23.3566990  69.8914795  30.0817299  22.3230839  68.7952805  29.9369278
   6.8466010  67.1680069  44.3563271   6.8700719  67.6136169  45.2031517
   6.4422903  67.8014755  43.7634659   4.0186992  59.5908279  70.8398743
   3.0895607  59.3739662  70.9167099   4.3250914  59.0718040  70.0962524
  11.9800673  31.7981415  66.6242065  12.1141472  32.6638908  66.2385483
  11.6979561  31.9766464  67.5213089  24.7418461  28.4504623  64.7495422
  25.5236473  28.4809132  64.1980972  24.2002563  29.1754017  64.4374847
  81.5877914   3.4069619  88.5059814  81.1403885   2.6330130  88.1638336
  82.0978470   3.0806050  89.2473068  44.7059364  64.0027847  32.6422424
  45.6072769  63.6841812  32.5941391  44.4178848  64.0451202  31.7303944
  47.4892921  28.9523773  45.7291832  47.9092751  28.8331299  46.5810204
  47.5582047  29.8915386  45.5575447  10.5833054  57.9038467  26.6049137
   9.8089228  58.2377014  27.0578003  11.0139227  58.6855087  26.2587833
  76.4565201  19.3333244   7.0191612  77.1118164  19.9679241   6.7291613
  76.6818466  18.5271893   6.5548267  72.6732330  65.4575958   5.2754865
  72.1922913  64.6312790   5.3217402  73.4417267  65.3187408   5.8289886
  72.9510117  25.7280712  81.0859528  73.4486694  25.4759541  80.3081284
  72.4457397  26.4926357  80.8095932   7.6181984  43.3057022  85.7243805
   8.4583120  43.0950317  86.1318893   7.5822959  42.7478180  84.9473953
  58.9208336  15.8409939  30.9885960  58.7383690  15.9148302  30.0518532
  59.7403831  16.3200264  31.1114635  70.6666031  22.8410702  74.4978256
  70.8025589  22.9439564  73.5559387  71.5275955  22.5993214  74.8391113
  80.5873947  71.1293640  57.1570244  80.2089767  70.2546997  57.0676575
  80.2686539  71.6075897  56.3915558  55.2548180   7.7661090  30.5481396
  54.7648010   8.1923895  29.8450050  55.7446709   8.4760332  30.9632130
  73.1266098   9.8008003  84.3168869  73.4635849   9.4647350  83.4863815
  73.8823471   9.7893181  84.9042282  56.7779045  41.5166168  37.0031319
  57.3457756  40.8055267  37.2999496  55.8897743  41.1886520  37.1441879
  62.7181396  36.7108803  67.6850662  62.9214630  37.6261406  67.4922180
  62.8075790  36.6407814  68.6354980  51.9917107   1.5873033  39.1717796
  51.7453499   1.9838663  40.0074081  52.8944206   1.2965939  39.3015213
  14.8002853   8.6683798  69.4738846  15.3236952   9.4626598  69.5806274
  15.1765652   8.0478954  70.0980988  67.9626694  37.9827271   0.9170219
  67.6498260  37.6763077   1.7681779  68.6630325  38.6003456   1.1274354
  85.6526184  66.3618164  73.0740051  85.8887100  67.2724457  73.2507629
  85.1037216  66.1083221  73.8160858  22.4352932  62.7184868  84.1754761
  22.1803703  63.0521927  85.0356445  22.8992157  63.4474525  83.7636337
   5.5561728  63.2899933  70.1812592   5.8912153  63.9069366  70.8319168
   5.7912846  63.6790886  69.3389053  19.2044296  51.2709084  20.5181179
  19.4123287  52.1659241  20.7863636  18.3414497  51.1019058  20.8961868
  43.2691765  38.3002243   2.0883768  42.7377701  37.7172661   2.6305914
  44.1718292  38.1040459   2.3392954  11.6489573   9.0507622  16.5525608
  11.9219656   8.1465845  16.7079983  11.3480349   9.3603239  17.4068718
  49.2357979   0.6391769   4.1790638  50.0300026   0.1317773   4.3464370
  48.5244522   0.0814643   4.4939899  65.6842270  17.7669449  28.2670231
  65.9027405  17.2423611  27.4967632  65.6172714  18.6624947  27.9357548
  58.4933472  31.0179138  12.2469492  57.6776772  31.4043941  12.5656185
  58.3013840  30.0833549  12.1695986  52.3963509  63.7533455  61.4132385
  52.1278305  64.6004715  61.7689171  53.2478180  63.5834274  61.8161736
  35.6887627   9.7525234  84.4549103  36.1677284  10.1194925  85.1979904
  34.7666512   9.8804607  84.6775665  59.6754189  70.1395416  79.6008911
  59.5052109  70.2803040  78.6695251  58.9880714  70.6339417  80.0473785
  64.2086029  69.0770416  57.6200829  64.9300079  68.8553238  58.2088509
  64.5111237  69.8560791  57.1533813  11.9694138  13.0216942  61.5294189
  11.4735136  13.5393038  60.8950729  12.7156420  12.6854620  61.0331116
  68.5781631  31.2856178  35.1456833  69.1242752  31.9592342  34.7404175
  68.2390976  31.6981049  35.9401131  75.4728012  34.1290665  88.5848846
  76.2191238  33.6013069  88.3008194  75.8493195  34.9843407  88.7921829
  52.1449432   2.2238514  45.1781960  52.6145477   2.1496456  44.3474159
  52.1008720   3.1653485  45.3451500  70.4195633  45.8489037  67.8299561
  71.3458328  45.8075829  68.0677795  69.9674454  46.0187531  68.6563721
  59.1644135  12.6767864  37.9117737  59.2416115  13.5570211  37.5437241
  59.1315575  12.1000767  37.1485214  82.3101425  60.8008995  85.5450745
  81.8500977  60.6260109  84.7240906  82.7589188  59.9800644  85.7477036
   1.9452783  30.7651863  16.4531689   1.2855647  30.4071712  17.0471668
   2.5375309  30.0326157  16.2834435  32.1484032  30.9487514   4.2609644
  31.9804478  31.4606361   5.0521631  31.3393517  31.0186520   3.7542300
  27.3768444  69.1119461  22.7922611  27.3761234  68.2330017  23.1713142
  28.2727776  69.4253769  22.9159241  77.1936417  25.1743412  63.7390823
  76.9706116  24.3089085  63.3962784  77.7983093  24.9979267  64.4598312
   8.4725523  12.0705948  70.7532883   7.7684808  11.4770699  71.0145187
   8.2828970  12.2792387  69.8385544  47.8182068  54.9815369  75.4574280
  46.9772873  54.6411591  75.7627563  48.4226837  54.2452126  75.5505371
  39.0157852  60.7394867  68.6375809  38.9695625  61.3660965  67.9154663
  39.5366364  60.0143318  68.2924881  50.8653259  61.3266068  27.6866474
  50.9176674  62.0926971  28.2581348  50.8434906  61.6894073  26.8011379
   8.0906506  32.9322586  64.5075073   8.8314590  33.4773827  64.2424164
   7.3265433  33.4991951  64.4028473  76.7132034  58.6893463  28.6838779
  76.8766632  57.9519958  28.0958080  75.8498230  58.5113754  29.0568905
  29.2885246  46.6805649  73.9101639  29.9036808  46.0398750  74.2669983
  29.8349934  47.2801132  73.4020844  68.8048401  18.2177353  14.0803175
  68.3401566  18.2291641  13.2435560  68.5543213  17.3858242  14.4820604
   8.6824713  13.2074518  82.2225113   8.7157211  14.1535091  82.0807266
   9.3696022  13.0375404  82.8668823  37.2237701   3.6115706  58.7001724
  38.0025291   3.2043405  58.3207932  36.8594017   2.9402854  59.2770996
  31.0909138  66.7673798  80.1885605  31.2136288  66.4609528  79.2900696
  30.4448185  66.1668701  80.5602798  17.7061100  64.9888077  20.5374432
  17.5328503  64.3002548  19.8954868  18.3179302  65.5785599  20.0968838
  68.9874420  60.2975426  37.3448677  69.6691971  60.8728638  36.9978180
  68.1740341  60.7855186  37.2165260   6.1331739  68.2337952  67.2580261
   6.5833611  68.2549286  66.4135666   5.2200894  68.4293594  67.0476379
  31.8642635   0.3038952  37.7598343  31.5094013   0.0041420  38.5967636
  31.3212166   1.0563990  37.5251617  10.4014063  18.8009758  62.4594116
  10.7833891  17.9564171  62.2205772   9.5554981  18.8164444  62.0117149
  42.3059311   1.4186534  75.7443314  43.1341362   1.5603875  76.2028275
  41.6559639   1.8774960  76.2765274  61.1348724   9.1617718   0.4239217
  60.5107422   8.4370098   0.4615015  60.6834412   9.8408546  -0.0773674
   9.0349722  68.4704895  31.2799320   9.1710587  69.1348648  30.6044197
   9.9123487  68.2873230  31.6159248  39.8365860  55.3047714  81.2916565
  39.0172462  55.7483025  81.0721207  39.5771675  54.4035721  81.4834290
  34.7060432  69.9268875  52.2642326  34.9873810  69.1138916  52.6838913
  34.6055756  69.6972656  51.3404312  54.1725426  58.1434822   6.3992019
  53.7273064  58.9524841   6.6512113  53.6755219  57.4509277   6.8346009
  86.2183914   3.8275263  64.8602448  86.4750366   4.6774039  65.2181168
  86.1987305   3.2442317  65.6189423  78.2710266  29.4722843  56.4445610
  78.6240692  28.6425819  56.7657852  78.3175430  30.0602665  57.1984444
  85.0067902  40.3109512  63.4114037  85.9582672  40.4139824  63.3937607
  84.8331909  39.5861053  62.8108253  68.8067169  24.4000053  61.7544746
  68.4098434  24.7090702  60.9401016  68.7500305  23.4459534  61.7015419
  50.3906326  52.5630913   6.7041221  50.9960098  52.5949554   5.9633551
  50.8501053  53.0198250   7.4087553  14.3326368  40.1519623  41.5312996
  15.0645599  39.6786346  41.1357193  13.5535250  39.6890488  41.2231941
  40.8840446   3.6287341  64.9381180  40.6747894   3.0025563  64.2450485
  40.3193398   3.3753941  65.6682968  75.2612610  41.4523926  33.1302605
  75.4359589  42.3426933  32.8251762  76.0963516  41.1546860  33.4911385
  50.9781761   5.8326397  81.0281982  50.2719307   5.3000412  81.3939743
  51.4219208   5.2508507  80.4110794  61.1072006  24.1942921  28.2426357
  60.3760109  24.4372616  27.6746960  61.5040550  23.4373779  27.8115673
  59.9969406  48.6181107  79.9190750  60.7622795  48.5411606  79.3493729
  60.3590660  48.8306961  80.7792587  75.4727402  19.9213352  15.4851837
  75.6085663  19.1981544  16.0973854  75.5008087  19.5116653  14.6205368
  46.6096115   2.8169265  38.6430168  46.6384010   3.7095394  38.9874649
  46.7651749   2.2605548  39.4062233  58.0135765  19.1234531  14.9261913
  58.6748047  18.7328548  14.3548393  57.6970825  18.3943806  15.4595947
  52.7998276  39.3543510  17.1823483  52.6148911  39.6479454  18.0744419
  52.1477127  39.8016167  16.6429691  21.7348595  14.2934055  61.5458488
  21.4033966  14.5925570  60.6991653  21.9314499  15.0988407  62.0242386
  59.3762589  -0.1256501  77.1127930  59.3989296   0.4358854  76.3379440
  58.4803696  -0.0458661  77.4402847   5.0777392  50.1712799  39.9095421
   4.2398753  50.3269653  40.3454056   4.9270992  50.4318657  39.0008965
  10.1051378  58.2470856  31.6378880  10.9801884  58.5947914  31.8099995
   9.7259283  58.1121864  32.5063553   6.1222787   3.4898324  24.2059994
   5.7953100   4.3348780  23.8974209   6.9643807   3.3828425  23.7636776
  58.0709114   0.3070147  29.8845234  57.1334763   0.1899050  30.0385876
  58.1192627   0.9638907  29.1899681   0.7029569  25.8206310  30.8753872
  -0.0363177  25.2354603  31.0405560   0.3053889  26.6849785  30.7701473
  45.5036736  50.1379700  19.1125412  45.1074791  50.2989044  18.2561760
  45.7571487  49.2152290  19.0895786  54.2191505   0.4440928  70.7284851
  53.3329010   0.0901335  70.6542511  54.4210548   0.3903563  71.6626053
  84.0421219  21.4280510  25.4695492  83.6138382  20.8103752  26.0622387
  84.2695007  22.1740704  26.0245132   6.1673741  42.8106575   3.2162623
   5.7304740  42.5388451   2.4091268   6.7235184  43.5436783   2.9524117
  57.9125443   7.5928488  42.4090309  58.5760231   8.2795200  42.3418884
  57.3316040   7.7474642  41.6641579  66.7893524  15.2852020  37.0385551
  66.8601151  14.3813410  37.3455734  65.9105453  15.3426771  36.6635704
  51.1979218  63.5172539  32.5187912  51.6542358  63.8348846  31.7396126
  51.7848473  62.8572006  32.8876801  14.9175920  43.0270996  79.0438385
  15.8156099  42.9643059  78.7184830  14.5410528  42.1632423  78.8759155
   2.6930754  60.9887314  49.7923126   2.0846188  60.3920555  49.3564339
   2.1738503  61.7731514  49.9692917  80.6325684  45.7013626  29.6697159
  80.6648712  45.4744110  30.5990620  81.4762726  45.4113655  29.3228817
   8.4134817  28.2176342  60.0812378   8.4424648  28.7182865  60.8965530
   8.2260065  28.8698673  59.4061966  81.2698975   7.8517981  86.8915863
  80.5629501   7.6233897  87.4951553  81.8833618   8.3597536  87.4225082
  52.1858482  55.3739014  12.8955412  51.9952660  55.4013557  13.8331747
  52.3907280  54.4555931  12.7195635  66.1640320  70.9107819  50.5085678
  66.3145142  69.9772644  50.3597717  66.2192764  71.3040924  49.6376572
  62.0557060  10.5166187  43.2942429  62.9553833  10.7491722  43.5238647
  62.1255417  10.1163511  42.4275589  52.6528511  13.3384361  42.6328583
  52.9798355  12.5062809  42.2910500  53.0385895  13.4067745  43.5062218
  73.8620605  52.2454605  75.0260544  74.2217331  51.4151535  75.3382339
  73.0703201  52.3749199  75.5481873  46.0179672  68.9110565  78.8089066
  46.2152519  69.2761993  79.6714478  45.3414574  68.2547379  78.9756851
  69.8175812  36.8199921  33.1192818  69.4872971  37.2253990  33.9210243
  70.7593613  36.9903755  33.1351471   3.4605057  28.2844086  82.5672073
   3.5854521  27.3771839  82.2887039   4.3475132  28.6175919  82.7029953
  54.3430748  35.3022118  49.8668709  54.3727684  34.7178040  50.6243744
  53.8025894  34.8382454  49.2274590  13.6557989  35.3700066  12.8894358
  12.8655825  35.3107567  13.4263525  14.3021669  34.8394318  13.3551950
  46.0807190   1.5248048  49.4015656  47.0260696   1.4191072  49.2949371
  45.8496017   0.9176136  50.1045151  85.3800201   2.4587731  53.0694771
  86.2381363   2.5020149  53.4913864  84.8392181   3.0755348  53.5628052
  30.8246708  39.1593361  58.1176453  30.4925079  40.0528755  58.2042007
  30.7365761  38.7850990  58.9942398  34.3773041  15.6052561   4.0835238
  33.9652252  14.8967209   4.5778923  34.3489761  15.3102493   3.1733589
  25.2498856  30.7743511  73.5895538  24.7613621  31.0037289  74.3801041
  24.7528343  30.0543213  73.2013168  44.1933975  60.0380402  48.1988564
  45.0902138  60.3653450  48.2683372  44.0944633  59.4497604  48.9474335
  34.2305031  29.8416424   5.5486822  33.9070625  30.2977200   4.7717581
  33.4695549  29.7835293   6.1264467  79.7543716   2.8787377  73.2292709
  80.3789139   2.5221512  72.5975800  79.0245438   2.2594666  73.2202072
  18.1964283  44.0063362   2.0643179  18.9962654  44.4943123   1.8684351
  17.6777573  44.6031990   2.6037333  77.2719421  27.6499977  30.8866386
  77.4852524  28.4188480  31.4154091  76.3762970  27.4263058  31.1396389
  11.6049538  35.7892227   1.3018966  11.9833145  34.9728813   1.6284939
  12.3466377  36.2634735   0.9260975  55.7964363  11.1151543  45.1584167
  56.3049927  11.8889904  44.9159737  55.3057137  11.3846350  45.9348221
  79.5156784  44.1835403  12.8961563  79.8024673  43.2703438  12.8886948
  78.6368256  44.1616859  12.5175095   3.4253905  70.4386902  36.6061668
   4.2798276  70.3193893  37.0208206   3.2286301  71.3677521  36.7260284
  71.6931534  63.1713257   9.8241396  70.9066162  63.4923134   9.3830490
  71.3729019  62.8052368  10.6485481  38.6710434  64.7985916  87.7211533
  39.0272903  64.3315659  86.9653702  38.9497147  65.7056427  87.5953522
  49.5918732  19.6083202  16.5008907  49.4349060  20.3182297  15.8782997
  49.7860107  18.8478127  15.9530125  70.7369537  62.3091736  37.0098801
  70.1741714  63.0797157  37.0857925  71.4707108  62.6008606  36.4688110
  48.3069115  28.9136238  48.3426781  48.8225555  29.0932732  49.1288528
  47.6203537  28.3155937  48.6380234  59.0654144  12.5011930  52.2502213
  58.5655289  12.9746141  51.5852280  58.4844627  12.4712515  53.0103722
  82.9321823  41.5843430   3.9238319  83.2949066  40.8921165   3.3711219
  82.8491974  41.1818123   4.7883043  47.8975067  64.9358063  34.9049606
  48.1114998  64.1140213  34.4632492  47.6704941  65.5369873  34.1955376
  53.6018791  27.7247372  59.3370781  54.4121742  27.5135307  59.8008118
  52.9085388  27.3650303  59.8903618  80.5937347   3.6859748  68.1980515
  80.8143616   3.9676960  69.0858459  79.7653961   3.2161527  68.2947540
  82.1708374  64.2539749  85.8561020  81.4646072  63.9229698  85.3012161
  81.8094025  64.2323685  86.7421799  29.0321236  53.3072243  86.9709854
  29.3213959  53.1439133  87.8686981  29.4081745  54.1591148  86.7493973
  85.8201294  12.2393246  23.3521328  86.3775864  12.7476759  23.9412479
  86.4235535  11.6478930  22.9023323  76.5080185  32.2259445  55.6075096
  77.2873840  31.6758690  55.5285263  76.8501434  33.1168747  55.6811905
  58.1812553  58.3683510  52.6399078  59.1074295  58.6082573  52.6102791
  57.7596664  59.0966415  53.0960770  68.4757538  62.0421677  28.4967403
  68.7702408  61.5294724  27.7439766  68.1844177  62.8731079  28.1213837
  86.1140137  48.7118759  22.1847839  86.1103592  48.8966637  23.1239700
  86.8228149  48.0792847  22.0678997  25.2075157  69.9995880  75.9411926
  25.5453033  70.2116928  75.0710526  24.5640430  70.6847992  76.1219025
  44.2342339   4.0153108   0.1932565  44.0341835   3.2191546  -0.2990320
  45.1904488   4.0416899   0.2277266  14.2268515  38.7692299   6.3016748
  13.8254251  38.4664955   7.1161942  14.5135298  39.6621475   6.4933639
  52.9576607   8.1056538  14.3319607  53.4955215   7.7442517  13.6274567
  53.5746765   8.2667685  15.0457993  85.3419418  11.6152744   9.3271742
  85.8085251  12.0669689  10.0303869  84.4566803  11.4899874   9.6690006
  15.9817991  63.8546562  68.9217987  15.8785906  64.7239380  68.5345840
  15.0913162  63.5069771  68.9707031  64.1378021  24.6635761  42.5541763
  63.4271965  24.0715218  42.8006325  64.8630524  24.0836544  42.3219261
  73.3059540  26.2855396   6.0315380  74.2047424  26.5943718   5.9173522
  72.7875137  26.8344727   5.4432168   1.2196416  12.8548460  61.7608986
   1.3272129  12.2511930  62.4959259   0.2965175  12.7768965  61.5200729
  84.2465057  42.6704712  55.2117577  83.6899338  42.5461159  54.4429932
  83.7313385  43.2306213  55.7923355  23.5899925  53.9003677  65.7475281
  24.4520378  53.4863014  65.7882385  23.2320862  53.7955933  66.6290970
  18.6792068  21.8348293  78.3406525  18.4950562  21.6602688  77.4176941
  18.0259819  22.4861565  78.5961990  46.0380745  58.5872536  10.9563322
  46.0871582  58.7681656  10.0176668  45.2563667  59.0552139  11.2498903
  60.5311241  66.0291443  39.0925980  60.1271362  65.2522430  39.4791908
  61.3541603  65.7114716  38.7212257  79.5211258  11.0275345  37.7376747
  78.8744888  10.3521347  37.5328941  79.4966965  11.1010981  38.6917305
  37.6925201  66.4239731  47.4000702  37.5037384  66.5357056  46.4683456
  38.4985008  66.9203339  47.5423508  40.6367950  55.9861603  40.4375839
  40.2621994  55.7935867  39.5780334  40.6565704  55.1402969  40.8851967
  63.4708061  66.5351562  27.7888527  63.0247345  66.4971161  26.9427986
  63.5541267  67.4706039  27.9738388  32.7637520   1.9779038  67.4246445
  33.0152512   2.4681411  66.6419296  31.8591862   2.2421827  67.5924225
  72.7824326  37.9300690  36.7089806  72.6043243  38.7858696  36.3189621
  73.1516113  37.4127960  35.9931793  51.4266624  17.4980202  20.0169907
  51.1607170  16.5798168  20.0660572  52.3567390  17.4904041  20.2431087
  37.2119484  41.8187523   1.0818348  36.8871307  41.7740974   1.9811299
  38.0744247  41.4051476   1.1178811  68.0162430  18.0106335  24.9351273
  68.7158966  17.8783092  24.2954273  68.4363251  18.4799843  25.6558743
  52.2555161  13.9185953  81.9841232  51.9197960  14.0198021  82.8747864
  51.7400208  14.5337515  81.4625092  65.3267822  17.7659626  35.9594193
  65.3496323  17.1294613  35.2448730  64.7143784  18.4386063  35.6615105
  40.5394096  36.8703995  21.2002831  40.4239960  37.4904900  21.9202824
  41.4707909  36.6504974  21.2205505  11.1493959  53.4822617  80.7298203
  10.8859901  54.3664589  80.9848709  11.0656500  53.4730606  79.7763367
  15.8488255  52.4141998  45.8176804  15.4141684  53.1256485  45.3474159
  16.5712700  52.1552124  45.2456398  55.3804398  12.1487932  71.6963272
  55.0026855  12.2884617  72.5646744  54.7828407  12.5996628  71.0998230
  80.1898499  12.7466183  53.6697731  80.0422134  12.5318241  52.7487411
  80.8473740  12.1147299  53.9606552  51.9804649  21.7557888  16.2370853
  51.3895836  21.6348019  15.4938107  51.7830925  21.0239010  16.8215656
  37.3635826  53.7406311  70.9712601  37.2906609  54.0940971  70.0847092
  37.4353600  54.5131073  71.5319443  80.4836502  20.6581764  46.1043816
  80.2493210  20.1686573  46.8928566  81.2458878  20.1972504  45.7539864
  54.1071434   4.4340525  21.3001690  53.2002182   4.2218728  21.0794945
  54.2233810   4.0947347  22.1876278  10.9228115  50.0921135  72.4401550
  11.5387716  49.9190712  71.7281952  10.1921434  49.4962730  72.2748413
  59.7432823  54.0262985  75.9665909  59.2312851  53.2781982  76.2739029
  59.5307922  54.7300262  76.5796585  76.1979904  42.3220215  20.7926521
  76.5805206  42.9941597  21.3566895  75.7153549  41.7526932  21.3919525
  51.5685196  13.0908985  33.9992485  52.0377274  13.9229193  34.0610504
  52.1981468  12.4898586  33.6010628  24.9331932  22.0231152  79.3833923
  25.7296467  21.7161064  78.9502182  24.8106232  22.9141197  79.0558014
  63.8669930  59.2780533  85.0419159  64.1162949  59.6318855  85.8956604
  63.6523666  58.3615913  85.2158737  17.4804249   5.9016294  85.5972290
  16.8643665   5.2912087  86.0023117  17.8211498   6.4180312  86.3276215
  39.4823303  62.9982529  72.9212646  39.2078552  62.1190910  72.6605606
  39.3552818  63.0174141  73.8698044  12.1076965  56.4758148  40.4921761
  12.4092436  57.3246841  40.8157883  11.1666555  56.5904922  40.3598022
  84.5548019  65.7080765  45.3480606  84.1893005  66.5054550  44.9648781
  84.6142502  65.0955048  44.6149521  64.7537384  33.6206856  68.0690994
  65.3929520  32.9191742  68.1936569  64.9252090  34.2310715  68.7862167
  24.4287586  16.7549038  87.8286057  23.9893341  15.9827509  87.4723511
  23.7176113  17.3618984  88.0336914   1.4025605  32.2131615  46.5383415
   0.5858147  32.4294395  46.0884705   1.6262399  31.3381634  46.2212029
  78.5868454  64.8836441  17.6669674  79.3795242  64.4318237  17.9563751
  77.8690109  64.3497925  18.0074825  79.3143005  48.4960289  51.4911575
  79.1533432  47.6248512  51.8536072  79.9799271  48.8750381  52.0651970
  47.1993256  45.5996704  56.6887474  47.1074905  44.9519844  57.3875313
  47.9454994  46.1362991  56.9561195  86.0468750  35.2127419  73.7686691
  86.4508820  35.1999016  74.6363373  86.4279709  35.9781113  73.3383179
   4.7723551  58.7623940  41.2199593   4.5694189  58.7135811  40.2857933
   4.3804979  59.5870438  41.5074120  43.0837784  11.3226719  64.9723816
  42.7069206  12.0815268  65.4177475  42.5017242  11.1681662  64.2283554
  86.6598206  58.8669548  82.6591339  86.1175003  58.0801430  82.7142639
  86.0324478  59.5897369  82.6444550  65.0207291   6.8021173  76.4186554
  65.5783615   6.5292573  77.1472397  64.1325378   6.7778034  76.7746811
  82.0692596   8.5483866  71.0701447  81.6322861   8.2739334  70.2639465
  82.5727615   7.7813072  71.3427505   6.3610106  64.3802567   4.3866711
   6.1767144  64.1422348   3.4780388   5.8676634  65.1883698   4.5273604
  35.4240303  53.9880028  16.4286766  35.9450188  54.5972290  15.9055681
  34.8928909  54.5501709  16.9926739  44.1808891  54.9666634  47.5738983
  45.0770950  54.6367378  47.5091362  44.1847687  55.7732582  47.0585136
   8.8951006  65.5673752  66.6356888   9.0119839  64.8399353  66.0246277
   8.5371218  66.2751465  66.0998306  22.1426964  25.4174366   3.9999495
  22.2052021  24.4756012   3.8409834  21.2528019  25.5464096   4.3281031
  83.6810379   1.2145767  80.4661560  83.4823151   1.6687585  81.2849731
  84.0803223   0.3891594  80.7409134  48.1842995  40.1013336  17.4758854
  47.8159294  40.1417656  18.3584385  48.1394577  39.1747780  17.2398453
  70.9983139  55.2357674  68.4699326  70.9607010  54.7716179  69.3062210
  70.1021347  55.1998444  68.1355515  85.6741714   8.2790689  29.5246887
  86.3270798   7.5904899  29.6503906  85.5626907   8.3330355  28.5755348
  19.8353405  17.7311096  65.5901337  19.4935265  18.5053692  66.0372543
  19.0595474  17.2059574  65.3936920  52.7654228  47.6462784  77.1553879
  53.0065536  46.7766533  77.4745102  51.8102989  47.6669273  77.2149506
  67.3421021  10.5390825  26.8434410  67.4359894  11.1851254  27.5434742
  67.1483078  11.0581503  26.0628986  27.8968544  57.7025261  19.4357967
  28.7288513  57.5901489  19.8955650  27.2938461  57.1089058  19.8832626
  74.6699295  34.3949661  53.2979889  74.9034653  33.7820091  52.6008682
  74.7130585  33.8736916  54.0996437  67.2924576  19.8000069  55.5568695
  67.7458344  19.0547810  55.1627693  67.9041595  20.1323719  56.2138252
  46.4229088  40.9900475  67.8796692  46.9354591  41.7393379  67.5762177
  46.2050323  40.5096436  67.0809326   4.8481770  68.3107681  60.6391449
   4.4710369  69.0655975  60.1872330   5.5595384  68.6770172  61.1645546
  76.6231918  23.8298073  16.5681648  76.8531570  24.4365101  15.8644180
  77.4170761  23.3137798  16.7084923  62.6368790   2.8922181  14.8043203
  63.0724068   3.4011807  14.1205778  62.5568047   2.0131006  14.4342222
   2.1367745  -0.0166298  21.9463215   2.4721301   0.4192260  21.1628685
   1.2143395  -0.1825070  21.7518215  53.9613533  23.3619976  68.7225342
  54.7457352  23.7072830  69.1488647  54.2449074  23.1527348  67.8325653
  15.7079859  33.1305656  70.3453751  15.1334476  32.4807892  70.7502518
  16.0298271  33.6554832  71.0782547  55.0053177  27.5704308   7.9330235
  54.6722107  28.4629898   8.0258045  55.6603889  27.4860306   8.6258354
  86.4514542  41.5208092  66.0211487  86.3389893  41.4890137  66.9711914
  86.5366287  40.6040878  65.7592392  51.1429710   9.5713844  19.9608955
  50.7325058   8.7075958  20.0011253  51.9447556   9.4323225  19.4568748
  82.5901794  30.0690041  49.9368706  82.4973068  30.5376263  49.1074104
  83.4646606  30.3032875  50.2477150  19.1327362  49.0563545  84.8308640
  20.0829716  48.9411278  84.8332062  18.7875481  48.2048149  85.0991135
  81.4785767  69.4342499  13.6770859  81.0594177  70.2242126  14.0184135
  81.7622681  69.6755600  12.7953138  19.9921741  40.6279831  16.8424053
  19.5472584  40.3631058  17.6474667  19.4161072  41.2877884  16.4563541
  66.7867508   9.6089506  35.4512558  67.6393585   9.1745462  35.4269943
  66.6465988   9.9117498  34.5540924  49.5115547  33.3385773  23.7263393
  48.7419891  33.3450813  23.1571636  50.2433128  33.5368576  23.1420078
  40.2100487  50.2839966  15.9207993  40.2041168  49.3273544  15.8886499
  39.5511055  50.5056229  16.5787563  30.2791004  14.0339899  14.4920101
  30.8413143  13.9551039  13.7213449  30.8838291  14.0064020  15.2334776
  16.8283615  64.2499237  26.8444405  17.5198002  63.6945572  27.2045956
  16.5560627  63.8037109  26.0425816   6.3398104  69.8655930  63.0343361
   6.2992225  69.0005188  63.4420471   7.2155428  70.1891174  63.2456589
  84.8447266  27.2562790  56.4642792  85.6063995  27.5459213  55.9620934
  85.0722656  27.4448910  57.3747101  85.6203079  12.7722921  18.8316250
  85.9205322  12.3308182  18.0371437  86.4070587  13.1845694  19.1883965
  28.5263348  39.0127373  17.2658253  28.6709671  38.9192886  18.2074089
  28.0079594  38.2447014  17.0257416  64.4816437  18.8133984  80.4366531
  64.3888474  19.4307423  79.7110443  63.6263199  18.3884544  80.5004578
  20.2828712  19.0336857  63.0830345  19.5297794  18.5209484  63.3766098
  20.6079540  19.4579906  63.8770866  75.6609192   1.4183890  87.9959793
  75.1300278   1.9798354  88.5609283  76.0887604   0.8091695  88.5976715
   7.9195876   5.9373436  14.8174429   8.7648907   5.9816685  15.2643547
   7.2886086   6.2470613  15.4671907   6.1815214  68.0384064  48.8974724
   5.4473987  68.6150894  49.1089821   6.3263478  67.5320587  49.6967621
  44.2418175  51.9299736  39.3978615  43.3083839  52.0958252  39.5298767
  44.6707726  52.3850021  40.1225548  30.3810539  64.4938889  42.1622810
  30.4810791  65.3144989  41.6797676  31.1621857  63.9878426  41.9387169
  51.5444908  45.2189331  51.6123810  50.6749840  44.8707352  51.8097305
  51.7479324  44.8761024  50.7421455  25.5767326   9.4234753  86.4041977
  25.9158115   8.5908175  86.0756607  25.1182137   9.1932516  87.2122726
  68.3089066   1.8302211   1.3839381  68.1309280   0.8902938   1.3508600
  67.5097885   2.2126901   1.7463750  49.3038559   6.6248369  60.0843964
  48.6756287   6.0645337  60.5400505  49.2327499   7.4717879  60.5246773
  37.8667793  71.2455673  53.0704689  38.4251900  70.4693909  53.1147232
  37.3055763  71.0938263  52.3100357  13.6977005  54.8767204  86.3539124
  13.6855879  55.6070213  85.7352524  13.1141357  55.1520500  87.0609283
   2.3885777  21.3587170  36.0342255   3.1998475  21.3762379  35.5265198
   2.6519880  21.0346184  36.8955078  78.8512955  51.0251923  87.8107147
  79.4118118  50.6910515  87.1104279  79.4325409  51.5662498  88.3451691
  35.6811447  39.9676056  69.2975922  35.7555695  39.4354935  70.0897675
  36.4859085  39.7875366  68.8116226  43.6426086  34.3547440  81.5226059
  43.5806046  35.1670074  82.0252151  44.3046875  33.8385315  81.9823914
  16.7361946  71.4488373  24.5653591  17.1041412  70.5856018  24.7542133
  17.1139698  72.0214844  25.2328930  82.7541122   9.3331213  22.9127007
  81.8022232   9.2547569  22.9759979  82.9806900  10.0162268  23.5437794
  64.1022797  28.4217491  83.2398300  63.2604561  28.5096779  82.7928009
  64.1487579  27.4972000  83.4833069  71.2461929  70.5411377  79.0707703
  70.5310593  71.1383667  79.2901535  70.8091278  69.7414093  78.7781219
  48.7545662  10.6086063  18.4362545  48.2916718   9.7720346  18.3903103
  49.2389526  10.6598873  17.6122570  75.4749908  28.9805050  73.0805054
  74.7813644  29.6141853  73.2637024  76.0449600  29.4241810  72.4524002
  53.1706009  67.0951309  68.2563858  52.5415115  66.3821793  68.3666916
  53.5362091  67.2293777  69.1307678  13.0329990  45.3041687  44.8930511
  13.8926334  45.1491699  44.5015984  12.4248638  45.2760201  44.1543961
  74.1480331  34.3700638  56.6133041  75.0552444  34.6752548  56.6058617
  74.1908264  33.4829483  56.2563362  37.8011398  15.2585592  72.6305695
  38.2736092  14.4633322  72.3843613  38.1517258  15.4887543  73.4909973
   3.1908259  58.4507103   6.1991715   3.6673627  58.3130913   7.0178323
   2.6504598  57.6666374   6.1018672  14.8441601  57.3502502  51.9907684
  15.0197172  56.5508652  52.4871483  14.9625912  57.0949554  51.0758743
  61.0763893  22.6323128  13.2764130  60.7053566  23.3813362  12.8100090
  61.8792648  22.9707394  13.6727571  74.4832230  21.5740337  21.2137814
  75.0654907  20.8182850  21.1360550  74.7040787  22.1247940  20.4627037
  14.1056747  54.6334763   7.1473088  13.2136469  54.9555283   7.0176845
  14.0061970  53.6868744   7.2487054  43.4572678   6.7209802  79.1530075
  42.7533646   6.4025698  79.7181396  43.5393906   7.6490436  79.3725204
  19.5260544   7.6659708  79.4808960  18.7817078   7.8591843  78.9109421
  20.2131691   7.3680458  78.8847885  25.3548450  24.6954117  87.7636719
  24.6932106  24.8439789  87.0880966  25.7586956  25.5530777  87.8961258
   8.0924006   9.9013968  29.3881817   7.7936153   9.7125521  30.2777309
   9.0099726   9.6289272  29.3808098  59.8010902  22.9027596  76.8128586
  59.1100540  23.0413208  77.4605484  60.4324646  23.6017971  76.9829788
   1.9877477  25.1253395  23.1959229   1.3748860  24.4430389  22.9218845
   1.5950392  25.4968185  23.9858704  55.5171738  25.0976467  70.8348770
  56.3013687  25.6463375  70.8204575  55.8302231  24.2399521  71.1222687
  76.5386887   3.4629846  44.2837601  76.9117813   4.3335104  44.4223862
  76.3203583   3.1532242  45.1627426  33.7480354  55.4427681  53.5555649
  33.7138329  54.7188644  52.9302444  33.1351471  56.0899048  53.2065544
  60.9737358  24.0015869  19.4231033  60.9528275  23.4305191  20.1910076
  60.4614182  23.5344086  18.7631741  69.8714828  14.7529898  17.7631931
  69.8237152  14.4568233  18.6721668  69.0233154  15.1659346  17.6009521
  64.5358124  57.5887184  78.3353500  63.6057243  57.7222672  78.5179367
  64.5552750  56.8673210  77.7065125  85.3939362  47.4601669  50.7054367
  86.3131409  47.2231216  50.8283501  85.0769730  47.6554604  51.5872650
  24.2089462  60.0500069  21.8626690  23.5376682  59.3743134  21.7675133
  24.0635757  60.4105415  22.7373753  80.7434158  68.3377151  46.7737236
  80.4743423  68.1893311  45.8671875  81.2811508  69.1287689  46.7375298
  37.6403923   1.3621385  61.1288948  36.8204498   1.0059432  60.7867661
  38.3212013   0.9478028  60.5987434  79.6604538  66.4287949  11.3353519
  80.0209885  66.4957809  12.2195263  78.9274445  65.8192368  11.4211321
  69.3993149  35.9915009  79.4522324  69.5594101  35.8168678  80.3796463
  69.0152206  35.1806793  79.1186523  40.5360985  63.1973495  79.2883759
  40.0542412  63.9515915  79.6277313  39.8732147  62.6710052  78.8414078
   5.0878248  21.0359745  60.4243050   4.4371367  21.5170975  59.9130707
   5.0483489  21.4313850  61.2951202  57.3189163   4.9745674   8.6619215
  56.9500809   4.1296506   8.4044170  56.6666222   5.3505011   9.2530394
  55.5957565  18.0796299   9.4098816  55.5433044  17.1254559   9.3548098
  56.3431587  18.2456551   9.9843903  39.1773949  11.2209063   2.3523433
  39.2724991  11.2845354   3.3026791  40.0756569  11.2128820   2.0217447
  31.6346893  57.7753868  81.1803741  31.6559353  57.3195076  82.0217743
  31.3822136  58.6721497  81.4001465  10.9878244  48.7697105  44.7543411
  11.6114893  48.0687370  44.9438362  10.4007645  48.3966866  44.0967369
  17.3041039  70.4260025  77.1247330  17.2796078  71.1655731  77.7319107
  16.7074795  69.7824402  77.5069580  38.1554527   6.9355927  79.7764664
  38.5468063   7.1869960  80.6130447  37.4936218   7.6068602  79.6103058
  80.0369720  38.8770905  11.9585667  79.8372574  38.5357094  12.8302345
  80.9917297  38.9428749  11.9400682  83.0955048  66.9255600  20.5957966
  83.4584274  67.5146255  19.9343452  83.7803192  66.2715912  20.7357388
  72.8061371  51.2933540  13.5853300  72.5614090  50.5433578  13.0432510
  72.7570877  50.9659042  14.4834414   1.1006831  32.7561340  82.8339615
   1.7584373  32.1691017  82.4611511   0.3143279  32.5971680  82.3118439
  12.0890751  65.3506088  24.8838749  12.8176556  65.1685486  24.2903633
  12.1612663  64.6811066  25.5641537  28.5008850  62.1030693  36.9568481
  28.4418335  63.0395966  36.7680054  29.0785160  61.7574692  36.2763100
  63.4431572  67.5924606  25.0389099  63.9337578  66.8227158  24.7507591
  63.9679413  67.9582138  25.7509899  52.3989830  66.9667740  59.0659294
  52.4733467  67.3012009  59.9597206  52.5677071  66.0280228  59.1466370
  38.7684326  64.8366470  39.6724625  38.7209167  64.0735703  39.0965385
  39.7027740  64.9449387  39.8499641  61.1175652  50.9992371  21.0746574
  60.8330002  50.2387390  21.5815086  60.4523125  51.6652489  21.2481518
  53.8762016  65.5849075  56.2377396  53.2854271  65.4114685  56.9706345
  54.6546288  65.9672012  56.6428719  70.1908646  64.5372849  67.1328278
  69.3323746  64.6685562  67.5353241  70.2053070  63.6098175  66.8965454
   3.9465747  70.4201050   6.8881459   3.6238129  69.8792953   7.6089687
   3.5299678  70.0532761   6.1083322  14.9107056  40.2201080  28.3370438
  14.7329874  39.2795868  28.3288097  14.4245424  40.5622978  27.5868568
  60.1625290  67.1483459  11.4288702  59.8219185  67.3809814  10.5651016
  60.9950066  67.6165466  11.4921179  17.8165798  61.1422462  57.6628227
  18.4224720  60.4426346  57.9071045  17.1184158  60.6974907  57.1822090
  11.9871483  53.1657753  54.6172371  11.2539034  52.5704880  54.4616280
  12.1245956  53.6014748  53.7761002  27.4386120  42.0656586   0.2432466
  27.0930672  41.9724770   1.1310232  27.3643856  41.1898499  -0.1358103
  25.3439865  45.2707977  34.8732491  25.2685547  45.2050323  35.8252029
  25.3849449  46.2114143  34.7006416  39.0050583  51.4358673  25.4588108
  39.0509186  50.4902687  25.6001358  38.1712303  51.6963615  25.8500996
  44.8591881  47.0917397  13.8774700  44.1275864  47.0133553  14.4897156
  44.4626503  46.9746475  13.0141754  76.8321152  47.5800934  29.6896229
  77.2742004  47.1062584  28.9851570  77.2772141  47.2935448  30.4871216
  82.5504532  32.8763580   2.0028713  82.5623169  32.2154083   2.6951404
  82.6777115  33.7065010   2.4621048  54.5461655  43.1769180  50.8808022
  53.9704514  43.5130768  50.1939354  55.0566559  42.4907684  50.4508896
  34.9072495  33.8440437  61.1503830  35.7900467  33.8320122  61.5201874
  34.5171204  33.0175400  61.4348564  39.2806702   2.6359625  49.0227165
  39.2884254   2.6146319  49.9796448  38.6597481   3.3307266  48.8036537
   2.8259709  25.1604710  20.7079659   2.5671084  25.9432220  20.2216320
   2.4045975  25.2587242  21.5617943  73.5416489  68.1658936  57.3870621
  74.0286865  67.5929794  56.7947769  72.9730301  67.5737839  57.8793106
  10.1418009  31.5459881  80.5480499   9.9424524  32.0279655  81.3506622
  10.1961050  32.2203636  79.8709183  66.3710098  10.8467388  33.1049156
  67.1128845  11.3513689  32.7714462  65.6384888  11.0973902  32.5420570
  21.9751530  40.1671715   5.8085890  21.2474461  39.8862953   6.3633690
  22.2004948  39.3899078   5.2974038  57.8663902   1.3120718  47.3281631
  58.1815414   1.9148794  46.6547127  57.3272591   1.8555652  47.9027786
  73.7689514  44.8792114  35.1699409  74.0871048  45.2145271  34.3317451
  73.6029434  45.6628609  35.6939392  16.9862480  58.5612640  71.8869705
  17.6373978  58.8662224  72.5188217  16.1504555  58.8708420  72.2360306
  81.9317245   2.6253901  17.1949368  82.8024826   2.6871445  17.5876083
  81.8259583   3.4475617  16.7163143  36.7940331   0.0633793  46.5244064
  35.8858070   0.2661410  46.3002625  37.0426369   0.7411137  47.1529808
  32.9564171   1.7497541  51.5461044  32.6098061   1.2463038  52.2827377
  33.8551865   1.4367323  51.4438438  19.5832157  36.6016426  17.9868908
  19.4476299  35.8214035  18.5245438  19.1011238  37.2924576  18.4414158
  21.3367462  12.0037022  28.0901337  20.6324043  12.5593109  28.4239502
  21.2238331  12.0189428  27.1397381  67.3415298  23.4940205  64.0655441
  67.3289185  24.0821304  64.8206635  67.4974670  24.0692520  63.3165321
  22.9255924  54.4858589   9.5235443  23.0059757  54.6271667   8.5802507
  23.4692898  55.1693420   9.9153042  30.4786396  51.2890663   7.5513711
  30.9781628  50.9719887   6.7989268  30.9768925  50.9910698   8.3124065
   4.3240361  35.0172005   5.0925598   5.2232633  34.7179604   4.9581070
   3.7836578  34.2584305   4.8723555  20.7755508  58.2522163  16.3631077
  20.2492046  57.7668037  15.7278385  20.1450005  58.8064880  16.8229103
  66.4042816  55.8529701  72.7360992  66.3550797  54.9240952  72.5102692
  67.0537491  56.2123222  72.1317062  13.9550428  10.2479639  53.2209435
  13.3868914   9.5065870  53.0116692  13.7510586  10.4561558  54.1326904
  52.0757027  40.1556358   5.7606139  52.6188354  39.6012192   6.3208480
  51.7101135  39.5548553   5.1112795  23.0080299  53.6081543  82.5435638
  23.5381279  53.6383972  81.7471313  22.4883041  54.4114952  82.5160065
  67.8071747  27.6800270  84.3703613  67.0465698  27.4836578  83.8234100
  68.2935944  28.3398914  83.8761902  51.9805870  24.0454388  58.5251350
  52.4186363  24.4437237  57.7729988  51.8320007  23.1370754  58.2624016
   2.9679275  35.2195091  61.3598442   2.0327909  35.2090492  61.1557808
   3.2727852  34.3414116  61.1312981  12.2968121  40.0799599  38.4567223
  11.7975368  39.6823158  37.7433929  12.1015186  39.5346603  39.2187843
  15.7042332  69.3317566  48.3447037  16.6174850  69.0515671  48.2838898
  15.2510099  68.8178101  47.6763611  23.1043491  33.1355400  32.5442009
  23.4127769  32.9955673  33.4394760  23.8553848  32.9120598  31.9944458
  73.0407410  48.1679001  50.6789436  72.3838196  48.2527504  51.3699455
  73.6730194  47.5383644  51.0255585  35.4706268  36.3441849  88.0477753
  35.2418213  35.5914116  88.5929489  35.8134460  36.9911003  88.6643906
  63.2726135  17.0088348  74.3514481  63.8950844  17.5625877  74.8227463
  63.1263123  16.2635078  74.9339523  75.0461884  25.4792156   0.7971114
  74.7187881  24.9202271   0.0924331  75.6134872  26.1121120   0.3568318
  51.4864197  28.5346432  71.7401810  52.3168716  28.2797203  71.3381882
  51.6854439  29.3462772  72.2069473  47.2272263  11.5096178  67.6290588
  47.8892860  11.5851030  66.9418793  46.9463005  10.5953369  67.5915985
  27.6481209  44.2773056  11.7422190  27.4550934  44.9549789  11.0943527
  27.6347160  43.4596214  11.2447796  71.4664764  41.2159309   6.2926860
  70.9059143  41.1548462   7.0661669  72.1956940  40.6242142   6.4780345
  43.1809959  32.0721588  14.6303692  42.6559410  31.6098537  15.2836866
  43.9824409  31.5539742  14.5568705  32.9546127  18.1089020   4.1786518
  33.0818672  17.9460945   3.2440228  33.4550819  17.4178410   4.6124692
  71.2955933  32.6929245  21.7616634  70.7186050  32.7550125  22.5228882
  71.0502167  33.4384155  21.2136974  79.5409851   1.8865173  35.5519867
  78.8008728   1.9967456  36.1489105  80.2949753   1.7555754  36.1269493
  29.8722286  32.1009445  75.5550079  29.7806950  33.0523071  75.6075439
  29.5886440  31.7852955  76.4130173  68.3781052   5.0628438  68.1909027
  67.5124359   4.7403011  68.4415207  68.2110596   5.6476603  67.4517670
  66.2457199  41.7026367  13.9520655  66.5011597  40.9623222  13.4016857
  66.9096375  41.7291451  14.6410856  64.2034531  32.4116287  82.8598480
  63.7803230  32.6924019  83.6712418  64.8287888  31.7413368  83.1353531
  14.2528839   5.0372109  24.0052605  13.9706144   4.1850753  24.3375549
  14.9598103   5.3016491  24.5939541  45.5498962  14.8931494   3.1853328
  45.4958191  13.9628849   2.9664338  45.8326950  14.9080019   4.0996828
  63.6789627   7.5712867  42.5941696  64.1272507   6.7278104  42.6559448
  64.3303757   8.2104492  42.8828964  63.0881386  23.3411007  77.6660614
  63.3595200  23.2772789  76.7503586  63.5206909  24.1313477  77.9895401
  42.6706161  52.6721954  12.7715311  43.5175438  52.6810875  13.2174788
  42.0378914  52.8940849  13.4546537   1.7672588  63.4807549   2.7482526
   2.2439940  62.8564262   2.2012875   1.0356584  63.7679710   2.2019007
  42.7845879   5.6573553  18.0809860  43.3575554   6.4165421  17.9733868
  42.4420509   5.7400260  18.9709663  44.2405319   9.9429865   0.8005300
  44.5147324   9.4046049   0.0581068  44.4456482  10.8394527   0.5349956
  18.0604286  66.7726898  88.7238464  17.1918564  66.8969727  89.1064301
  18.6397934  66.6581268  89.4771347  55.6049347  69.3039703  70.7448196
  54.6853142  69.5450974  70.8561325  55.5785065  68.4635544  70.2874069
  45.9165382  43.1897316   2.3939517  45.3875351  43.4669151   3.1419878
  46.3349228  43.9935036   2.0855064  51.9052353   6.7729368  63.2407913
  52.8603859   6.8290739  63.2131729  51.6062202   7.6365247  62.9561195
  23.8102684  40.8814926  63.6371765  23.1013527  40.5463562  63.0882187
  23.3830452  41.5019417  64.2277298   3.9838481  39.1102943  14.0319452
   3.4277506  38.9052887  13.2803078   3.4148848  38.9864922  14.7916727
  29.9755154  18.0624771  16.3658981  30.9243031  18.0488186  16.2400131
  29.7280769  18.9760418  16.2230492  39.6882515  54.6070671  64.2743607
  39.8010063  53.6576691  64.3208160  40.5270462  54.9625359  64.5681305
  57.1681976  58.8746986  87.3706055  57.9901390  58.4323845  87.5827484
  57.3450966  59.3258400  86.5451279  42.7676201  54.9211502  56.8423882
  42.5981293  54.9707603  55.9016228  41.9339180  55.1578636  57.2487679
  10.9708004  56.4945946  84.1193619  10.3620195  56.3063774  84.8336411
  10.5787134  56.0749016  83.3536224  59.6556435  18.1998730  88.4877472
  60.2290497  18.1670551  87.7220001  60.0119019  17.5396328  89.0822144
  51.1519852  25.0812759  31.7613945  50.7649422  24.2059498  31.7765846
  52.0347977  24.9588966  32.1105309  12.3235197   8.1288013  81.7610092
  12.1666775   7.6540556  82.5772552  11.5167770   8.0145540  81.2586746
  85.1912308  16.0949326  79.1959991  85.4206772  15.5817213  78.4212723
  84.2671356  16.3126431  79.0740128  31.5014782  40.9288406  83.4403152
  31.5270004  40.8093796  82.4909439  30.6063290  40.6962776  83.6869965
  14.2327433  51.3768578  64.3624344  14.0251799  50.6563187  63.7674828
  15.1225271  51.6362534  64.1232071  16.5930500  62.1287041  87.3963089
  16.1221561  62.6057320  88.0796280  16.0058613  62.1508484  86.6406937
  26.9720211  25.0816345   7.6665959  26.8725185  24.2790413   7.1545644
  27.8169785  24.9826355   8.1053200   0.9518000  33.7727585  33.4917221
   1.1008898  34.7075806  33.3499107   1.6097455  33.5208817  34.1397171
   7.6801896  52.5046463  39.5451012   7.1290903  52.3980942  40.3204498
   8.4363089  51.9411583  39.7094078  12.3575592  14.6384010  28.7404423
  11.7029562  15.1109934  29.2546234  11.9206743  13.8258724  28.4851761
  80.0942535  62.2091103  55.0792503  79.5472412  62.7117500  55.6828728
  79.6537094  62.2895012  54.2332649  85.1076202  63.7281609  29.8719673
  85.0981216  62.8292007  29.5433102  85.0771866  63.6353874  30.8241730
  34.4210052  12.7525883   1.0295300  34.1831207  11.9422312   1.4800436
  34.4226799  12.5189562   0.1012818  70.9098206  -0.2007054  87.9166412
  71.1589584   0.1228609  88.7823563  71.5838394   0.1420522  87.3297424
  46.9056244   5.6917319  48.1971550  47.1033897   5.4080772  49.0897141
  47.3242149   6.5490928  48.1200180  70.1457748  37.9204559  73.1811066
  69.8613739  38.7792053  72.8682175  69.4195862  37.3348694  72.9667130
  39.6984138  56.9559250  66.1283646  39.9579124  57.6642990  66.7175140
  38.8178406  56.7153397  66.4163589  42.8045654  31.2616138  41.6393127
  42.9071960  31.0554104  40.7102394  43.4384613  31.9603729  41.8010101
  22.7376385  62.6449432  15.0162420  23.1838608  62.2168274  15.7468824
  21.8613586  62.2597885  15.0119505  47.4450150  29.1843700   7.1515250
  47.7095490  28.9839497   6.2537026  46.5179405  29.4124966   7.0827994
  51.0358734   1.2682663  34.7778702  51.7005539   0.6023186  34.9537926
  50.2381477   0.9219719  35.1778030  18.8817787  44.2434540  86.1642761
  18.0684071  44.1609650  86.6621246  18.9920731  43.3911743  85.7427444
  32.7604370  68.8939667  36.6849747  32.9489250  69.5724411  37.3333435
  33.5236435  68.3169556  36.7133026  58.7793159  20.4611492  68.5322189
  58.6288834  21.1982689  67.9403992  57.9250336  20.2961369  68.9312286
  53.0538101  25.3531456  83.6603546  53.4429436  24.6479702  84.1775970
  52.5092850  24.9037056  83.0140381  25.9808731  53.3568878  29.6530457
  25.3226128  52.7073822  29.9001598  25.7739983  53.5736504  28.7439518
  69.3263321  70.1798248  81.9701920  69.4840851  71.1233749  82.0028000
  70.1935425  69.7963791  81.8392410  85.7373199  47.7893066  41.1553955
  86.0356369  46.9098701  40.9233780  84.9138184  47.6474800  41.6222687
   3.8454499   4.4278088  59.1211624   4.7648087   4.5622635  59.3512383
   3.8532684   4.2900481  58.1739616  45.0883331  23.1194706  40.0639839
  44.4387856  22.5361404  40.4564705  44.9355659  23.0486031  39.1217117
  40.8415527   2.3997157  15.6375246  40.8087158   3.3478761  15.5104609
  41.6412582   2.2533233  16.1427689  16.4636021  65.0350647  10.3306932
  17.0459766  64.3615570   9.9793243  16.4644890  65.7232895   9.6654339
   9.1979704  22.3210583  77.2412796  10.0269556  22.2436028  76.7690353
   9.2024975  21.5866356  77.8551483  22.3606110  49.2693481  67.1732941
  22.3115196  49.4420509  68.1135025  21.8921757  48.4427681  67.0568237
  82.2945633  35.0847931  29.1226044  81.7501144  35.1935539  28.3428707
  82.7755203  34.2718811  28.9674110  10.9454517  52.3401070  60.5983467
  10.9843540  52.5710564  59.6702423  10.3544989  52.9881287  60.9818535
  35.7049065  40.3990517  16.4602966  35.4565506  40.9674377  17.1893272
  36.0752640  40.9939079  15.8082132   4.0234132  28.4772434  23.4459286
   4.5249724  27.6622715  23.4237785   3.5970213  28.4728489  24.3029022
  48.9477158  41.0354919  77.2873077  48.9148941  41.7425537  77.9316864
  48.1866226  41.1866875  76.7268524  81.2522507  12.2148476  35.7232018
  80.7455292  11.7129459  36.3616142  80.6577530  12.3286209  34.9816780
   5.1588678  58.5806885  82.7623672   4.2480106  58.4620705  82.4931107
   5.6340818  57.8807602  82.3145981   0.2503305  56.2657242  53.3160019
  -0.0393333  57.1572838  53.1224861   1.1155196  56.2018852  52.9115219
  69.8261871   6.9626060  32.3245850  68.9691086   7.3256683  32.1013374
  70.1296310   6.5501857  31.5158424  11.8043690  58.7802429  35.5777245
  10.8834553  58.9222298  35.3586578  11.7820730  58.2704544  36.3875694
   3.6952672  45.1545105  32.9370613   4.3267303  44.6549873  33.4547119
   2.8452337  44.9329720  33.3173180  26.6622162  46.8243637  84.9723434
  27.1675224  46.6157379  85.7580719  26.4330463  45.9721260  84.6016617
  63.2876320  13.1161194  29.5860023  63.0561485  12.1886053  29.5373821
  63.5780144  13.3372116  28.7011127  15.4062243  71.2082138  43.6905899
  14.5781279  70.8993759  44.0581589  15.1541548  71.9043427  43.0838814
   6.2661471  21.7629280  51.8246689   5.5818830  21.4110813  51.2552643
   6.2852106  21.1663895  52.5730057   1.7838829  43.3869209  58.1284180
   1.9048098  43.6201782  59.0488510   1.8708093  44.2159119  57.6578331
  60.2741013   6.4307880  73.0237503  59.7095108   5.7357960  73.3620605
  59.8759842   6.6777558  72.1890411   1.0564759  22.4032516  60.6070862
   0.8271120  22.9013290  59.8225212   2.0136137  22.4002438  60.6175766
  68.5804367  42.4351273  41.7919731  68.6800613  43.3531761  42.0439491
  67.6434326  42.2620735  41.8830833  75.1218643  18.6454468   0.1544679
  75.2688675  19.4088421  -0.4039678  75.0182343  19.0085182   1.0340545
  69.9776230  11.0333929  22.8091755  70.4572144  10.9572954  21.9842949
  69.0562820  11.0483942  22.5500488  27.6153202  71.1142502  52.9952583
  28.2994633  70.4729080  52.8032722  27.9856987  71.9509506  52.7142067
  76.1688309   3.8444080  72.5922012  76.2182007   4.6705103  73.0731888
  75.4340057   3.3784947  72.9911957  46.4049263  18.5765934  11.2492142
  46.8734627  19.4019070  11.3739843  46.7375946  18.2354546  10.4190407
  48.5908508  15.2760725  66.6069260  48.6624565  16.1979561  66.8543777
  48.9495621  14.7987118  67.3550491  61.9740791  29.3865929  74.3827515
  61.8254852  30.0917091  75.0128021  62.6746559  28.8623447  74.7708130
  15.4724216   3.3125551  58.4560814  15.3573446   3.3052292  59.4063110
  15.7870922   4.1949711  58.2597237  49.0313835  65.6325073  55.9688454
  49.7033691  64.9760590  55.7851562  49.5222130  66.4085159  56.2392921
  40.3773689  62.8646698  86.2436371  41.1401558  62.5485611  85.7594223
  40.5695038  62.6539116  87.1573639  53.9936142  12.5145111  60.2814941
  53.4656487  13.1635618  60.7464867  54.5000381  12.0810852  60.9684525
  31.0031738  54.3368225  77.2439651  31.5608883  54.7693405  77.8905869
  30.4707146  53.7280121  77.7558899   9.0074978  43.3496284  59.6675301
   8.4820518  44.0869598  59.3569183   8.4122200  42.8498077  60.2261467
  44.2203827  59.3695869  70.7206726  44.1785698  58.4309235  70.9034195
  43.5451012  59.7528801  71.2804108  76.8349686  40.7947159  76.2647934
  77.6526718  40.8789558  76.7551956  76.4597855  41.6752968  76.2716141
  37.9879875   4.5534410  78.6833649  37.0431137   4.4611330  78.5612030
  38.0825768   5.3192225  79.2498169  79.2702103   2.9311738  64.2039337
  79.3633575   2.9234104  65.1565628  78.7274704   3.6984932  64.0225906
  66.9647064  15.5863228   7.8541040  66.4782333  15.4663887   7.0385089
  67.8836517  15.5917702   7.5862813  15.1670237   2.2992046  61.3382225
  15.9529943   1.8116611  61.0916786  14.8454618   1.8544699  62.1224670
  74.2424545  58.3592453  29.6482372  73.8308029  59.1914139  29.8812008
  73.5694122  57.8884125  29.1567364  60.2128258  40.5252571  21.7537365
  59.4806786  41.0107269  21.3735905  60.5897522  41.1253357  22.3972149
  33.3564186  67.2193451  15.0879393  33.8767700  67.8623505  14.6062689
  33.9367142  66.9163055  15.7862606  69.2260361  44.2732010  63.1301765
  69.6419983  44.8322029  62.4738846  69.3871078  44.7193336  63.9615936
  52.1160812  25.9392567  67.8210449  51.8042793  25.0608521  67.6032944
  52.1904411  25.9372940  68.7753448  51.3242722  23.4059906  66.6599808
  50.5054054  23.5340633  66.1811523  51.8689117  22.8866596  66.0684662
  11.0513477   8.6716518  25.4236851  11.4341631   8.4525871  26.2732124
  11.8049669   8.8194141  24.8523216  40.4090538  48.4692917  68.1989441
  39.7029762  48.2834473  68.8179321  40.6224899  47.6181717  67.8164902
  55.4436111  62.9959297  16.5063152  54.5515404  62.8871346  16.1767597
  55.4426270  62.5483246  17.3524113  35.0140686  61.3937111  67.7509918
  34.6137123  61.1254272  66.9239655  35.2298546  62.3175926  67.6240387
  23.3461418  68.1486893  57.9252052  24.1435966  67.6521454  58.1088791
  23.1999931  68.6681290  58.7158089  32.6862602  21.6050720  70.0292664
  32.4387169  21.1625881  70.8411560  33.6426697  21.6345940  70.0545883
  84.4579697  33.5187187  66.0427780  84.3260345  34.2188225  66.6820602
  83.8487549  32.8310585  66.3115158  66.7445602  14.3803635  57.8294716
  66.6267014  14.4722729  58.7749290  66.2479248  13.5944872  57.6014709
  19.9976883  61.7411118  74.8272781  19.8469524  62.4972038  75.3945847
  20.3260460  62.1164055  74.0102310  57.4375076  70.8680725  42.5720558
  56.6694984  71.0470352  42.0294991  57.6177750  69.9383774  42.4327774
  20.7462082  70.5046387  73.3617325  20.8429165  71.2467194  72.7649155
  19.9369411  70.0765152  73.0823975  34.2065926  49.7403564  79.4941711
  34.8768578  49.5110931  78.8504257  34.1042938  50.6880074  79.4062958
  34.5942802  64.8838272  53.1684799  33.9069748  65.2771301  52.6307449
  35.3690300  64.8862610  52.6063499   2.6309657  34.1520844   1.0827167
   3.5698876  34.1640854   1.2684944   2.5601025  34.4785614   0.1857099
   6.2397218  47.2446671  85.2830276   5.8225627  46.8740883  86.0607681
   5.8102460  48.0914116  85.1613464  11.2304802  17.9979401  18.4574928
  11.3440781  18.9284973  18.2641220  10.2947989  17.8397503  18.3321629
  30.6228790   5.1202345  82.1151733  31.3759327   4.5652337  81.9123993
  30.2507858   5.3404455  81.2611923  24.6960258   4.1645784  14.2105122
  24.8186588   5.1137409  14.1936493  24.6994305   3.9062247  13.2888432
  72.2842026  54.6408157  49.9035492  72.8730011  54.0332947  49.4558144
  72.1572571  54.2560272  50.7707596  14.7775745  18.2311573  71.1162415
  15.4383917  18.3642273  70.4366531  15.2597942  18.3147640  71.9388657
   5.3035254  65.0132141  43.9142647   5.7449055  65.8595505  43.9858551
   4.5216589  65.1040115  44.4589424  85.5065002  62.3538628  77.9686813
  86.3988876  62.6667900  77.8205261  84.9496918  63.0924644  77.7223663
  12.8867245  69.5239410   0.4414412  12.5430212  68.7847672   0.9431585
  12.1508827  69.8082657  -0.1007108  23.9337273  13.5358009  18.6054287
  23.1120014  13.9489861  18.3403339  24.4885044  13.5847836  17.8269310
  81.8759995   9.4618196  47.1371727  82.0155106  10.1226225  47.8154869
  81.9092178   8.6274805  47.6051559  40.5020332   9.9849358  83.5610123
  40.3069572  10.7884655  84.0432053  40.6962166   9.3391161  84.2403030
  78.8519363  68.7545929  78.6210098  79.1156540  67.8747406  78.8903503
  78.0538788  68.6195450  78.1100388  16.8894615   6.4927025   2.3893917
  16.7574100   7.3982081   2.6701999  17.6910610   6.5184493   1.8668920
   5.6799750  33.8279266  52.2593422   6.5834618  34.1440392  52.2551270
   5.2087135  34.4421005  51.6963692   9.7575245  10.5603046  63.9294357
  10.3004618  11.3389349  64.0526657   9.9357100  10.0198050  64.6990738
  37.1293869  60.6601181  23.8852310  37.5777435  59.8238869  24.0114155
  36.9923134  60.9945297  24.7715778   9.9085445  60.3416290  80.0448151
  10.4316597  59.6929550  80.5157700   9.4402580  59.8354340  79.3809586
  27.1391506  69.0444870  13.9340954  27.6343002  68.4292374  13.3932381
  26.2755356  69.0833511  13.5231323  81.9640350  18.6511230  12.7063856
  82.1122208  18.8683834  11.7860203  81.6834106  19.4749928  13.1047840
  43.0655785   1.5294238  88.6906815  43.3588486   0.6535038  88.9416580
  42.2059212   1.6210663  89.1015625  23.6464176   3.9265642  64.6907730
  24.1330147   4.3761396  63.9998741  23.1776829   3.2262700  64.2367783
  14.7066813  32.5810280  62.2547226  14.3351440  33.0248489  63.0170937
  14.5108309  33.1625061  61.5200424  78.6021423  58.2096977  50.5273514
  79.1084976  58.7573242  51.1273041  79.2617798  57.7548218  50.0037041
  55.4904251  23.4427223  24.4606953  54.8346901  22.7863255  24.6960449
  55.1981544  23.7804108  23.6140690  55.4218750  50.0564423  20.6350727
  55.3502350  50.8811417  20.1544819  56.2328033  49.6619034  20.3141918
  38.0676270  24.0569382  82.8040009  38.2665176  24.6041565  82.0442429
  37.2821465  23.5720005  82.5508499  72.4094391  31.8285465  81.9718018
  72.7898560  31.4331360  81.1874771  71.9656754  32.6143532  81.6527176
   1.5038010  15.2696829  44.9833679   1.4507593  15.0951757  45.9230270
   2.0384572  14.5553064  44.6368980  25.8240757   0.9797971   8.5326357
  26.4844875   1.1608740   9.2014399  25.0093594   0.8722503   9.0234556
  14.3365402  50.2747688  23.4628582  13.8201361  49.5371819  23.7876987
  14.2361383  50.9509659  24.1328678  10.4090595  16.2489815  26.7883282
  10.3456926  16.9082127  26.0972214  11.0016928  16.6345997  27.4335537
  45.8664551  13.8422070  73.3764572  45.9008827  14.2736149  74.2302322
  46.4907455  13.1201086  73.4476318  70.8366699  25.6121769  53.7120361
  71.1476898  25.9108219  54.5666161  70.5153961  24.7246037  53.8708649
  77.4817505  33.3243523  11.6274700  77.2937775  34.1508865  11.1827898
  77.2410889  33.4832916  12.5401869   5.1734042  49.2204132  12.3743410
   4.4769454  48.5801888  12.2284288   4.7897758  50.0562897  12.1090670
   1.1900672  54.3357201   0.2049893   0.2666218  54.4393082   0.4346620
   1.6549785  54.4216995   1.0372734  16.3584671  62.3181114  77.5267029
  15.6874456  61.6812592  77.2809830  17.1848125  61.8448563  77.4296799
  70.8368378  21.7204762  31.9435425  70.7054520  20.9698906  31.3642406
  71.4067383  22.3086071  31.4480114   7.3123717  17.9835682  22.4983063
   7.7735543  18.5213089  21.8545856   8.0072527  17.6109009  23.0409775
  74.2275543  60.1489868  27.1549911  74.5237122  59.2462502  27.2715740
  74.5735703  60.6147804  27.9162674  30.3560982  55.7425766  54.7113495
  29.9330139  55.7374611  55.5699577  30.9059315  56.5260544  54.7199364
  52.0221901  52.8784866  85.1180725  52.4954987  52.8079529  85.9470673
  51.7726097  53.8009033  85.0624924  74.6791306  14.5879898  72.6414413
  74.2298279  15.4043493  72.8603439  75.5626450  14.6992731  72.9925156
  33.8753242  37.7187576  24.8948402  33.9218483  38.4620247  24.2934933
  33.9882393  36.9504585  24.3351994  24.6043301  69.0268173   1.9067321
  25.1305656  68.9714127   2.7043781  25.0712891  68.4817886   1.2733876
  18.0405350  70.3300705  41.8495026  18.6964970  69.6337814  41.8831673
  18.4467163  71.0642624  42.3101616  16.2655926  60.1449699  80.8480377
  16.2082176  60.3090210  81.7893219  16.9022408  60.7858772  80.5315781
  58.4606552  16.9649181  71.2508774  58.9411621  16.4723034  71.9162140
  59.0132256  17.7253628  71.0702667  51.8407555  64.6777039  36.9331512
  51.4193268  64.7545013  36.0771523  51.1183128  64.7148819  37.5599899
  24.1776524  23.3652134  64.9941711  24.1557312  24.2304726  64.5854187
  25.0870018  23.0804482  64.9034882  51.1920433  60.8645630  24.7563190
  50.4798431  60.2766991  25.0081520  51.9875984  60.4078217  25.0296478
  47.2771187  56.6614113  20.6686764  48.1916466  56.7224579  20.3927345
  46.7795410  57.0041122  19.9262428  37.5522728  21.8885822   8.0648270
  38.2522964  22.2347660   8.6183224  37.4631042  20.9746475   8.3350191
  68.9702988  23.5506840  82.9200821  68.8104858  23.1140175  83.7567520
  69.7549286  24.0777550  83.0710220  40.0017128  60.1727486  87.8151627
  40.2311745  59.5105515  87.1631851  40.8368683  60.5773354  88.0498047
   2.2578423  27.0510788  19.0397320   1.5447320  27.6330471  18.7770176
   3.0517206  27.5679359  18.9024391  44.9837379  62.6389503  65.4631348
  45.6564064  63.3198051  65.4495468  45.4697876  61.8200798  65.3659973
  55.0482483  55.9536324  42.2933388  55.1747169  55.0117302  42.4075928
  55.3600731  56.1312637  41.4059563  68.0784302  30.9649620  20.5441322
  67.2853317  30.6801033  20.0901680  68.4070282  31.6937809  20.0177498
  71.7566833  43.5803566   3.4022830  71.3875809  42.8737679   2.8724403
  71.5720520  44.3757782   2.9028399  26.9625664  65.2065659  64.8613663
  27.6934090  64.6384277  65.1049194  26.2380638  64.9154816  65.4150772
  82.7707672  16.2545872  46.5647240  83.7233276  16.1624470  46.5453072
  82.4432983  15.3552017  46.5745888  26.3092995  40.9711647  78.2252350
  27.0447311  41.5264320  78.4841690  25.5383129  41.4142036  78.5795288
  40.1401482  35.2843018  62.3769226  40.6742363  34.5805244  62.0085716
  40.2208443  35.1753540  63.3244743  17.6362000  49.5950279   8.0918036
  16.6848354  49.6398697   8.1873341  17.9373093  49.1652527   8.8923416
  39.2257423   8.9982767   7.6648755  38.8083344   9.2785969   8.4793835
  39.9764977   9.5838861   7.5665975  52.6939774  59.7232056  13.2018700
  52.1735268  59.1034203  13.7129765  53.5517387  59.3061485  13.1210136
  77.7369766   3.5953934  24.6335735  78.1897888   4.4351082  24.7114811
  77.6409378   3.4616432  23.6906414   3.7861640  21.7673321  28.1913052
   3.2730923  22.3088379  27.5915051   3.2925742  20.9499073  28.2577705
  65.8087387  30.1903706  88.8609924  66.0829544  29.2806759  88.7448196
  66.3418045  30.6827869  88.2368164   4.6666837  43.7153091   8.2882919
   5.0151739  43.0060463   7.7481666   3.7176809  43.5934372   8.2604847
  51.4946747  62.1795845  85.5218506  52.0519257  62.9007835  85.8143845
  52.0854759  61.4286957  85.4639206  24.4039001  57.2135544  42.7961311
  25.1565075  57.0716095  43.3702927  24.2618504  58.1599236  42.8169937
  40.1718140  43.7868118  17.8123589  39.4252586  43.1961441  17.9123554
  40.8827629  43.2243500  17.5050831  30.0681419  69.1964645  84.5865936
  30.2509422  70.0328064  84.1584091  30.9165039  68.7545013  84.6209488
  23.1617870  63.0660439  52.8547859  23.5915012  62.2483711  53.1057625
  22.4375305  63.1559067  53.4741478  32.0127945  51.2066002  43.2893600
  31.5239353  50.4557800  42.9524307  32.7371521  50.8196449  43.7810974
  77.3894501  49.2558250  45.7474861  76.4504623  49.2704048  45.9327736
  77.6411285  48.3389130  45.8577805   6.2593331  70.7480164   1.0608107
   6.6535816  71.2812576   0.3705547   6.7851725  70.9357224   1.8383002
  71.7286682  55.0714073  59.8898430  71.6017914  54.3162956  60.4642448
  70.9151993  55.5700302  59.9665222  56.2760887  52.4242935  17.9512901
  56.6868706  53.2843475  18.0395794  56.9207802  51.8983994  17.4779606
  59.6157341  70.9782562  45.6551323  59.2423744  70.1423492  45.3756714
  59.0621262  71.2557831  46.3850136  79.8502045  35.4575882  56.3703957
  79.8736267  35.0974579  57.2569542  80.4672241  36.1890411  56.3926239
  55.0396042  37.3301735  40.0223198  54.5107918  36.5452194  40.1652870
  55.5804138  37.4011726  40.8089066   7.4229918  68.4856720  56.3536377
   7.4767299  68.6808014  57.2891960   8.3348188  68.4209518  56.0697098
  35.6971397  69.4376526  81.0571289  35.9031830  68.9781570  81.8711548
  36.5121269  69.8793564  80.8185272  56.1272163  56.4422417  53.7392960
  56.1932945  55.6984024  53.1404877  56.9592056  56.9048729  53.6392860
  56.7863770   8.3274164  57.8461342  56.6113243   8.6926107  58.7134399
  56.4774704   8.9981031  57.2370453  44.3658142  50.9215584  75.1295471
  44.1093636  51.7769890  75.4740677  45.0112343  50.5946312  75.7562714
  63.9978027  61.1377754  33.6115189  63.4487343  60.4811401  34.0399857
  64.8442078  61.0672035  34.0529404  37.8537979  40.8402290  55.0639572
  37.9569778  39.9322586  54.7790527  38.6601028  41.2726250  54.7826347
  65.3105087  70.0498962  21.9314175  64.4760742  69.8621445  21.5016575
  65.6346054  69.1933365  22.2098007  64.2346191  30.4663486  12.4895020
  64.3914032  30.8796501  11.6404848  63.2959251  30.5774899  12.6402893
  19.7847271  10.3578348  15.2605972  20.1247864   9.9966936  16.0792351
  18.9090252   9.9803171  15.1777668  10.6894169  61.7371368  54.0858879
   9.8003025  61.9236565  54.3874092  10.5999517  60.9499779  53.5486641
  82.1360016  22.7613049  33.1157074  81.5917587  22.2410526  32.5246277
  82.2702179  23.5880413  32.6523209  19.9130325   4.3232298  29.7426071
  20.7786598   4.3967519  30.1444988  19.5695953   3.4897101  30.0643616
  40.7369270  55.7751961  11.2435446  39.9135666  55.5148354  10.8306046
  41.3950195  55.6624184  10.5576677  76.2261658  25.7223663  51.9438934
  75.4721603  26.0877361  52.4067192  76.5667953  26.4525089  51.4270782
  15.4523106  66.2191086  35.4275513  16.1596832  65.5921326  35.5783958
  14.8648748  65.7749100  34.8161316  39.1657677  37.3380737   7.3807077
  40.0174332  37.4465141   7.8039575  39.0576706  38.1297913   6.8537073
  85.7680283  51.1459999  70.9621811  85.2649841  51.9416771  70.7887497
  86.3391647  51.0527573  70.1997223   5.0984011  37.6760445  52.9301720
   4.1927814  37.4384422  52.7311020   5.5537930  37.6083298  52.0909691
  76.5731888  37.7430916  76.8652267  77.3961639  38.2075806  76.7129288
  75.9764252  38.0893021  76.2017136  66.1650467  15.4043179  64.9352036
  65.2450638  15.6570263  65.0126266  66.1397858  14.4750490  64.7070465
  47.9021950  17.1076431  26.5452003  47.4137955  17.7192745  27.0962048
  48.5708885  17.6470203  26.1231155  81.6758652   1.5007108  42.4506454
  81.7356720   1.2540239  41.5277138  80.7623062   1.3357364  42.6839447
  50.4945984  40.5548706  15.8884335  49.7237206  40.3154488  16.4028816
  50.3995857  40.0642090  15.0720663   0.6603169  50.1503525  49.6173401
   0.3735624  50.7648735  48.9417877  -0.1113898  50.0240402  50.1693764
  23.2544518  48.0510025  74.4446106  23.3257103  48.6742249  75.1676254
  23.5907078  47.2294044  74.8025818   6.2911363  46.9843178  74.1928940
   5.4983010  46.5033798  73.9555283   5.9703016  47.7875328  74.6029510
  61.6091690  61.0220604   3.4069514  61.0181656  60.6853104   2.7334924
  62.2707100  61.5141983   2.9207458  41.6500740  13.0072508  75.9494171
  42.3207436  12.6207247  75.3863602  40.9222336  12.3864861  75.9157791
  40.8514557  35.7728767  12.9204292  40.9334908  34.8554916  13.1810131
  41.6538010  35.9556427  12.4314795  40.5084839  42.4574852  23.6422386
  40.7489929  41.8973846  24.3802586  40.0649719  43.2049026  24.0433617
  47.7985382  70.5294800  30.8527889  48.0495796  71.2931213  31.3724556
  48.4856377  69.8858261  31.0255299  58.3598213   6.2635446  44.9061699
  58.2074165   6.6674290  44.0518379  58.0387459   6.9082909  45.5366020
  51.9026108  57.8051300  40.1141243  51.0577393  57.4253807  40.3554077
  52.5145378  57.0699310  40.1495438  32.2770653  55.5174561  61.2644577
  31.4633198  56.0007172  61.1212616  32.1234932  55.0230179  62.0695534
  45.3170738  27.0943527  23.2950211  46.1829185  26.7732830  23.5469265
  44.9915276  26.4430256  22.6737137  25.3648853  54.5674782  69.3207626
  25.7754536  54.9282875  70.1065598  25.9083366  54.8846245  68.5994339
   7.1729240   8.3973169  57.6497612   7.0496068   7.9332809  56.8216934
   8.0776291   8.2075663  57.8982277  85.3185272  19.9246502  79.1435928
  86.0484314  20.0908794  78.5470734  84.6596375  20.5760460  78.9032211
  77.7823715  51.4670715  13.5315742  78.0179901  52.2667580  14.0019131
  77.5865326  50.8325920  14.2210054  45.3561287  47.9503212  28.8114300
  44.5318489  47.5702248  29.1152706  45.6444435  47.3670387  28.1093712
  18.6272640  62.9016685  16.1036110  19.0624428  62.4430962  15.3848877
  17.7430611  63.0716476  15.7787657   1.3741951  63.9733505  78.3040543
   0.8350181  64.1182709  79.0815582   1.1684558  64.7104797  77.7291183
  31.4373970  60.7949562  81.6349792  31.5732212  61.2495766  80.8036499
  31.3831139  61.4955101  82.2849884  61.3548050  69.8646240  57.6371155
  62.2898216  69.6857834  57.5371475  61.3058815  70.8094482  57.7825699
  14.2623043  10.3070364  74.0763931  13.8999262  10.1634808  73.2021484
  13.9217634   9.5809917  74.5990067  32.7459068  67.9534912  63.1959610
  31.8905525  68.0814056  62.7857895  32.6097755  68.1915894  64.1130295
  61.2545586  60.2100449  81.1976471  61.8890419  59.7071114  81.7082520
  60.4042358  59.8520508  81.4526520   1.3410436  36.2568588  21.6352329
   1.6097547  35.7329025  20.8805847   1.0958164  37.1041336  21.2634468
  53.4061813  41.7763710  11.2365532  53.0132294  42.6462097  11.1644278
  52.8463516  41.2153931  10.6997814  14.9365501  35.0700035   1.8417214
  14.7379818  35.7152596   1.1631581  15.4230080  34.3838654   1.3847717
  36.8573608  28.9737339  82.7684708  36.5270348  28.6860600  81.9173737
  36.9933586  29.9157372  82.6666565  32.1335945  42.3282318  11.6398125
  32.9420929  42.6094589  12.0681524  31.4814968  42.3205223  12.3404865
  16.3162727  13.8841143  61.0700226  15.6831150  14.3915644  60.5622444
  17.0076923  14.5101681  61.2850266  83.6913147  19.8853321   5.6119227
  84.4276886  20.2664909   6.0901532  83.8458939  18.9413433   5.6468887
  62.1215401  38.3637238  37.5738220  61.4480476  37.7256355  37.3382835
  61.9504509  38.5639038  38.4940872  66.1781158  70.5046616  47.7384987
  65.8403854  69.6582489  47.4456444  67.0789566  70.3233337  48.0065384
  28.9462852  56.9316635  15.6454287  28.4727840  57.7634468  15.6325903
  28.3032627  56.2854881  15.3535233  35.7662659   2.6653731  48.1182785
  36.3179054   3.4338155  47.9719124  34.9918633   2.8199081  47.5773125
  63.2195816   0.8670459  28.1212006  63.2487030   0.9178366  27.1657925
  62.7037163   1.6286446  28.3859272  29.8158264  58.4574127  58.1139374
  29.8442421  57.5777550  57.7375984  29.2420216  58.9504051  57.5274734
  65.2443924  57.1320114  48.3396263  65.8604584  56.6665802  48.9053726
  65.7924805  57.5229568  47.6591873  26.2272301  30.9485035  10.2328386
  26.0567532  30.8748112  11.1718483  25.4813251  30.5140610   9.8191748
  24.8966274  49.8368340  41.3669128  25.7717152  50.1009254  41.6510048
  24.3886852  49.7811356  42.1763115  55.0447235  62.9659882  52.6195984
  55.5787239  63.7578888  52.6825905  54.6332664  62.8854866  53.4800949
   9.3044300  20.0666771  78.9991837   9.2938175  19.9623489  79.9506226
   8.4997253  19.6415443  78.7026291  72.3482819  12.2381907  40.1352501
  71.5359268  11.7989750  39.8834496  72.7319031  12.5256310  39.3067284
  84.8529587   7.0752239  88.1127319  84.2157211   7.7590017  87.9063187
  84.4708786   6.6081648  88.8557663  12.7047138  27.1509380  15.1547594
  13.2041512  26.3585434  15.3520031  11.8956470  27.0554028  15.6572695
  73.9343414  68.2261887  71.7525177  73.5710831  68.9512711  71.2440643
  73.7050323  68.4308090  72.6590424  67.0703049  21.1193295  75.3912125
  66.4333801  21.8275967  75.2967529  67.5717239  21.3508110  76.1730194
  39.3458862  64.6213455  18.5667915  40.0358963  64.1391220  18.1111870
  39.4438820  65.5238190  18.2632027   8.4852047  63.2265663  48.0804901
   8.5868025  62.7355843  48.8958702   7.8928800  63.9441261  48.3052025
  73.4023590  51.3393784  38.8650093  72.7200089  51.4743576  38.2074280
  73.1302490  50.5506210  39.3341064  78.6780319  69.9072189  41.9943924
  79.5972748  69.6753845  41.8621826  78.6981277  70.8289108  42.2519150
  62.5670586  67.9453583  30.9615707  63.4047165  68.2701492  30.6313133
  61.9246368  68.5859299  30.6562843  21.5607719  11.5473480  75.4564819
  20.9039555  11.9133759  74.8641586  22.1937523  12.2548742  75.5788574
  13.0537901  56.4061470  46.2888145  13.5415688  57.1140633  46.7097168
  12.5582867  56.0006561  47.0003548  59.6725426  30.9255676   8.3568535
  59.4790688  31.7829762   8.7358646  58.9082718  30.7244587   7.8167787
  19.3209801  58.3225250  51.4350090  19.2911587  59.2778702  51.4865646
  19.2622223  58.0316086  52.3450356  28.9513607  60.8900757  46.8500404
  29.2628632  61.3959808  46.0995331  27.9987469  60.8848610  46.7566109
  25.4338207   5.9146872   5.8037672  26.0786629   6.6200523   5.7501831
  25.5380230   5.5615225   6.6873102  26.6172428  10.8087616  75.4626312
  25.9186859  11.3906012  75.1631012  26.4393482  10.6808233  76.3944092
  65.0542068  48.9223099  30.5328617  64.3048859  49.4496422  30.2559643
  65.3536224  48.4923668  29.7317791  68.2749405  11.0060921  85.2116852
  68.0587311  11.7638931  85.7550278  67.5087967  10.8875027  84.6502686
  64.0277939  10.9554873   9.7836533  63.1855659  10.5395956   9.9678450
  64.5711212  10.7424526  10.5423603  24.0788593  42.1940308  79.6162949
  24.5798969  42.9079285  80.0106812  23.3320446  42.6260529  79.2017365
  52.5618095  33.1309662  11.1527805  53.0381241  33.5769539  11.8531008
  52.1240196  33.8352318  10.6746740  18.1180725  51.6725159  66.6007004
  19.0279427  51.5772896  66.3190994  18.1219807  52.4447174  67.1663132
  64.9911118  42.0793152  39.6865997  64.0637589  41.8422279  39.6811790
  65.2439270  42.0363579  40.6088104  52.7463875   3.4956760  52.3195305
  52.6409798   3.4204352  53.2679291  53.0056648   4.4062905  52.1788559
  24.5149250  19.0637436  49.4759254  24.2434750  18.2539444  49.9081001
  24.2760849  19.7559261  50.0924225  60.2425041  44.1725922  69.2844849
  60.3323364  44.9159393  69.8808060  59.3687401  43.8255424  69.4642639
  52.0315437  53.2542229  40.7529907  52.2645988  52.3682098  41.0303040
  51.1253929  53.1808624  40.4534264  82.4772110  52.8287926  69.3195496
  82.0355072  51.9810829  69.2693481  82.0002518  53.3842773  68.7029572
   6.9321032  54.9941902  23.7966385   7.6133685  55.2802887  23.1881523
   7.1390314  55.4432678  24.6162376  20.7663555  52.2003059  31.6376591
  20.0641861  52.5221062  32.2030182  21.4598351  51.9376793  32.2429237
  61.7253571  52.5827942  23.9169636  60.8868523  52.9124260  24.2402077
  61.6660805  51.6332512  24.0222607  62.3855972  61.4137688  67.2751846
  63.2902412  61.6693840  67.0948715  62.4600525  60.7009430  67.9096680
  22.3181629  11.1583214  79.5661011  22.1918278  11.9431715  79.0329208
  22.0736389  10.4348316  78.9890366  70.0979462  26.0602264  47.3607597
  70.9321442  26.5028305  47.2044182  70.3385696  25.2426491  47.7965317
  49.7667313  11.1705770  29.0520420  49.7024765  10.9448662  28.1240559
  49.2570763  10.4946337  29.4987888  67.8649979  32.7992897  30.2599335
  68.1624603  33.5677414  30.7469959  67.8237381  32.1020622  30.9144611
  27.6863251  70.2207108  77.5951691  27.7221317  69.2649765  77.6341171
  27.4476948  70.4147110  76.6887207  29.0757179  64.6766357  81.1295471
  29.6940956  64.3454285  81.7808075  28.9327908  63.9380913  80.5376358
   3.5300372  14.7712240  31.6776466   3.5823994  13.9527273  31.1841373
   3.0635409  14.5376053  32.4801636  38.2152023  25.2975578  70.8813019
  37.9654045  26.1499958  71.2379303  39.0129929  25.0638790  71.3558044
  82.6812057  61.7181396  38.9157333  81.8154755  62.0481911  39.1561508
  82.7974854  61.9913712  38.0057564   4.3308573  29.4701061  11.3270702
   4.1600008  30.0674667  12.0552197   3.9379525  29.8999386  10.5673981
  61.8496017  22.8033524   8.2139997  62.3600044  23.3854809   8.7768908
  61.3829002  23.3921738   7.6209493  73.2497482  71.0720901  41.1524239
  73.8608475  71.0597763  41.8890686  73.5544128  71.7923660  40.6005020
  45.0939331  40.6783142  11.6565571  45.6741524  40.6816139  10.8952665
  44.3071060  40.2235260  11.3560486  84.1324234  17.7107296  75.4260788
  84.3791580  16.7867355  75.4659042  84.8823395  18.1751251  75.7978134
  40.9601974  43.6271515  59.1012688  40.7588158  43.0716934  58.3481827
  41.1286736  43.0115929  59.8146667  82.0507507  36.3885002  59.9396858
  82.2947388  37.0386848  59.2809258  82.1590958  36.8421440  60.7755699
  33.0370026  67.2843170   9.4394636  32.5702171  67.6669922   8.6965609
  33.1792755  68.0185471  10.0368757  55.5012589   7.2532659  74.7256622
  54.6143150   7.5985084  74.6238327  56.0234756   8.0096350  74.9929199
  14.3630762  52.7206078  66.7133560  14.2078171  52.2279434  65.9074936
  14.7114487  52.0733185  67.3264465  33.8787422   4.3643112   7.0735545
  32.9740677   4.6571178   6.9637566  33.8635635   3.4405529   6.8232102
  45.9896011  41.0458374  57.3821564  46.5527649  40.8349113  56.6374474
  45.9765549  40.2453728  57.9068604  18.3989086  13.6989527  80.6365738
  17.5849228  13.2598181  80.3899460  19.0591812  13.3247118  80.0532913
  16.9942474  62.8515511  46.5646095  16.1999626  62.8586922  47.0987358
  16.8751659  62.1124115  45.9681854  61.8417015  17.2677212  80.1035995
  62.4604912  16.5777187  80.3428192  60.9913788  16.9382896  80.3945618
  20.1167946  62.4603996  45.1337547  21.0034885  62.2616005  44.8329506
  19.8230000  61.6560516  45.5614738  68.6422501   1.9630532  73.8295975
  67.7915268   2.3496895  74.0369873  68.7999954   1.3377683  74.5369644
  75.8741302  57.8279991  79.7669449  76.7244568  58.2348442  79.6006470
  75.2532349  58.5563660  79.7526703  59.5159760  66.8223953  20.4837341
  58.8246307  67.0599518  19.8658028  60.3011703  66.7361679  19.9431152
   6.8994956  21.0007687  72.6723022   7.6049976  20.8143616  72.0528259
   7.3218937  21.4952583  73.3746490  28.6840038  48.8065948  30.9564419
  28.4707336  48.3847275  30.1241093  28.2971325  49.6794968  30.8885860
  51.1232796  67.9010849  56.6236916  51.2242851  68.8395309  56.4644508
  51.4477768  67.7731171  57.5150681  73.3235397  55.0142441   1.3459055
  73.6309662  55.6893845   1.9508047  73.4519119  54.1921883   1.8191679
  73.9863281  29.3654976   7.7835999  73.2815170  29.5230217   7.1553850
  74.7460709  29.8101234   7.4076519  78.1684570  33.0154572  19.1743126
  78.1128616  33.8260841  18.6683216  78.6821365  33.2502556  19.9471207
   4.0882258  11.8985415  12.7403593   3.9833586  10.9901810  13.0234070
   3.8798070  12.4171333  13.5174408  35.5557976  58.5229301  22.5777740
  34.8174591  58.7869453  23.1267548  36.3297997  58.8020363  23.0669117
  18.7304001  60.8302193  77.4566727  19.0870762  59.9662666  77.6630707
  19.3943920  61.2366600  76.8997650  52.3619423  52.7376595   5.0436673
  52.9093437  52.3534126   5.7284579  52.4691544  53.6824913   5.1533380
  82.3940887  54.1287155  57.6549339  82.0675125  54.8758163  57.1535225
  83.1899643  53.8612556  57.1952782  60.4812698  13.9107037  29.0256958
  60.7944374  13.7572508  29.9171047  61.2769356  13.9432974  28.4945831
  10.8626242   8.6768875  89.2820740  10.1676092   9.3302650  89.2027969
  10.5294466   7.9142241  88.8092422   2.8001165  48.3129883  19.6279602
   3.6979275  48.5971909  19.7994118   2.3959463  48.2606087  20.4940643
   6.4381175  67.7960510  79.7103195   6.7209601  67.7249908  78.7986221
   6.7829890  67.0080261  80.1302032  32.6096802  60.9659538  85.9347382
  32.8975334  61.4197273  85.1426163  33.1848946  61.2985725  86.6237411
   2.2390578  10.3185892  72.3162613   1.4491032  10.6742601  72.7233200
   2.1861215  10.6013145  71.4032974  82.5547104  10.5005245  20.0606594
  82.4389877  10.8408031  19.1735001  83.0958176  11.1565104  20.5001068
  51.7990341  35.4798203  87.5288086  52.1292114  36.3758278  87.5950394
  50.9828758  35.5611763  87.0353546  71.2509155  13.2723083  30.3498726
  72.1970825  13.2575598  30.4940662  71.1159058  12.7085848  29.5881519
  15.6717014  53.7253799  70.4190674  15.5110502  54.1195526  71.2764206
  16.0993290  52.8917427  70.6150589  37.3502960  31.3863640  80.5322647
  37.0336494  31.8838902  81.2862167  37.3296242  32.0110321  79.8072891
  69.9210358  30.3944836  45.7754974  70.3423767  30.4037952  46.6349258
  69.0368042  30.0698509  45.9457550  55.3854713  47.1290817  68.2933960
  54.6012688  46.7484169  67.8979797  55.6569290  47.8107033  67.6786270
  13.1688242  70.0390167  39.9371071  13.0814457  70.2780228  39.0143547
  14.1120634  70.0516205  40.0995064  53.6984367  60.1837616   2.8464336
  53.7175522  61.0251007   2.3903408  53.2496910  60.3687096   3.6714518
  54.9252243  36.0125465  68.0991135  54.3638992  35.6485672  68.7837067
  54.4545822  35.8360710  67.2845001  16.8192749  63.7448044  57.3035355
  16.0787029  63.6759834  56.7010002  17.1717453  62.8562012  57.3523102
  31.8522568  37.8233147  83.9421082  31.2179508  37.9921837  84.6387939
  31.9768963  38.6735420  83.5204315  49.6840935  21.4606571  53.7019882
  49.8020554  21.0219555  54.5445213  48.8279877  21.1626472  53.3945732
  67.0607147  41.9469681  50.1356010  67.6613388  42.6872902  50.2216911
  67.4907150  41.2335892  50.6072159  80.9649582  64.6476898  54.2161140
  80.8978348  65.3271713  53.5452690  80.9600906  63.8256569  53.7257347
  79.3782959  12.2284651  44.0302467  79.5241852  11.5058765  44.6408310
  80.1421509  12.2127066  43.4536095  82.7169876  29.1674747  80.1871414
  83.1762085  29.0305538  81.0157547  82.3861923  28.3009567  79.9506073
  24.8245735   3.6562307  33.6243248  24.3250561   4.3493361  34.0559731
  24.3725128   3.5180085  32.7919998  22.9279537  42.4867821   8.0915442
  22.7281609  41.7259178   7.5462017  23.7389660  42.2519341   8.5424747
  11.7730389  44.5273552  40.8798904  11.7218065  44.1909828  39.9852066
  12.0066471  43.7649422  41.4094048  51.3372116  17.3233166  28.9123821
  51.1972618  18.1780376  28.5048313  52.1890526  17.3995419  29.3422527
  50.6597748  66.0840302   3.7162132  50.9426041  66.8255768   4.2513323
  49.7041779  66.1014175   3.7687619  64.8698349  57.0925598   9.7279167
  65.7987289  56.9020424   9.8586903  64.5727844  56.4239464   9.1107082
   7.4646621  44.3198128  49.1727638   7.1525488  45.1229210  49.5896950
   7.8566732  43.8162994  49.8862305  39.7634583  47.0672722  82.0792770
  39.0808716  47.2297096  81.4281845  40.5352402  47.5162315  81.7342911
  16.3093319  25.2237606  77.3040161  15.6760931  24.8765106  76.6757965
  16.4631615  24.5015488  77.9130936  69.6948624  60.2573280  42.6645966
  69.6783676  59.3648224  42.3190575  70.3946762  60.6904831  42.1758575
  15.6789875  43.9898911  67.3069153  14.8100843  44.3890495  67.2631989
  16.1429558  44.3423347  66.5474777  36.9859390  63.2295837  82.5771103
  37.0880203  63.3635979  83.5193710  36.3767662  62.4948463  82.5042953
  67.0684738  64.6537781  64.5012131  66.7158203  63.8938484  64.9642181
  67.6459274  64.2814407  63.8347664   7.6814637  53.2910538  84.9566040
   8.2155113  53.1751442  85.7424774   6.7794499  53.2051125  85.2651749
   6.3848987  49.1659622  14.6950741   5.5967140  49.0237503  15.2192621
   6.0720634  49.1777229  13.7905140  65.0672073  28.8427391  14.3641357
  64.8795853  29.4476719  13.6464424  64.2607727  28.3378391  14.4688330
  30.0446053  54.2509384  74.5891724  30.0641956  54.1381226  75.5394974
  30.4114532  53.4370956  74.2437515  17.8634300  42.6268578  11.9065380
  17.8518238  42.7120972  10.9532108  18.4573689  43.3171196  12.2015085
   4.6459546   3.4468122  40.8984566   4.4693151   4.0018501  41.6580391
   3.8807001   2.8751805  40.8363762  61.9616585   1.1282585  77.7876053
  61.7909317   1.4351605  78.6780548  61.1590767   0.6728659  77.5332184
  82.6686325  56.8843803   5.8569388  82.1386490  57.5516548   6.2929330
  82.0312042  56.3222733   5.4165406   8.0118618  16.9038715  14.7034979
   7.1425672  17.0707264  15.0678034   8.3407726  16.1556549  15.2017164
  32.0684776  46.6342583   2.3213038  32.8605957  46.9355621   2.7662735
  32.3609543  46.4085236   1.4382772  70.5646133   4.1253934  58.1042480
  70.5434570   3.6001408  58.9041824  69.6912994   4.5133820  58.0493164
  22.7303658  42.7114601  56.5447578  23.1003265  43.4541855  56.0675583
  23.2875786  41.9710732  56.3048248  67.7950287  56.2798195  24.9542198
  66.8996353  56.3233757  24.6186543  68.0775070  57.1931305  25.0022354
  11.2384853  37.6518936  31.7353477  10.7253885  37.9880562  31.0005283
  10.9743624  36.7350845  31.8123550  65.4904404  54.5363388   2.0604053
  64.7063522  54.8559113   2.5068569  65.1989441  54.3508224   1.1677425
   7.4198012  37.3297691  26.0359859   7.7100587  36.4536819  25.7821083
   8.1130419  37.9114990  25.7241535  39.3434486   2.6191232  56.8636551
  40.0738182   2.0345519  57.0663185  38.7482185   2.0852077  56.3374748
  78.5284805  10.2257624  28.3287964  78.7269821  10.5824537  29.1945896
  77.5939178  10.3943806  28.2087994  63.7977905  38.9804001   2.4434841
  63.8923645  38.7505913   3.3678627  63.5374985  38.1629715   2.0188789
  49.8782234  59.0938530  71.9132767  49.3690186  58.3201904  72.1549149
  50.7133942  58.9823456  72.3674698   2.0190990  21.6115570  80.6552429
   2.4264121  21.5703220  79.7900162   2.7034149  21.9616299  81.2256775
  29.9360180  52.4341431  48.4287262  30.3823013  53.2546959  48.6379051
  29.5230560  52.1697807  49.2508011  58.5830803  64.9821014  76.8683548
  57.8864059  65.3813629  77.3893814  58.1335983  64.3388214  76.3202744
   7.0112858  54.7027245  43.8148155   7.5980320  54.6012306  43.0653763
   6.1399379  54.5199318  43.4632874  86.1449356  26.2772560  22.4888268
  86.9563828  25.8490524  22.2160110  85.9841537  25.9452381  23.3720837
  40.7939911   8.3711653  85.6692963  40.4389610   7.4862165  85.7532654
  41.6472321   8.3288889  86.1010666   8.5472965  46.5270424  38.0340347
   9.0640240  47.0503044  38.6467514   9.1858768  46.2006416  37.4000702
   5.7663293  44.4460030  28.3600903   4.9591279  44.6821060  28.8171577
   6.0900664  43.6762009  28.8278866  63.7524643  33.5492592  41.3495102
  63.2539368  33.3391724  42.1391716  63.4220009  32.9407387  40.6886559
  58.8932343  39.7627716  55.3840828  58.2970924  39.2419586  55.9222298
  58.7608833  40.6626396  55.6823311  17.2385998  55.7742691  62.0813599
  16.6789818  55.0274620  61.8684311  17.3132324  55.7533112  63.0354156
  66.1611557  13.4801435  48.7914047  66.3441238  12.5815411  49.0657616
  66.8073044  14.0095387  49.2588081  84.1453629  34.2063522  32.8362617
  83.5979080  34.6828423  33.4603462  84.5733032  33.5297127  33.3609200
  17.6345139  16.8039646  20.1850395  17.2509651  16.8284302  21.0616951
  16.8821449  16.7483902  19.5959015  67.0896454  32.5681572  38.1395264
  67.6315689  31.8257065  38.4065781  66.8696136  33.0111122  38.9590454
  20.3677788  62.5569916  21.2215385  20.4960556  63.4737740  20.9780521
  20.5805645  62.0663109  20.4276943  47.9685364  21.1043224   5.1731367
  48.5386543  21.7452335   5.5979028  47.1816673  21.0855522   5.7178569
   2.1944637  44.2917404  14.5612888   2.8634198  44.9501915  14.7488375
   2.6617095  43.6039009  14.0871677  63.2500992  14.2263241  67.7221375
  63.1023941  13.2846937  67.6341171  62.4404106  14.5607443  68.1078873
  69.7218094  40.6333847  75.9499588  70.0160828  40.4741745  75.0531387
  69.9446945  41.5493240  76.1161194  64.0618439  36.2446861  28.7459641
  64.6424026  35.5363464  28.4676914  63.5252304  35.8569450  29.4372959
  17.5874920  51.4800301  40.3958817  17.4561081  51.1290970  39.5150795
  18.4103031  51.0887527  40.6893311  58.4923096  35.2562065  68.7806091
  58.5949326  34.3785591  68.4125900  57.7935257  35.1641464  69.4282608
  60.0618858  31.9313164  22.0684471  59.4548988  31.8309860  21.3351460
  60.7969513  32.4251480  21.7050743  34.3255959  22.9460545  83.7502289
  33.4502907  23.2150841  84.0289764  34.8965111  23.2001362  84.4753036
  70.8294601   3.4278684  74.2118149  71.0822449   2.9221263  74.9841919
  70.0663147   2.9671793  73.8631058  25.6072750  48.9266243  70.2108612
  25.4412384  48.1154900  69.7305298  25.5042114  49.6177521  69.5566788
  59.7033386  48.3156815  69.3856049  59.5935326  47.4203491  69.7058411
  59.7955589  48.8440094  70.1784515  64.0943451  23.2517376  45.4206161
  63.9747200  22.3912640  45.8224983  65.0227814  23.2812195  45.1896286
  15.5342379   5.3149500  48.6433754  15.0909243   5.0715752  47.8306808
  15.8560905   6.2022510  48.4841919  83.1234055  57.0586548  48.2264709
  83.5014267  57.7213669  47.6484222  83.8446274  56.8028641  48.8014832
  72.9574661  17.9467335  41.6201820  73.4338074  18.5852966  42.1508064
  73.5394211  17.1878815  41.5789146  54.4726028   6.5989084  77.2781525
  54.5003204   6.8038087  76.3435516  54.0524292   7.3603892  77.6779404
  75.6629486  52.4949684  55.1317940  76.0831451  52.6533546  54.2864647
  75.0895309  51.7442665  54.9773140  79.3227692  66.6301422  49.1966553
  80.1931152  66.4944305  48.8220634  78.7357407  66.1373062  48.6232986
   1.4940169  10.2533598  59.8152199   1.8578454  10.1134424  58.9409866
   2.1563001   9.9006500  60.4095345  85.0095825  21.7766457  70.1494827
  85.2816010  21.1902924  69.4434891  84.0857697  21.5694084  70.2903900
  62.5479813  58.4928284   4.3912129  61.8851852  58.4201317   5.0779805
  62.4679489  59.3928833   4.0754218  12.8800631   3.5732555  34.9102936
  12.7365437   2.6299613  34.8339348  13.6857939   3.6523733  35.4209480
   0.2997289  12.4988632  56.5748291   0.6347182  12.4117146  55.6824074
   0.9847304  12.9769869  57.0421638  51.9500122  56.7075882  25.4820328
  51.1621666  56.1640587  25.4716244  51.7687149  57.3795929  26.1391277
  36.8723259  19.6774406  14.6254721  36.9050827  19.9400368  13.7055788
  36.5005646  18.7955246  14.6097040  28.7643776  57.3831253  51.0348473
  28.4546986  58.1374321  51.5362015  29.5745487  57.1211548  51.4721413
  71.1880112  51.4170685  36.3553391  71.7471085  51.2997322  35.5873070
  70.3798828  51.7944832  36.0078926  27.3142242  55.0445557   6.8108387
  27.1092014  54.3421822   7.4279842  27.7670593  55.7024002   7.3384857
  39.0482407  70.8730774  39.5451546  38.2821846  70.7121811  40.0960655
  38.7304268  71.4590073  38.8582001  47.1436081   8.2891693  66.7902374
  47.4039383   7.8675976  67.6092224  46.3817520   8.8189077  67.0251617
   0.9896955   0.6314421  39.2326775   0.7360462   0.9232557  40.1083145
   1.8231353   1.0715542  39.0656128  21.0904064  61.9961586  31.5146236
  20.2580910  61.6634407  31.8504524  21.0522671  61.8299294  30.5727406
  85.1267014  30.5399799  50.3525581  85.2000046  31.4756660  50.5405769
  85.5251541  30.1115227  51.1101189  31.9942169  54.2597008  19.7182827
  32.8452873  54.4651871  19.3313904  31.3637543  54.7329407  19.1753368
  76.2646484   4.2504549  29.1860237  76.5702362   3.7653875  28.4195023
  76.8595810   4.9976263  29.2494736  66.2986145   5.1091027  52.1521759
  66.8114166   5.8255315  52.5263329  66.5544662   5.0875440  51.2300529
  64.9914398  12.6042700  46.4615402  65.5456924  13.0686560  47.0887413
  64.1277542  13.0042162  46.5631142  49.1073608  20.1479759  70.8162842
  49.3454285  20.1417866  71.7433853  49.6340332  20.8523159  70.4384613
  54.0284958   5.3516932  26.6044922  54.6953964   5.9093490  27.0051117
  53.3079910   5.9481988  26.4013081  31.1599693  44.6914825  23.7682400
  31.7732391  44.4005470  23.0933418  31.4075260  44.1937256  24.5474606
  47.3627129   5.9207993  44.7381516  47.1826363   5.3222780  45.4631195
  47.8968925   5.4082055  44.1314125  49.9996643  19.9769402  40.4056740
  49.4463882  20.6464367  40.0033150  49.4961090  19.1673374  40.3207703
  74.4372482  65.8640060  28.2957287  74.2158356  65.9933548  29.2179432
  75.2949600  66.2768631  28.1951466  36.9152336   3.9743204   9.7055769
  36.5895615   3.0744348   9.7249508  37.3485146   4.0904841  10.5511560
  49.2702332  49.7444305  68.4236526  49.5267181  49.4787369  67.5405655
  48.3550911  50.0113907  68.3371582  48.0129623  57.7233810  52.8555298
  48.6672821  57.8211250  52.1637611  48.5168343  57.7591629  53.6685905
  60.4227066  64.5705261  22.1032085  60.2471733  65.3639832  21.5974007
  60.7134285  63.9312706  21.4527740   3.7397311  31.1131763  36.2198982
   4.5620437  31.2836132  36.6792297   3.6038930  31.8890762  35.6760597
  71.0366745  38.7921638  61.6066360  71.9207840  38.4843178  61.8061790
  71.1577988  39.6958313  61.3151855  61.8127899  64.4836121  73.1493073
  62.3605118  63.7650337  72.8332825  61.0717392  64.5041199  72.5437851
   9.6337452   5.6906343  54.0227814   9.5707979   4.9565244  54.6338081
   8.7275820   5.8746681  53.7753296   2.3759625  19.4377880  28.2181950
   2.6442783  18.5240192  28.1219444   1.6412103  19.5367088  27.6127319
  77.7955780  43.9903641  22.4860897  78.7236176  43.8215332  22.6487904
  77.4907455  44.4349365  23.2770805  12.4330111  67.4769440  87.5663071
  13.1627502  68.0582275  87.7803650  12.5491600  67.2789230  86.6370468
  76.8137283  50.3045807  29.8620377  76.6568069  50.5423851  28.9482212
  76.8793030  49.3496704  29.8531609  25.6848145  59.3224335   0.6968362
  24.8841743  59.5723305   0.2355775  25.3773327  58.9066544   1.5023264
  69.1666031   3.5807641  85.4147034  69.8060074   3.3406541  84.7440796
  69.0335159   2.7771366  85.9173965  60.5409279  42.3870316  61.5062752
  60.6125832  43.3278732  61.3452988  59.9232407  42.3149033  62.2339401
  45.5642242  16.4789391  68.7412033  46.1607132  15.8266554  69.1085663
  46.0666122  17.2936726  68.7480164  15.4021950  10.6353445  12.4720860
  16.0171261  10.3051853  13.1271334  14.5474644  10.5873671  12.9002981
  42.7652092  68.5198212  52.3232040  42.7931786  67.9509201  53.0924911
  43.3846893  68.1241608  51.7100716  70.2760696  31.6972332  65.5092926
  70.8064728  32.4346390  65.8111801  70.4140167  31.6747856  64.5623474
   9.5848560  27.1325474  10.9802446   8.8725281  27.7154713  11.2429590
   9.5878897  26.4435158  11.6446686  73.9079208  36.1452866  75.4340744
  74.6649551  36.3512039  74.8856888  73.2233505  36.7417641  75.1310730
  34.5545235  71.3410873  24.5139141  35.0123444  71.1565475  23.6938076
  35.1761665  71.8607559  25.0235577  60.7854195   9.4024668  34.9798508
  60.7654839   9.3038378  34.0279541  61.7125015   9.3348951  35.2082825
  79.3182602  37.9489975  41.2171593  79.1612091  37.4807587  40.3972054
  80.1229706  38.4430771  41.0604820  26.2837601  62.7665863  18.6426125
  26.7407894  62.2986679  19.3414745  26.8417053  63.5214081  18.4550762
  70.9935913  41.4611244  42.1873550  70.5529404  40.6276817  42.3529625
  70.2847977  42.0692787  41.9776230   0.3904345  69.9481049   3.5628502
  -0.0552390  70.7952118   3.5592015  -0.0897252  69.4220963   2.9233260
  84.9410858  10.8822355  42.8710251  84.1626129  10.7194290  43.4036560
  84.6736145  10.6554871  41.9803619  64.4028320  31.1767635  37.7249260
  64.3000031  31.3529224  36.7897110  65.1720047  31.6855450  37.9813347
  63.7663345  56.6665497  66.8985977  64.4795990  57.2457123  66.6301575
  63.8277245  56.6376419  67.8533859  51.1848564  44.4804955  78.9655762
  50.5849419  43.8274536  79.3259506  50.9598656  45.2906685  79.4229965
  64.9929886   0.8891675  52.3807335  65.3955536   0.8097512  53.2455254
  65.3389130   0.1460888  51.8863602  10.0556612   2.3126318   6.3415480
   9.7907019   1.3929994   6.3240895  10.0935774   2.5333364   7.2721839
  79.0166702   2.3165922  17.8255024  79.9372940   2.4831104  17.6231194
  78.6616364   1.9298890  17.0251007  66.3208237  62.1557159  80.1297913
  65.4206696  62.0118752  79.8377838  66.2505417  62.8417206  80.7936325
  31.5842514  48.9877586  21.3641453  32.0088844  49.1414871  20.5201740
  31.2063675  49.8349953  21.5999889  51.4108582  68.8667984  83.4558487
  50.7105408  69.0879135  82.8419342  52.1577110  68.6480484  82.8985443
  74.4377136   9.4061775  57.1241150  73.5494232   9.5864363  57.4318085
  74.6112518  10.0913429  56.4786186  17.6465282  39.1111336  43.9109154
  17.7535229  39.4932861  43.0398560  16.8025112  39.4436798  44.2163353
  31.8740120   9.2507687  10.2353277  32.2697372   9.5156717   9.4049911
  31.3932648   8.4497585  10.0267687  39.8291664  43.6687164  26.6214046
  40.2519379  43.8356705  27.4637966  39.0512428  44.2263908  26.6291370
  14.0236969   3.6001229  50.9294777  14.5562887   4.1716676  50.3763809
  14.4561071   3.6221800  51.7831535   8.7212992  67.4976120  52.9363327
   9.0526018  67.0327148  53.7046700   8.8503370  68.4234009  53.1424713
   2.8741555  39.0136299   9.1362371   2.0484571  39.4669037   8.9659472
   2.8605199  38.2609100   8.5450859   2.0366952  28.9379196  36.4128532
   2.1790330  28.2556324  37.0689430   2.6096885  29.6548710  36.6846886
  45.7011452  70.7395248  76.5292358  46.0602989  70.0839386  77.1270981
  46.4700623  71.1452408  76.1287460  37.8802071   0.9974107  11.8906965
  38.2986336   1.8505321  12.0061722  38.5016632   0.3731675  12.2653189
  54.5885696  26.6540298  81.7001877  55.4599037  26.2593327  81.6651611
  54.1428299  26.1880970  82.4076157  36.2206230  10.1390228  81.6077805
  35.3582077  10.1916285  81.1958313  36.0356979  10.0962086  82.5459671
  68.9959869   6.0509591  79.1479187  68.3410873   5.5147858  79.5949707
  69.5509415   5.4192948  78.6904755  59.2016678  40.3575745  58.8189163
  58.7125206  41.1746826  58.9153824  58.7058067  39.8566208  58.1713066
  31.2621555  70.5526123   6.6960020  31.9544277  70.7883835   7.3135815
  30.6972294  69.9552078   7.1860976  78.2222214  46.4400940  57.9811745
  78.7880783  46.5959358  58.7373199  78.6755447  46.8626175  57.2516556
  31.9270725  37.1798286  77.9860916  32.3991928  36.3545074  77.8757172
  31.9409771  37.3393669  78.9297943  61.8270607  -0.2466959   5.8177738
  61.1173134   0.3424352   6.0735297  62.6087379   0.1307278   6.2212152
   6.8267932  66.6064453  50.8733749   6.9793973  65.6659698  50.7814255
   7.0380683  66.7951050  51.7877045  36.4110985   4.7471519  68.1887131
  36.0349083   4.8810577  67.3187790  36.3819160   5.6119504  68.5979919
  51.4890976  70.9616852  17.3752728  51.7374306  71.2366028  18.2578735
  51.6560059  71.7299500  16.8292522  31.9901543  47.8542213  57.0883255
  32.4056549  48.6804695  57.3351135  31.4839649  47.6007576  57.8601799
  12.0743818  41.8965492  11.2378759  12.7041616  41.7313309  11.9395247
  12.0241375  42.8507309  11.1809101  81.8346710  25.4038067  32.0744667
  82.4482956  26.1064377  32.2889557  81.9014511  25.3092537  31.1242924
  11.6301165  61.4750977  78.3572464  11.2630129  61.3508797  77.4820099
  10.9435368  61.1701927  78.9504318   6.7735467  25.2567635  12.6525469
   7.5659528  25.5841579  13.0781488   6.1522369  25.9824505  12.7124243
  78.1300964  25.4981461   2.2998967  78.4318085  24.9942036   1.5440900
  77.3408508  25.0421963   2.5921772   4.3227754  21.9588585  66.3421707
   4.2386827  21.3714104  67.0932159   5.2651982  22.1011734  66.2537537
  19.8794708   5.6030936  66.7707062  19.7180786   5.9262643  67.6571350
  19.1440887   5.0170455  66.5918427   9.4225426  47.0774345  64.8251648
   9.9511213  46.7598076  65.5572510   9.6659727  47.9988632  64.7360153
  11.0581341  49.8615227   2.3061714  11.2070675  50.7833061   2.0955324
  10.7372599  49.4781265   1.4899126  51.7265244  26.3363495  23.0373650
  52.1849976  25.5504017  22.7401752  51.4151459  26.1145840  23.9149151
  34.7781410  34.1772461   0.2158853  35.3778114  33.4313622   0.2327075
  34.0361404  33.9001923   0.7533858  84.0517731  34.7758675  54.0052834
  84.2840500  35.4068832  54.6865273  83.2275772  34.3923378  54.3050194
  46.2183952  60.9409752  43.2489586  47.0962410  60.8654594  43.6230125
  45.7985344  61.6322136  43.7609520  52.9867516  19.2577457   1.6913717
  53.2584076  19.0276527   2.5799046  52.0322113  19.3108883   1.7389494
  20.8826065  57.4336395  57.1342125  21.4696312  58.0756607  57.5335159
  21.3243637  57.1758423  56.3251266   4.2116666  45.9804955  15.1863747
   4.9326549  45.3517227  15.2188072   4.6227078  46.8257751  15.3674278
  58.3073006  59.0765991  77.9701462  57.7860298  59.7852364  77.5928574
  59.2111092  59.2989655  77.7467346  39.3863220  52.9265099  11.8480368
  39.2032967  52.2575951  12.5077972  39.0787659  53.7425690  12.2426128
  29.8567829  56.4662094  60.5286369  29.1211357  55.9294777  60.8235550
  29.8150597  56.4255638  59.5732117  43.2400780   7.9740553  86.8244934
  44.0613670   8.3662739  87.1209335  43.5063667   7.3213067  86.1770020
  43.6689796  52.6428719  33.7402229  43.4880753  53.3954124  34.3034172
  43.5832520  52.9838867  32.8499451  84.7538910  65.1860657  75.5943222
  84.7401886  64.3112488  75.2060699  84.9646912  65.0358429  76.5158615
   6.4182096  58.4767799  66.3723907   5.9271464  57.6675949  66.2298965
   6.9433155  58.5811691  65.5789185   1.6584831  66.5374069  13.1362429
   1.9468907  67.3085327  12.6479616   1.7983148  65.8065491  12.5341425
   4.5524955   4.8196630  46.7950401   5.2953582   4.7655463  46.1938248
   4.7214952   5.6057320  47.3144302  46.0434418  39.8333321  82.2598801
  46.0230637  40.5952110  81.6807861  45.9957886  40.2016907  83.1420822
  41.7299881  60.6785507  34.7076569  42.3552094  61.0089912  34.0625687
  41.7903900  59.7261238  34.6337204  17.3245258  45.4535027  13.9456320
  16.8394947  44.7039108  14.2907257  16.7001724  45.9000969  13.3738194
  74.7975998  63.0444145  59.4892120  74.4379425  63.5538559  60.2154045
  75.2388077  62.3063812  59.9097748  33.7835999  70.1945190  26.9094181
  33.6736183  69.3026505  26.5797215  33.7000504  70.7487259  26.1334610
  57.3925858  64.3344879  70.2028198  57.1130676  63.9010506  71.0091934
  56.5783577  64.5134201  69.7324524  76.0436172  62.8749924  86.3949432
  75.2917099  63.4610100  86.4812393  75.6593018  62.0175514  86.2123642
  65.7542801  14.7749929  68.8277054  64.9779587  14.6532450  68.2811356
  66.3706512  15.2458630  68.2668152  84.8127060  48.6351891  57.5639420
  85.6771011  48.9921494  57.7679749  84.5504456  49.0865746  56.7616310
  54.9950294   7.6150770  82.2689590  54.0477943   7.7438259  82.2199707
  55.3596992   8.3077221  81.7180557  63.6967239  35.5393600  59.5379143
  63.6885033  35.4478378  60.4906921  63.9956818  36.4358978  59.3859901
  21.3885384  46.5979729  14.5400658  20.5207920  46.3081512  14.2585449
  21.6627293  45.9437675  15.1827688  28.8045368  64.7479324  37.4711418
  28.2820301  65.4627991  37.8347054  29.6266174  65.1618042  37.2082329
  68.8379364  14.3016386  35.0482292  68.5974655  14.5948563  34.1693497
  68.6177216  15.0403070  35.6157761  28.7405548  18.7753468  81.9226074
  28.2460442  18.0713348  81.5030136  29.2895985  19.1316242  81.2241440
  75.8971329  35.1014328  29.2890625  76.8487091  35.1567307  29.3766899
  75.7405701  34.2314072  28.9219494  79.6401062   7.3128633  37.3632622
  80.4334259   7.7930989  37.1260910  78.9338684   7.7835050  36.9205894
  53.2564621   9.9608231   0.3688505  52.6773567  10.0806751  -0.3838141
  53.1753120   9.0326080   0.5880813  62.8382339   6.6633272  81.7639542
  62.2909546   6.4209437  81.0169830  62.6450920   7.5890784  81.9119873
   4.9286284  32.6612511  78.9507065   5.4934239  33.3858528  78.6820221
   5.2518625  31.9090309  78.4548035  38.5175896   0.4731694  18.8658371
  37.9692535   0.3547879  18.0902424  38.1203308   1.2101665  19.3297939
  57.7465782  51.2349129  16.0430908  58.4467468  50.6227341  15.8167419
  58.0267982  52.0691338  15.6665487   0.3381168  66.0651398  36.7776985
   0.6394349  66.9636536  36.6431160  -0.5538272  66.1591873  37.1120987
  55.1412430  46.3221245  42.6754189  55.4151649  46.4951363  41.7747192
  54.2678795  46.7087517  42.7386093  55.3556595   7.0475631  21.4037609
  56.1325073   6.9075584  21.9451847  54.8305626   6.2571645  21.5293560
   7.3551383  51.5360832   2.1584766   6.8027358  50.8422470   2.5185790
   8.0523434  51.6469154   2.8048928  44.4310760  35.2276306  69.7250519
  45.2152176  35.7758217  69.6961365  44.7016678  34.4012451  69.3249283
  74.1278839  14.9151306  77.2505646  73.5754471  15.6949682  77.1967697
  73.6141434  14.2279348  76.8262253  59.1586800  23.3560123  73.5714493
  60.0482597  23.0031242  73.5902405  58.7554016  22.9482670  72.8050690
   1.5141921  34.7030792  56.3279266   0.9232566  35.1123962  56.9599800
   2.3907871  34.8882103  56.6648865  48.3128700  37.2197075  84.4441223
  47.4970932  37.6221428  84.7420883  49.0017242  37.7434998  84.8532104
  66.0870895  24.3143883   0.8845536  66.2476883  24.5545292   1.7971172
  65.3145981  23.7501354   0.9177572  34.5349312  25.4610538  11.6948452
  35.3127098  25.3602772  11.1460867  34.3037491  26.3864784  11.6150084
  10.1511288  10.0817528  66.8749771  10.2333546   9.5633459  67.6754303
   9.8397646  10.9361219  67.1738739   2.6193249  10.8665524  46.1066360
   2.8455276  11.7287569  46.4554443   2.2394874  11.0480795  45.2469826
  30.0888138   7.8904495  84.9475403  30.8539009   7.6360826  84.4316177
  29.7772293   7.0717912  85.3334732  49.5718269  51.4032402  42.1530457
  50.2641678  51.0762177  41.5786324  48.7977753  51.4510460  41.5919838
  73.2786636  45.4710236  61.1346741  73.5293961  45.3482819  60.2190857
  74.0643158  45.8231239  61.5530128  57.9679832  50.3753128  33.2625885
  57.4515419  50.2879372  34.0637665  57.7294159  51.2352524  32.9164314
  59.8097153  46.0417900  57.2006340  59.2071304  45.4103737  57.5936127
  60.6697121  45.7965889  57.5419693  61.9554100  22.4214706  73.3512421
  62.5223389  23.1551437  73.5890427  62.3868675  21.6539116  73.7266541
  60.4881287  12.5024443  62.7970505  59.6475983  12.0444717  62.7969780
  60.4802513  13.0176325  61.9903603  80.5729370  15.1490335   9.4634933
  80.5416489  15.8277340   8.7892389  80.9842148  14.4006290   9.0310936
  25.1658764  62.0101585  86.9591064  25.6918125  62.0275040  86.1595306
  24.3828259  62.5159378  86.7417374  49.5882301  54.4864807   4.1761088
  50.0981598  55.1554451   3.7192783  49.2532654  54.9309273   4.9548874
  84.1678619  50.3023911  39.7604599  84.2523041  50.3286591  40.7135658
  83.5698166  49.5740204  39.5929756  76.3253326   0.9238259  80.1786652
  76.4164276   0.1025149  80.6617661  76.8669510   1.5475109  80.6623077
  41.0095711  48.2020798  75.0836258  41.8716278  47.7962685  74.9919434
  41.0405273  48.9636192  74.5045395  43.6289749  17.3647709  76.5243378
  44.2209015  17.4104919  77.2751770  43.7979889  18.1709042  76.0366745
  46.1432381   0.1261671  18.1301517  45.9215164  -0.1667823  17.2462673
  46.9525719   0.6254650  18.0210266  44.1582146   6.4762273  52.1072617
  43.9905853   6.9937015  52.8948860  44.8841248   6.9262009  51.6750412
  14.3633804  59.1901779  43.5720482  13.7969923  59.7114754  44.1409798
  13.9419765  59.2295341  42.7135010  63.6700134  27.9199352  61.0933151
  64.5912476  27.7009830  61.2333527  63.2606277  27.7918186  61.9490128
   4.3099995  64.1728516  59.6281662   4.2353139  64.5703964  60.4956970
   4.7172108  63.3216553  59.7890129  54.7604218  47.1662064   7.7480965
  55.1718674  46.3896408   7.3687682  55.4924736  47.7440834   7.9634843
   4.1877766  55.7282181  71.4793015   4.1076984  56.0128670  70.5689240
   4.0854325  54.7772064  71.4427872  75.4206314  62.1139183  64.1602936
  74.5378723  62.2483711  64.5051041  75.9385834  62.8205109  64.5458984
   4.0286078  69.8038635  48.9825134   3.2571795  70.3508072  49.1307755
   4.2714849  69.9739685  48.0723991  67.2389755  47.1478615  66.3427811
  66.4961700  47.7495232  66.3924789  66.8618851  46.3275223  66.0248566
  50.1008644  64.6303711   9.8852549  50.7013626  63.8849678   9.8862791
  50.6414108  65.3730316   9.6160030   6.7548585  40.8757973  71.2064972
   7.1743236  41.5397911  71.7536697   6.9989457  41.1134605  70.3119812
  10.8272734   4.2440004  19.3733273  11.1169291   4.6362486  20.1970215
  10.9832916   3.3064203  19.4866104  58.6116447   3.5099952  64.5478439
  58.7751732   3.8396454  65.4314880  59.2942810   2.8539896  64.4067917
  69.6190567  61.3273773  87.2991409  68.7411423  61.0657196  87.5766907
  69.8824387  60.6542435  86.6716385  47.3005524  18.8104877  63.1183586
  47.1711006  18.3901863  63.9685478  46.7855148  19.6157627  63.1683769
  63.3505363  33.7634239  48.0229454  62.6621819  33.4695969  48.6196632
  63.3279266  34.7184753  48.0829353   1.5341012  14.0598621  10.0891209
   2.3700571  13.6183357  10.2390022   0.8736629  13.3959417  10.2872686
  62.3420143  40.0358429  43.8974571  61.7948418  39.4395981  44.4086609
  63.1248360  39.5250931  43.6911774  64.1037903  32.5364761  52.5756149
  64.3513184  32.0226059  53.3443146  63.4789581  31.9822102  52.1080551
  77.3513412  43.4128456  54.1885300  78.2106934  43.7882500  54.3804131
  77.5418396  42.6310043  53.6702003  74.8133698  65.9287949  42.7963982
  75.0731354  65.2753601  43.4458389  75.0370941  66.7681656  43.1984329
  43.9107399  13.6728697   8.3175049  44.1436462  12.7885122   8.6001644
  43.5312500  14.0809202   9.0957832  64.9453278  38.2203331  50.6906319
  64.3903580  38.8621445  51.1337090  64.4437103  37.9635315  49.9168968
  26.5829430  51.8454094  80.4681702  26.9455814  50.9791679  80.2828217
  27.0120430  52.1160278  81.2798767  20.9287090  64.2206116  76.7386856
  20.3064728  64.7645950  76.2558441  21.2045212  64.7675400  77.4742355
  53.7924271  15.2428274  23.9807663  53.9504280  15.7165089  24.7974014
  53.1976852  14.5341082  24.2261810  57.1143150  70.9682236  26.7305450
  56.1920624  71.1953888  26.6119003  57.5566330  71.8103790  26.8371372
   6.7058578  71.0376129  34.6818848   5.7749629  71.1348572  34.4813576
   6.7241607  70.7078171  35.5802879  30.7690334  67.4888535  59.8783531
  30.2568722  68.1175156  60.3869858  30.1496105  67.1366425  59.2392159
   6.8352051  44.6846161  77.1851196   7.2492161  44.1710587  77.8787231
   5.9898663  44.9443054  77.5514450  39.7763786  56.7736893  34.9013863
  39.3563194  56.3594818  34.1475830  40.5524864  57.2005310  34.5384903
  43.7744217  64.1688461  22.8248005  43.2951622  64.2385101  21.9991570
  44.0795479  63.2619019  22.8488407   1.7256142   0.6574295  24.6252995
   1.6646399   0.3487500  23.7212906   1.8556820  -0.1379484  25.1417179
  84.0327072  66.9478683  86.1572266  84.2309875  67.8451462  85.8892441
  83.2450333  66.7190628  85.6638260  -0.0385085  12.9676170  71.0513000
   0.8507140  13.2685432  71.2382660  -0.2609695  12.4031372  71.7916412
  69.1695023  44.0612450  27.2910976  69.5193939  43.1739426  27.3717384
  68.2655716  43.9368896  27.0018330   3.2668095  61.8860359   1.2395414
   3.2384000  62.2370148   0.3494637   3.9956017  61.2655640   1.2291861
  52.6231422  67.5747986  23.1617813  53.4519463  68.0536575  23.1644993
  52.1155624  67.9785461  22.4578018   0.4515776  32.5329857  31.0102329
   0.6319121  32.9109726  31.8709526   1.1927611  32.8050919  30.4690876
  54.0736389   5.7138782   2.5646172  54.3414497   5.6018910   3.4767404
  54.8816757   5.6064992   2.0628378  15.6119528  13.0646639  16.8002090
  14.9976530  13.2209396  16.0829620  15.8101835  13.9372196  17.1401844
  63.2636642  13.4723120  49.4132614  63.3357697  13.9232311  50.2545128
  64.0953217  13.6502934  48.9740562  22.6783600  53.2203369  79.7278214
  21.8996391  52.6732254  79.6253662  23.3985596  52.6728554  79.4150772
  64.6372833  54.5958366  51.7117767  64.7388000  54.2436104  50.8275452
  63.9492340  54.0595131  52.1057014  55.1882668  17.8102798  65.0819321
  56.0541916  17.6378746  64.7122345  54.5971603  17.2503147  64.5786819
  12.2008610  66.1844101  79.0688629  11.2455883  66.1760635  79.1289902
  12.4408703  65.2665710  78.9416199  37.1140404  32.3858452  83.1364822
  38.0254593  32.6486130  83.2649460  36.6750679  32.6389351  83.9485626
  37.8754616  18.1809063  81.5769806  37.8459663  18.2344055  80.6217346
  37.1199226  17.6414185  81.8100967  32.6827431  49.2383194  18.7767296
  32.5936508  49.9387894  18.1304798  32.7283630  48.4364319  18.2560310
  14.2965164  28.4347649   2.7891796  13.8803978  28.9884109   3.4499011
  13.7072859  27.6858730   2.6986268   2.6794503   4.9718990  83.0946198
   2.4363728   5.2631388  83.9734421   1.8518299   4.7089162  82.6919861
  68.8291016  41.5498543  45.0046005  69.0890961  42.4542046  45.1800728
  69.5809860  41.1680679  44.5516815  82.3687363  56.9270935  67.7698669
  81.7356110  56.2095985  67.7941284  83.0048447  56.6628380  67.1052170
  52.9819221  18.1232052  61.3951836  53.8850098  18.4360733  61.3424759
  52.4619179  18.9147816  61.5338593  38.2616920  53.6243324  29.3491650
  37.3440971  53.5330429  29.0924225  38.6293716  54.2354507  28.7107449
  62.8053398  43.9707527  57.1418648  62.8299294  43.8893738  56.1884460
  62.4789810  43.1239319  57.4461937   8.8243513  31.2692013  52.7621307
   8.8656578  30.9943085  51.8461838   9.0064716  32.2086258  52.7387047
  31.2070255  38.9670334  73.5522461  31.5123196  38.1481972  73.1616974
  30.9841061  38.7340431  74.4534988  67.9132843  53.3633232  48.1175232
  67.7684326  52.7146149  48.8063087  67.7082520  54.2017937  48.5312386
  76.6748199  22.3059216  69.4972229  77.0761871  22.0279274  70.3205414
  75.7374420  22.1621685  69.6271896   6.7167134  14.1832962  45.8799744
   6.2366266  14.8384981  46.3863907   7.6369476  14.3500175  46.0839462
  73.3770447  56.1092758  67.9126587  72.4495697  55.8793526  67.8564224
  73.4194489  57.0123024  67.5980453  67.5051880  14.6905289  84.4951477
  68.2922440  14.2753286  84.1424713  67.8060379  15.1442604  85.2824478
  52.7864838  44.7489510  84.9073639  52.0956764  45.0445404  85.5003586
  52.8772659  45.4594154  84.2723541  58.4665680  68.1836777  39.6021156
  58.0385284  67.9845200  38.7694397  58.9857254  67.4035187  39.7971725
  42.0108185  40.8028488  52.2903900  42.8914642  41.0700493  52.5536346
  41.9230156  41.1198235  51.3914757   2.9021997  25.9570694  41.3507233
   3.4074588  26.1277122  40.5558510   2.0159810  25.7767849  41.0371246
  46.3452454  69.1974792  87.1717606  45.4995499  69.4638138  86.8110733
  46.3517914  69.5581741  88.0583725  12.8032999  38.0393257  82.2519989
  12.3664541  38.8642197  82.0399857  12.1285305  37.5148582  82.6831055
  47.3217010  46.4276733   6.2020159  47.1181679  46.0953064   7.0762801
  47.4071312  47.3738060   6.3193603  48.4453239  33.0549507  80.7310715
  48.9240761  32.2650223  80.9821472  48.9812164  33.7753944  81.0627518
  65.1777496  67.2293091  43.3392639  65.3185654  68.1716309  43.2474251
  65.6234970  66.9988480  44.1543884  53.2303238  62.8057060  54.7859230
  52.3707314  62.3917274  54.8630905  53.1973228  63.5419006  55.3967896
   0.8213612  39.2433624  53.3795662   0.7307225  38.6265526  54.1058998
   0.3672541  40.0318146  53.6768188  82.3651733   4.6782870  66.5104599
  82.7974243   3.9753542  66.0254059  81.8014755   4.2251439  67.1374664
  62.8429642   1.9375921  61.6913300  63.1545830   1.5757660  60.8617477
  63.2162170   1.3620535  62.3589172  75.6869431  57.7257576  86.7672119
  75.6144028  57.4345894  85.8582611  76.5526962  57.4274025  87.0459213
  77.9371033  71.1887970  55.4983253  77.6944733  71.8665695  56.1291885
  77.6353607  70.3721771  55.8962097  63.6449738  66.0651321  74.0986099
  63.1344833  66.6982117  74.6034241  63.0290375  65.3573151  73.9092636
  80.5292740  57.9843788  85.4715500  81.1562119  57.2789040  85.3118973
  80.4722290  58.4477654  84.6359329  35.4341888  33.8041840  71.1229706
  35.7411499  33.2485771  70.4065170  34.5065308  33.9467697  70.9349442
  23.8776531  69.7624664  20.6131344  24.5348930  69.1962662  20.2085590
  24.3869095  70.4279480  21.0757637  66.4225159  64.2512207   7.9963684
  65.4698410  64.3069153   7.9219899  66.5737381  63.5179558   8.5927601
  30.7250652  51.1001205  17.2624779  30.3276272  50.9659081  18.1228638
  31.2056046  51.9236870  17.3464622  18.7050362   2.6195672  44.3243561
  17.9277897   2.2532709  44.7461929  19.2476692   2.9291971  45.0495529
  55.3886528  44.8941803  47.4416504  54.4845047  45.1587563  47.6111984
  55.7086487  45.5308037  46.8024750  40.1424713  44.3166275  41.6101761
  40.4667702  45.2104378  41.7204781  40.9319534  43.7880478  41.4937706
  45.0200768   3.7782278  24.8613110  45.7129440   4.3606863  24.5500069
  44.6353035   4.2403584  25.6060371  64.5646057  14.9157171   2.1051505
  65.5140915  14.9646807   1.9941757  64.3347626  15.7250757   2.5615938
  75.6693039  63.0367966  14.3142395  74.8889160  63.1333694  14.8600378
  76.3402863  62.7069702  14.9119291  66.2261887  22.9035072  41.9684563
  66.4617157  22.8112087  41.0452881  66.9203873  22.4430485  42.4399452
  57.6299133  54.0049591  15.4444485  56.8761139  54.5709419  15.2780857
  58.1208496  54.0122185  14.6227655  15.0479069  13.2476940   3.6113524
  14.6717205  12.8022919   2.8521874  14.5453463  14.0588808   3.6864517
  38.5474434  71.1369705  66.9388123  39.4219017  71.4071350  67.2191086
  38.5327682  71.3120804  65.9978790  74.5593262  25.9599094  49.1459351
  74.5428543  26.7284164  49.7163353  75.1389160  26.2084694  48.4258499
  43.2785301  68.9968948  21.1816521  42.5472908  68.3813553  21.2329273
  42.8767242  69.8569260  21.3046799  72.1403580  38.5587463  65.7240295
  72.8611450  39.1229515  66.0039597  72.1704025  38.5884743  64.7677612
  65.1258011  66.4427338  18.9113865  64.9572220  67.3710327  18.7498970
  66.0800323  66.3677826  18.9041100  16.2988892  46.4753494  23.3839436
  17.2271214  46.2736969  23.2658234  15.9038153  46.2931023  22.5313396
  24.2559738  50.5093231  30.5346794  23.3132877  50.5256042  30.3694248
  24.3349533  50.2167397  31.4426365   0.9055045  55.4116287  62.4218979
   0.0437132  55.3237572  62.8291130   0.7475652  55.2551079  61.4908829
  60.3860512  64.2286911  29.6100998  60.6168480  63.7473297  28.8155861
  61.2242889  64.5335083  29.9574833  67.2210083   8.0537930  25.5189800
  66.3275452   7.9241419  25.8370113  67.4251862   8.9619894  25.7419624
  75.7270432  43.3024673  49.6733131  75.5943298  43.3964005  50.6166039
  74.9117813  43.6187859  49.2840691  70.4874725  21.9104786  41.6341171
  71.4183578  22.0650997  41.4735680  70.1738434  21.4864941  40.8353004
  33.3398056  53.3679733   7.6449575  32.8906746  53.3787918   8.4901772
  32.8167343  53.9449043   7.0883799   1.6182514  16.2855587  76.8801117
   1.8060330  15.3542166  76.7636185   2.3600290  16.6180611  77.3855209
  45.8969727   7.8600965   9.2164803  45.5908966   8.4249926   9.9260168
  45.1011848   7.4527550   8.8743896  48.4003792  29.0514431  65.7328186
  47.9247971  29.8684921  65.8827667  49.0456123  29.2698364  65.0603485
  58.5121651  61.2334366  85.2800903  59.1449814  61.8467598  85.6537323
  58.9070473  60.3715858  85.4124298  24.2089367  28.1686268  70.4373932
  24.5767612  28.6665745  69.7073364  23.4516430  27.7186050  70.0629349
  76.8628311  68.9238586  18.5842628  76.4042206  69.7182388  18.3106365
  76.3443222  68.5877075  19.3152733  77.9975204  32.2242355  66.9204865
  78.7470779  31.6930676  66.6517029  78.3862686  33.0106773  67.3033905
  40.4642258  70.1959000  52.5036163  40.6704483  70.4382477  53.4063721
  41.0586281  69.4714737  52.3083534  68.6684723  67.7758179  85.6258469
  68.7374496  66.9252319  86.0594025  67.9263306  67.6808624  85.0288239
  70.8990173  35.2645340  62.3537903  70.3967209  35.9422722  61.9014626
  71.7116089  35.1941490  61.8528175   9.1868334  40.3051872  50.3169708
   8.3422012  39.9997215  49.9860344   9.8238325  39.6924362  49.9495468
  56.0507393  18.4933720  24.0296059  55.2397881  18.9091759  24.3223457
  55.9537697  18.4213982  23.0800533  30.2775593  38.9445076   9.2425508
  30.4321251  38.3030739   8.5490808  30.6293201  38.5331612  10.0320368
  69.4851761  53.0771179  53.2386475  69.6007156  52.6799393  54.1018600
  69.9615707  53.9057274  53.2905540  66.7167740  68.3482513   4.7632113
  67.1287003  69.2026825   4.8916278  66.1878967  68.2166443   5.5501027
  50.3632431  18.9782085   1.7135708  49.4609909  19.1633644   1.9741268
  50.3936996  18.0265427   1.6154182  61.7742844  21.0937672  64.6541901
  61.5951576  20.7985229  65.5469284  62.5190392  20.5631447  64.3713303
  57.6897850   9.4650860  77.3449402  57.6756287  10.1720581  77.9900970
  57.1846848   9.8048048  76.6062317  20.1304283  41.7146606  63.0647964
  19.7607174  41.2218895  62.3321838  20.9848404  42.0085831  62.7488556
  84.4523010   9.2964973  67.5598602  84.9813232  10.0926180  67.6104965
  84.4983902   8.9219532  68.4395370  50.1714935  42.8466873  61.5848045
  50.3253174  43.6748543  62.0394592  51.0348244  42.4361572  61.5362587
   5.9255285  34.3688354  64.4939041   5.1049132  33.8790855  64.4394302
   5.8686843  34.8397217  65.3253326  79.2831802  22.7615643  14.4480400
  79.2985764  22.9955502  15.3760729  78.8699875  23.5108166  14.0189447
  40.6086617  52.6414566  72.2916870  40.2792778  52.2291336  71.4931107
  40.6942291  53.5675583  72.0653152  78.8775101  59.1188087  23.7531929
  79.1270065  58.8590775  22.8663292  78.9373322  60.0741272  23.7487488
   2.4519300  38.3761902  18.9757481   1.7579129  38.4104195  19.6340790
   2.6899202  37.4503555  18.9265347  35.1311150  60.2441521  11.0881147
  34.3799057  60.6489334  10.6544495  35.1436234  59.3461609  10.7569256
  82.4848785  29.1567230   9.5364571  81.7828140  28.6414127   9.9336891
  83.0407486  29.4118786  10.2727537  71.7879944  14.4534121  52.1580048
  71.8083878  14.4660215  51.2011032  71.5016479  13.5673885  52.3798141
   8.0278959  37.0452728  76.2129898   7.4294972  37.2137032  76.9408493
   7.5151963  37.2461205  75.4300308  14.8256598  39.5825920  64.3977890
  14.5249929  39.4556046  63.4979553  14.6170120  38.7589111  64.8385315
  45.3120689  41.8462219  49.2472534  44.4067001  41.5532951  49.3508606
  45.4552193  42.4455185  49.9797745  47.1359367  34.2118912  28.6097221
  46.2066841  34.4412155  28.6211796  47.1525269  33.2927055  28.3431549
  22.7737312  52.3743134  46.6484108  22.6735001  53.0510330  47.3179131
  23.7041245  52.1505508  46.6714401  15.7757063  31.3715687  13.9129601
  15.7603312  30.4242897  13.7763672  15.9497805  31.4758778  14.8484011
  41.1193962  36.7627068  48.9445076  41.9126358  36.2334671  48.8613815
  41.0089989  37.1656952  48.0833168  21.8032990   3.1073046  13.2348099
  22.0017471   2.2051318  12.9839420  22.4019814   3.2918756  13.9585114
  79.9367294  33.9436340  81.4842911  80.3796158  33.3253326  82.0654831
  79.2358017  34.3155670  82.0196381  60.5562096   8.8876677  69.0819550
  61.0951500   8.7434111  68.3041611  59.8273849   9.4252357  68.7720032
  77.6259766  40.3978500  14.7995052  76.7300110  40.5599594  14.5042334
  78.1602936  41.0056610  14.2883196  86.1898651  14.0349026  77.5613937
  86.7709045  13.8970995  76.8133087  86.2872162  13.2424812  78.0894318
  69.1417999  48.8724899  81.7208481  69.9168701  48.3535271  81.5059662
  68.7114716  48.3816795  82.4209595  32.9773178  35.2396469   6.7979851
  33.7799911  34.8465652   7.1406813  33.1647034  36.1777878   6.7661643
  68.8093491  49.9665718  33.7112122  68.9528275  50.6579399  33.0649490
  69.6885071  49.6595879  33.9327316  77.2976685   1.3132105  31.4200974
  77.3666992   0.6937300  32.1465340  76.5410080   1.0103499  30.9181347
   4.2832508  51.9447327  24.5318604   3.8396819  51.1503220  24.2345600
   5.1606345  51.8848724  24.1539116  23.3357658   6.3027906  80.0217133
  24.0064964   6.9057617  79.7011185  22.5528202   6.8449001  80.1183853
  58.0858841  53.7519226   5.0332355  58.0225906  54.6884308   5.2208056
  57.1773453  53.4525375   4.9991832  78.1962891  28.7715130  86.5601959
  77.6752319  28.7940006  85.7575607  79.1040268  28.7906456  86.2570801
  31.2762966  51.3729248  22.9324818  31.7205887  52.1565437  22.6087875
  31.7173252  51.1711922  23.7577267   7.8351803   2.1537600  83.1857071
   8.0057755   1.3022636  82.7831116   7.9215660   2.7800994  82.4670486
   5.4096084  58.3986206  11.2307186   6.1862664  58.8507729  11.5602560
   4.9466882  58.1127548  12.0182581  62.4208069   6.3033800  67.4514008
  62.2204323   5.5540133  66.8905640  62.1691704   7.0662093  66.9308167
  78.8310242   7.8971028   6.8909125  78.7655869   7.5978966   5.9840355
  77.9749146   8.2819595   7.0785122   0.8614722   2.5419478  54.6835594
   1.0489397   3.1718383  55.3794975   1.0293620   1.6879129  55.0818939
  64.1158218  32.8173218  32.5128441  64.8674927  33.3059196  32.1774445
  63.8850288  32.2166901  31.8041801  67.8243637  11.9448004  19.5758686
  68.5888367  12.3443155  19.9908352  67.1241608  12.0401983  20.2215042
   1.4772108  19.6408844  86.2183075   1.2859408  18.8027134  85.7974548
   2.3678906  19.8517838  85.9382324  51.7093391  19.2437134  80.2841415
  52.5285568  18.7486305  80.2873383  51.9199753  20.0523224  79.8172226
  49.9017715  46.7245941  83.0069885  49.8662071  45.7792625  83.1529999
  49.1442604  47.0687141  83.4802551  34.8939781  43.8932457  33.4774475
  34.3586922  44.6757736  33.6091576  34.3663712  43.1791573  33.8351288
  77.2974625  70.6366730  67.9737701  77.0749054  69.7091141  67.8942261
  76.5613785  71.0195160  68.4510956  85.7653885  53.8028069  60.4208488
  85.4555054  53.2284317  59.7206345  85.6499634  54.6873627  60.0737610
  53.8728638  29.9222965  19.3255882  53.7542572  30.5806904  20.0101929
  52.9840050  29.7103233  19.0405769  70.2416687   8.7166204   9.5327129
  69.8024216   8.2285194   8.8362560  70.5436325   9.5198193   9.1085405
  73.9337769  19.1579819  18.9562569  74.6783295  19.5336418  19.4260998
  73.4994049  19.9106102  18.5548782  24.1110439   1.8683436  36.5615349
  23.7803116   2.7520096  36.7227249  24.5079269   1.9160925  35.6918030
  43.5806618  62.6244202  27.6883202  42.9220886  63.0083466  27.1094322
  43.0823364  62.0520782  28.2716961  18.5805607   2.3996396  36.9653549
  19.4922867   2.6895328  36.9345055  18.6060009   1.5816077  37.4617500
  17.1289864  59.7881126  19.3894691  17.8486290  59.2347755  19.6930561
  16.6779385  60.0552330  20.1903648  59.4949379   7.3919091   1.5995567
  59.8229332   7.2841463   2.4923265  58.5432854   7.3354454   1.6855731
  20.4087696  49.2784271  31.1971970  20.6654129  48.5956650  30.5773563
  20.4529839  50.0899315  30.6914902  22.7126598  63.3349342  80.7179947
  23.4201279  62.6961403  80.6304474  22.9803925  63.8899536  81.4504623
  64.9945984  42.6365891  78.5254440  65.7559280  42.7237091  79.0990448
  65.3607407  42.6280289  77.6410828  17.4850330  14.8790522   4.2446666
  17.0031796  14.0521812   4.2629209  17.9492607  14.8673115   3.4076557
  11.3809061   3.9435916  69.7787323  11.6637669   4.7686443  69.3843842
  11.6575413   3.2725914  69.1546631   6.9240975  28.2508678  50.3434296
   6.3361464  27.4958458  50.3654480   7.2970929  28.2897377  51.2241096
  44.4081421   1.2607468  19.8561039  45.1521454   0.7823411  19.4902973
  43.6645126   0.9983770  19.3135090  79.2305984  17.0030003  71.4259262
  79.0639343  17.8631668  71.8113708  78.3821030  16.7275753  71.0788879
  74.4499969  38.5922470  70.2392273  75.0082321  38.0851860  70.8287048
  73.9624252  39.1793251  70.8170242  84.2084808  66.7106934   7.5452719
  83.4140396  66.3395004   7.9290771  84.6885071  65.9537201   7.2094278
  13.2420015  14.4293423  84.9475708  13.2725391  14.5613203  85.8951340
  13.5528593  13.5329943  84.8204498  75.6124573  33.6338615  65.9800491
  75.9807739  32.7613716  65.8410034  76.3302612  34.1387215  66.3622971
  79.1921005  59.6218605  65.8546677  80.1454773  59.7007027  65.8217087
  79.0235443  58.6910591  65.7082672  29.7319202  55.6831169  57.5780945
  30.1463490  54.8885307  57.9144211  28.7935715  55.5279083  57.6860046
  44.8020668   1.5273539  28.6973038  45.2231560   1.9403504  29.4511948
  44.8522644   0.5889454  28.8792419  62.6346626  13.2331133  80.7095413
  62.6457787  12.8203955  79.8459549  62.6255913  12.5002069  81.3251648
  27.2859383  58.9470367  69.6709290  26.6399803  59.3945923  70.2174301
  28.0233536  58.7817421  70.2584000  68.9761505  35.1076393  31.0365181
  69.0277176  35.9356651  30.5590820  69.2216263  35.3328819  31.9338684
  50.7821465  47.2215538   6.9217620  51.1660271  48.0566025   6.6542554
  50.1661873  47.4528770   7.6169691  25.5083771  56.0085411  26.6203995
  25.0710621  56.1633301  27.4576721  25.5193710  56.8654060  26.1939106
  15.4706249  57.4316330  80.3997421  15.9541893  58.2371902  80.5827026
  16.0993805  56.7306137  80.5714035  48.4291191   3.2776277   9.4905643
  47.8785400   2.5023613   9.3807621  47.8089027   4.0015721   9.5769844
  68.4277496  34.7287598  20.9683933  67.7738571  35.3966179  21.1748505
  68.5721664  34.8180923  20.0263767  47.1294861  34.1929474   4.0176907
  46.5714035  33.6162338   3.4959841  47.2570114  34.9653358   3.4668889
  54.1755409  66.6030273  27.0232887  54.9382591  66.3892746  26.4858875
  53.7721252  65.7562408  27.2141609  22.5268917  39.0489464  14.0805092
  23.0786037  39.4426689  14.7564011  21.8144035  38.6325264  14.5654697
  12.8191538  47.6315613  57.6887741  12.6510067  48.0345573  56.8369789
  13.6773710  47.2185898  57.5931244  81.7728195  39.8994942  19.3303967
  81.2054138  40.6144943  19.6185856  82.4635391  40.3300362  18.8266354
  39.5894814  38.5028496  70.9854202  39.9753113  38.5529671  70.1108551
  39.0648880  39.2998466  71.0617981   2.6545386  53.0890007  54.7008362
   2.0502460  52.5565834  54.1835403   2.1341367  53.3843689  55.4479446
  51.5590820  66.8416595  75.0205612  52.4863358  66.6802826  75.1948853
  51.2014809  67.1188126  75.8640823  26.6133652  64.7664261  25.8976688
  27.1639347  65.3390732  25.3636456  25.7444172  65.1660690  25.8596535
  37.5180016  44.4867859  15.9598846  38.1116219  45.0721664  15.4895887
  37.8057747  44.5357094  16.8714905   4.1363583   2.3653324  45.0855141
   3.7284744   2.9283290  45.7434654   4.5029783   2.9736493  44.4438210
  15.6097965  61.1682091  14.4635220  16.0813942  60.7216759  13.7603626
  15.8221359  60.6665192  15.2505732  10.6841145  64.5396271  76.0561752
  10.1360292  64.9280777  75.3743057  11.4593048  64.2258072  75.5905228
  21.0826511  13.7832651  79.6138763  21.1985264  13.0268497  80.1888962
  21.1741753  14.5402498  80.1925278   1.8105348  59.5954285  31.7962761
   1.5508237  59.7602615  32.7027054   1.2421718  58.8801918  31.5105648
  44.4080658  23.1351299  63.8586311  44.9313622  23.8669910  63.5318718
  44.0361176  23.4548283  64.6806259  35.5832405  28.8697891  70.3641586
  35.6200294  29.0960274  69.4348068  35.0010071  29.5257568  70.7474899
  36.5064163  49.5876236  14.7966194  36.7945900  50.4993553  14.8405371
  35.6402435  49.5903168  15.2040129  79.3620453   7.9279256  84.2153702
  79.9407806   8.5830498  84.6053772  79.5647507   7.9555726  83.2802887
  68.4374695  68.4721985  65.6869354  68.8392334  69.3320084  65.8115768
  68.8271790  68.1407242  64.8779373  23.2675724  48.1980629  35.6925125
  22.6339741  47.5804672  35.3273277  22.7762413  48.6799545  36.3577995
  22.2681408  59.2475281  58.4824791  21.7137852  60.0252647  58.4188957
  22.4018250  59.1248741  59.4223289  77.6285095  46.8491211   9.3066206
  77.3424683  45.9357224   9.3172312  77.5440369  47.1159401   8.3912506
  85.3314896  61.0925674  66.6529999  84.8842850  60.3510818  67.0609665
  84.6252213  61.6812057  66.3867035  12.4836349  16.2324657  78.0164948
  11.6367331  16.2689381  77.5719070  12.3144188  16.5986519  78.8845444
  83.4060974  29.1663952  59.5760880  84.3224258  29.1926670  59.8515663
  83.3364334  29.8506050  58.9103279   6.2719464  45.6927147  22.1051807
   5.4634500  45.4763527  21.6406879   6.9219685  45.8104630  21.4124756
  69.5484314  56.7404137   1.4222524  69.3953094  57.6599846   1.2050434
  69.5239716  56.7129593   2.3787460  47.5564766  18.7652378  69.1308517
  46.6444321  19.0122547  69.2837906  48.0206680  19.0677490  69.9113922
  55.4931755  67.6005173  53.7768021  55.8796844  68.1078949  53.0630722
  55.6821365  68.1116714  54.5637207  36.7073593  55.7319069  55.1625862
  35.9174080  55.8162613  54.6286469  36.5352173  56.2742271  55.9323196
  77.7255630  57.9654503  62.2282448  78.6689453  57.8447876  62.3363953
  77.3989410  58.1080742  63.1166191  14.6339083  46.8139839  86.9163742
  15.3673477  47.2683754  87.3308945  14.0425224  47.5146904  86.6415863
  65.9447861  61.7859459  65.4262085  65.2100296  61.8251152  64.8139725
  65.8172226  62.5398827  66.0019989  68.6411591  22.4192772   9.9035692
  68.9023056  22.4653187   8.9838333  69.4672699  22.3789959  10.3853836
  63.7328873  56.8834572  60.3261757  63.6412354  57.6231194  59.7255669
  63.5413666  57.2505455  61.1891899  23.7806740  40.9363708  85.5615616
  23.5098495  41.2086067  84.6847610  23.4179115  41.6049194  86.1426620
  63.3368225  33.7716637   4.7419500  62.5777130  33.9488754   5.2974524
  63.1889648  32.8862534   4.4096489  77.2762756  53.9550705  52.9397240
  77.3178482  54.5595551  52.1987076  76.7734756  54.4254951  53.6046524
   1.6368037  41.7098160  30.3260098   1.9057357  40.8562965  29.9862823
   1.9640127  41.7235184  31.2254429  27.7251663  61.0074615  80.7135696
  28.5611439  61.3514938  80.3989105  27.9037933  60.0881729  80.9116364
  13.7541380  49.2652054  85.5730515  13.4670639  50.1520576  85.7905731
  14.4797182  49.3915291  84.9616547  74.0044022  30.9964981  30.3574944
  73.5524216  31.7469578  29.9718018  74.3718643  31.3324699  31.1750050
  57.0212517  10.6618099  48.8734474  57.3233109  11.1540651  48.1101151
  56.3734589  11.2331820  49.2859154  13.5670767  38.1298714  54.7555923
  14.3065062  38.7340927  54.8218689  13.0107479  38.3492775  55.5029831
  10.1349621  23.4313717  72.7334061  10.9707022  23.8897285  72.8210449
   9.8915730  23.5504951  71.8153610  39.9836426  14.6531239  82.9863739
  40.4704132  15.4106684  82.6616974  39.2022934  15.0271025  83.3936462
   0.6732369  17.6397648  84.7661057  -0.1905774  18.0482159  84.7093201
   0.5915217  16.8345966  84.2549667  28.9116440  24.0786781  14.0932493
  28.4161148  24.4706039  13.3741684  29.0810299  23.1813564  13.8062754
   1.6103048  28.2717934  12.6261959   2.5117750  28.5206127  12.8303347
   1.6214807  27.3146763  12.6203852  27.7282104  13.6108685  10.1969404
  28.5660191  13.3119249  10.5504074  27.5911789  14.4687901  10.5987177
  25.8370285  57.1934471  78.6475449  24.8976192  57.0134621  78.6108704
  25.9474983  57.9948883  78.1359558  17.2348480  45.1566887  35.3290787
  17.9592743  44.5975685  35.0483208  17.0482235  45.7069016  34.5683784
  46.5808945   3.0978248  65.3115158  46.2167015   2.8803799  66.1696091
  45.8474350   3.4804699  64.8300095   7.8463726  56.4771919  51.9157906
   7.7920380  56.6914520  50.9844627   8.7631788  56.2391167  52.0536957
  79.9465027   7.0179620  44.3473930  80.2852097   7.6089511  43.6749039
  80.6860199   6.8795896  44.9391670   1.2847955  28.0992279  47.4020348
   1.3620517  28.6369152  46.6138992   0.7201871  28.6075191  47.9843483
  80.9311676  42.3027496  40.7353096  80.2739182  42.9149551  41.0661545
  81.1801453  42.6569099  39.8816032  60.9216728  38.2266846  20.1125526
  60.3137016  38.2334404  19.3732586  60.8248596  39.0919876  20.5101833
  84.3014908   3.1267791  45.7593193  84.0178070   3.8719652  46.2888947
  84.9681244   3.4880807  45.1751137  31.7835064  53.8148689  88.8037796
  31.1918392  54.5460396  88.9813995  32.3262253  54.1173744  88.0756454
  33.6828499  70.8419571  47.5917015  33.6246338  71.7391968  47.9200249
  33.9161873  70.9393997  46.6685066  74.8779831   4.5647879  25.9940491
  75.3345184   3.7864006  26.3132954  74.8237915   4.4389925  25.0466995
  65.9340820  25.5040760   3.4395847  66.4835358  25.4372864   4.2205248
  65.3420029  26.2329941   3.6249335  68.3603592  34.4950027  59.9273033
  68.7740784  34.5322571  59.0649300  68.4204102  35.3902779  60.2606354
  74.4620514  64.2700424  47.7433929  74.7489624  64.5276489  48.6194954
  73.5992813  63.8784294  47.8794060  42.4407997  52.7876663  86.8206329
  41.6088142  52.3255081  86.7184525  42.9909019  52.1832504  87.3189392
  39.5398331  39.0802803  58.9151955  39.6658173  38.2647896  58.4300766
  38.6299858  39.0452080  59.2104568  81.7680740  48.6096687  53.4124413
  82.0064545  49.3019180  52.7958412  81.9185410  47.7968292  52.9298630
  49.7871323  26.5937061  72.5678177  49.9320107  26.4281883  73.4994049
  50.5313911  27.1337185  72.3019257  15.9781828   1.7877026  80.8539505
  15.9233770   2.5113120  81.4781418  15.8699160   1.0012966  81.3888092
  61.1484985  63.6479530  68.1425629  61.8603897  63.0230980  68.0047073
  60.3753929  63.2135544  67.7822342   3.0024998  63.4283524  54.3287964
   2.3827620  63.1007957  54.9806137   3.8212094  63.5405426  54.8118706
  29.9836254  33.3584290  88.8834763  30.5838776  34.0009079  88.5051193
  30.1173286  33.4331017  89.8283463  82.1455841  46.3008652  51.5682564
  82.3129501  46.5619049  50.6626740  82.0453644  45.3497467  51.5287323
  72.3629074  66.2486420  54.4481812  71.7472992  66.9516449  54.2406998
  73.2211685  66.6724091  54.4424744  62.8558159  68.8781738  71.2700119
  63.7813492  68.9078598  71.0276489  62.4133301  69.3836060  70.5881271
  50.7761307  37.5149918  49.2885284  50.7963829  36.6689339  48.8413010
  50.1187744  38.0220718  48.8120995  29.3734093  67.9242783  19.4739189
  30.1079731  68.5377808  19.4575195  29.3003712  67.6139145  18.5713844
  77.8684998  61.4303665  82.9752426  77.3893127  62.0015717  83.5755234
  78.4654160  62.0174026  82.5112228  25.7079983  47.1924362  61.1156616
  25.0204697  46.5346642  61.2199326  26.4898796  46.6880913  60.8908768
  77.8367615   8.1340408  55.0518990  77.9052429   7.5569458  55.8124962
  77.6981506   9.0050631  55.4238396  32.2255554  14.1693153   8.4412632
  31.6883068  13.9941330   7.6686649  31.5932713  14.3030787   9.1473494
  26.6431866  71.1082993  73.9695663  27.2981682  71.7670975  74.2002335
  26.3813858  71.3331833  73.0767517  12.7287521   1.4894550  27.8527775
  11.9753361   0.9958640  27.5287971  13.4472485   0.8570040  27.8531055
  81.7177505   7.7405267  78.2950058  81.3324814   6.9872341  77.8473969
  81.5065155   8.4864845  77.7336121   6.2236710  26.3028927  74.7885361
   7.1365957  26.3158112  74.5010757   6.1711316  25.5566387  75.3856735
  76.7347412   8.1255322  71.3716736  77.4425735   7.5373640  71.6348648
  75.9599152   7.5649376  71.3316345  63.2287788  24.6459427  74.4239731
  63.5289230  25.0675049  75.2292328  62.9377670  25.3694763  73.8689575
   6.7355266   0.3872924  10.7346191   6.0913839   0.4142342  10.0270977
   6.7151675   1.2672827  11.1106968  47.5509529  33.7282333  58.2794800
  47.4801064  32.8748283  58.7071648  48.3989601  33.7042999  57.8361473
  19.2125416  31.5599403   9.1823826  18.6570168  31.5233517   8.4037399
  19.2716961  32.4923019   9.3908024  16.1768932   6.2348285  59.6692810
  15.2357349   6.4093347  59.6688309  16.5813255   7.1022301  59.6525002
  79.4418716  39.0677528   3.9923489  78.8379745  38.3347092   4.1114874
  80.2496109  38.7847328   4.4209380   8.9665928  15.1474705  56.8083153
   8.6508131  14.2541885  56.6720734   8.1866407  15.6412153  57.0615425
  32.4915352   7.1929827  80.9523621  32.1478081   7.0617270  80.0687027
  32.0629234   7.9917011  81.2598953  78.0279083  44.3898048  30.3050232
  77.9526749  44.6912308  29.3996429  78.5210800  43.5716400  30.2448750
  30.8054333  23.0980797  74.1513901  29.8701134  23.2905884  74.0854340
  30.9309044  22.8284836  75.0612259  21.2288799  71.1813965  83.2185822
  21.0485210  72.0900803  83.4594269  20.8055305  71.0707092  82.3672562
  18.0523186  45.7883530  56.2457848  18.6877308  45.1099434  56.4743462
  18.4721355  46.6077385  56.5076942  18.3744030  57.2269478   4.0479326
  18.5436401  56.3692932   4.4378319  18.4499969  57.0805168   3.1050246
  31.6814060  23.3638268  85.0335007  30.9946766  24.0051899  85.2159500
  31.5939140  22.7142467  85.7310867   4.3753142  20.9220524  11.2870836
   4.4931593  21.7960453  10.9149561   5.1311636  20.4247780  10.9746065
  23.1317692   9.3589773  16.6473522  23.0986176   9.8325758  17.4785194
  24.0498810   9.1053286  16.5526695  69.0034866  50.6563644  29.7394485
  69.7410507  50.0585327  29.6176758  69.2265167  51.1548882  30.5255527
  51.6576653  60.1280060  10.1579361  52.1478615  59.8067360  10.9147234
  50.7966881  59.7175598  10.2384396  82.2593231  68.6771622   9.8007288
  82.3097610  67.7942963   9.4343472  83.0144272  69.1338501   9.4299345
   4.4323974  28.8212700  19.7920055   4.0433583  29.5677662  19.3363495
   4.4772429  29.0964565  20.7076988   2.8433585  58.3477631   1.5038455
   3.5107129  57.7226257   1.2208729   3.2098615  58.7490883   2.2917829
  38.9342690   4.9006386   8.1174078  38.6542015   5.7287669   7.7275391
  38.1745415   4.6022558   8.6174164  24.8978310  66.7969742  20.0999222
  25.0139389  66.5622482  19.1792393  25.7319336  66.5712204  20.5116787
  64.8677139  27.8056126  49.8248444  65.2838058  28.6651745  49.8900375
  64.2487564  27.8934917  49.0999985  21.0529499  12.7616129   6.2157531
  20.6736889  11.8965178   6.3706851  20.3447552  13.3732061   6.4173598
  48.1210403  15.7806559  19.8369255  48.8976936  16.1404495  19.4084511
  48.4680023  15.2349730  20.5426731  83.8125839  52.1479530  10.4792433
  83.1359482  52.5910225   9.9673004  83.7813263  51.2387733  10.1815147
  40.9861450  31.4535484  76.5552750  40.3482742  31.0516396  75.9655075
  41.8365021  31.2265148  76.1790085   5.9687371  13.9923296   3.8463404
   5.3382530  14.0238562   4.5658736   6.3549771  13.1184454   3.9044447
   9.7568884  30.3149815  61.6774864  10.6822376  30.0719795  61.7076530
   9.4953299  30.3764706  62.5962029  47.5841522  53.5069962  71.4445038
  47.7881966  54.3630753  71.8209686  48.2239838  53.3959351  70.7412872
  29.6483002  67.1976013  55.7644844  30.2441635  66.9207993  55.0683823
  30.1663609  67.8007431  56.2974586  48.5445671   1.6155521  25.3009930
  48.4206886   1.2077798  26.1580849  48.8284607   2.5079560  25.4991093
  72.5732956  24.6003571  11.5842018  73.0169525  25.3402309  11.9989195
  72.9619217  24.5468636  10.7110815  10.6499510   3.6262929  88.7883987
  10.9224911   3.9196804  89.6578140  10.7342453   2.6733308  88.8198624
  50.3791199  48.7034378  77.6248169  49.5166473  48.9399986  77.2836227
  50.5761719  49.3828239  78.2696762  51.5830460  54.9572525  57.2355881
  52.2187691  55.0387650  56.5246429  51.0725136  54.1789627  57.0123100
  48.8891983  43.9592476  52.7425842  49.2352028  43.4649773  53.4856911
  48.5890732  44.7847862  53.1229095  57.6502266  21.9999008  45.2016335
  56.9772720  22.0993404  45.8750381  58.3930397  21.6085320  45.6612930
  16.7104187  41.3169746  83.6558990  17.0575733  40.4418144  83.4832306
  16.4667263  41.6524849  82.7931824  74.5588226  13.7508020  18.4561939
  75.4272537  14.1440744  18.5421352  74.7266159  12.8102970  18.3967953
  43.8593178  26.1701298  19.2376957  43.6218529  27.0048218  19.6415920
  44.1189308  25.6139164  19.9721737   3.2896745  56.7470779  75.5826797
   2.4386532  56.6211472  76.0023651   3.4944613  57.6706276  75.7287827
  50.2106590  68.2254410  28.7719421  50.8954964  68.8878632  28.6801662
  50.6554909  67.4737091  29.1634254  74.8485031  66.4091873  30.9021397
  74.0986786  65.9573212  31.2891846  75.6025696  65.8704758  31.1417255
  27.6323738   2.8890383  32.4296532  27.2387791   3.2961891  33.2013702
  27.3388939   3.4307506  31.6970901  79.4811478  15.7688742  38.9143982
  78.8534164  16.3364296  39.3616905  80.1187973  16.3716373  38.5318909
  74.9165802  33.1967659  84.7337265  75.1452484  33.5855446  83.8894577
  74.4909058  33.9053955  85.2163010   2.3957574   2.6720142  31.9385452
   1.5936285   2.2571526  31.6211948   2.3993297   3.5348032  31.5240402
  60.3536110  57.0615425  81.0547180  59.7232437  56.4219322  80.7234116
  61.1869965  56.5909271  81.0696030  25.8285160  59.8277321  59.8137169
  25.8458633  58.9375725  60.1652069  25.7359123  59.7101669  58.8682899
  83.8016281  26.9145279  88.6109467  83.1604996  26.2238731  88.4431000
  83.8598557  27.3933468  87.7841568  30.8541641  57.2694321  18.8777714
  31.5422821  57.3643608  18.2192020  30.3024368  56.5605125  18.5472260
  51.8470116  68.3735809  15.9421062  51.8016129  69.2066727  16.4112797
  51.8733368  68.6204453  15.0176620  60.4078674   6.4604111  59.4608879
  59.5036430   6.1677275  59.3470917  60.4671707   6.7010288  60.3854523
  72.9230270   1.8236203  31.9022655  72.9913177   1.5201330  30.9970226
  73.4122925   1.1759417  32.4095726  45.8418732  28.6659431  68.5728912
  46.1862526  28.8484268  69.4471512  45.4743309  27.7846241  68.6393890
   0.2897924  35.8794937  24.2902355   0.6115418  36.0187378  23.3995495
   0.0146829  34.9627991  24.3049450  40.1423569   1.9332532  78.0871811
  39.3165245   2.3621082  77.8628845  40.0955811   1.0814862  77.6529770
  14.9204607  68.0644455  61.0785217  15.6727285  67.7756119  60.5618973
  14.3377123  67.3053360  61.0981331  11.6161461   8.0252590  53.9010811
  12.0200310   7.6695976  54.6926689  10.6911440   8.1226521  54.1271744
  35.5437126  28.1650925  78.0502777  36.3291397  28.6898499  78.2050705
  35.8613663  27.2627773  78.0163116  23.6579437  46.1743317  58.4652367
  23.5071545  45.3522263  58.9317551  24.6066685  46.2099571  58.3432350
  71.5228271  60.1925850  46.6500282  72.3056717  59.9704170  47.1540337
  71.8391266  60.3056259  45.7536964  25.5763702  71.0592880  25.3011227
  25.8427315  71.8390045  25.7882843  26.3908386  70.5779343  25.1556149
  81.6337814  32.5479774   7.2043395  80.8990479  33.0055580   6.7956557
  81.5597382  32.7592583   8.1349888  83.9736481  52.5135803  53.4305038
  84.0423431  53.3810997  53.0318527  83.3323288  52.0518723  52.8903465
  65.6327667  64.9682083  75.6513062  64.9143524  65.1638336  75.0497665
  66.2376251  64.4341431  75.1363754  45.6539917  67.9832611   2.5830863
  44.7928734  68.2168884   2.9296837  45.8705978  68.6945801   1.9803113
  80.2777176  23.6050568  42.6788177  81.0483398  24.0795994  42.9905434
  79.5376129  24.0592918  43.0815010  16.7712135  17.2964115  14.6858673
  16.3703060  18.1518822  14.5319986  16.3055172  16.7040062  14.0956020
  19.7426109  54.2900352  70.1624451  19.0066471  54.6163559  69.6446533
  20.1307430  53.6030388  69.6205750  44.7009735  26.3143501  83.4372025
  44.1902466  25.7703228  82.8376846  44.0523148  26.6858387  84.0350952
  68.7909622  64.7088242  50.2000198  69.3979492  65.2806168  50.6699600
  68.1879730  65.3087616  49.7610283  76.4708862  15.6371355  61.0677681
  75.9272919  15.7682047  61.8446541  77.2565994  16.1577625  61.2346001
  86.9434204  25.2548351  43.7754364  86.6925430  26.0782051  43.3566818
  86.5091782  25.2777653  44.6281586  12.6830273  54.2997360  52.3047523
  13.0864258  55.1590042  52.4278679  13.3332214  53.7981491  51.8129272
  33.3823204   0.9995137  33.2532463  34.0162621   1.6028544  32.8655243
  33.5916862   0.9997755  34.1872711  24.7424927  37.3194122   2.5440154
  25.0423527  36.8510323   3.3230782  24.7728043  36.6659660   1.8452156
  81.3075333  51.5131531  15.7704639  82.0126419  51.8408890  16.3287086
  80.5772552  51.3624763  16.3706493  78.5178909  41.1560745   5.3626175
  78.6418304  40.3719330   4.8278294  77.8763046  41.6766624   4.8793063
  70.4525070   4.7300200  77.1814194  69.6574554   4.7993917  76.6529083
  71.1618423   4.6757569  76.5410080  80.9894867   8.5451918  52.0847702
  80.7520447   7.9001260  52.7509117  81.0582047   9.3706646  52.5644608
  17.5514050   9.0256777  14.9767647  17.2278976   9.0567532  15.8771029
  18.1198254   8.2558956  14.9529400  23.2385998   1.0795883  42.1714554
  23.0591145   2.0155668  42.2606812  23.5073299   0.9731669  41.2589378
  18.2792568  61.6192055  22.7664509  18.7371311  61.3359451  23.5578709
  18.9696560  61.7093277  22.1095963  82.7358322   0.2789804  37.2986183
  82.2591858  -0.1460085  36.5855789  82.9853439   1.1325814  36.9445839
  74.6837997  33.5464478  63.5475540  75.1930923  33.6314240  64.3535538
  74.0699997  32.8339806  63.7260704   8.8977242  20.7738743  10.3786316
   9.3290415  20.1284924   9.8185616   8.7510891  21.5273552   9.8067961
   4.8397536  24.9680328   4.5099168   5.2003751  25.6511612   5.0751786
   4.3902211  25.4462624   3.8131752   7.3146553  40.3622131   3.4384298
   6.6969576  41.0818939   3.5678101   7.5515881  40.4134827   2.5124352
  61.7044182   0.9040637  71.1228714  62.4538078   1.0413873  70.5433960
  61.5752716   1.7499070  71.5519409  17.6703682  69.9181442  13.6523085
  18.1115150  70.5334549  14.2379856  17.0263786  70.4511185  13.1859941
  45.3705444  65.5691452  82.4319534  45.8677864  65.4276505  83.2375336
  45.8312531  66.2811356  81.9880447  66.4671021  45.4061890  23.7454414
  66.8834076  45.3407936  22.8859997  65.6798401  45.9283371  23.5911217
  50.0536079  51.6103668  62.1861916  49.7003899  52.4930801  62.0753632
  49.3143578  51.0314713  62.0001259  49.1446838  52.9998970  45.2574043
  49.6337204  52.8936157  46.0733566  49.1749306  52.1362381  44.8458061
  40.2677498  59.6143494  28.5327644  41.1677818  59.9312935  28.6083927
  40.2352867  59.1874733  27.6766357  50.5373077  42.2535210  26.3450489
  50.3553047  41.3865967  25.9823551  49.7005920  42.7154884  26.2928238
   9.7234812  70.7401352   4.5819144   9.2507658  70.0550537   5.0546012
  10.6464977  70.5076370   4.6830082  85.7820663  20.4210606  11.0466948
  86.7126312  20.5931644  10.9029799  85.3639221  21.2777615  10.9603643
  23.0106030  60.9839783  38.3819580  22.9639816  61.2409630  39.3028374
  23.4131813  60.1156616  38.3956985  34.3959885  27.2840481   6.0545487
  34.0139275  26.7415237   5.3646731  34.5645714  28.1259422   5.6314354
  77.9533691  61.3004990  21.6769333  77.7747421  61.7675285  22.4931488
  78.8697052  61.4982643  21.4834251  29.5036068  47.2607880  68.4793701
  29.1026382  48.1165237  68.6315918  30.4207649  47.4566917  68.2878647
  82.5350723  22.5072956   6.0510254  81.8825378  22.1743526   5.4349232
  83.2261887  21.8450451   6.0490351  52.0683250  32.1195641  27.1238556
  52.5971642  31.4478378  26.6933384  52.6074486  32.4151039  27.8575001
  42.2768326  38.1047096   8.0275764  42.2459488  37.3285980   8.5869761
  42.3545761  37.7567406   7.1392612  48.4314651  55.3590584  37.7658157
  47.9412193  56.1342430  37.4920006  49.3486328  55.6306000  37.7297173
  27.7669735   2.7283926  49.4322166  27.8164082   3.1350675  50.2973213
  27.4045963   3.4107487  48.8671455   5.3230362   7.9027061  59.7119331
   4.5218959   7.7358088  59.2153931   5.9544649   8.1975946  59.0557556
   6.4652648  10.9522429  21.2205143   6.5040612  10.4895391  22.0575504
   6.6484399  10.2785215  20.5657024  54.2719536   4.5058436  67.8969879
  54.0435600   4.8771052  67.0447922  53.4380112   4.2063766  68.2590485
  41.9080429  70.8299484  63.3893623  41.6307182  70.2383728  64.0889053
  42.4858551  70.2987366  62.8414764  17.6221867  67.1461792   3.7228627
  18.4483967  67.1120224   3.2407424  17.0717316  66.4858856   3.3018637
   2.0170629  65.9038467  24.4726162   2.9286325  66.0338593  24.7340927
   2.0460505  65.1686935  23.8602982  57.1048889  24.9380169  26.2117157
  56.8532333  24.3868504  25.4706917  56.2922554  25.0676727  26.7006378
  74.4351730   8.8270493  26.4653301  73.5870056   8.4931698  26.7575073
  75.0570908   8.1377296  26.6983337   4.4131947  15.2943277   8.1803761
   3.7750158  14.9900894   8.8256655   4.2475228  14.7551403   7.4070320
  51.5162773   7.8841662  49.1110077  52.2957535   8.2377920  49.5394936
  50.9553223   8.6463566  48.9673805  38.4806404  50.0893478  -0.0980955
  38.4849434  49.3850365   0.5501025  38.0348587  50.8147163   0.3393381
  35.6205673  52.4398346  85.6457367  36.4510002  52.0205460  85.8711472
  35.8736649  53.2549515  85.2124252  85.2032166  68.6277008  52.6682243
  84.6472626  68.1200333  53.2593422  84.9192657  69.5334930  52.7912292
  60.7459679  49.5996666  32.5162163  59.8786430  49.6849403  32.9120789
  61.0511780  48.7353477  32.7919617  11.9433622  66.1225510  71.6881866
  12.8448677  65.8056030  71.6328506  11.5527697  65.8815689  70.8481903
  26.0882568  38.3984146  70.6777878  25.9758854  37.6100311  70.1466904
  25.2055454  38.7592354  70.7606049   2.4359214  50.2735214  72.8829651
   2.3549211  51.2253647  72.8224106   1.6442907  49.9945717  73.3431168
  37.9000893  27.8320541  88.4506912  37.4441528  27.8006554  89.2917480
  37.2802773  28.2572117  87.8579788  64.3535995   6.8697743  23.5600548
  65.0869904   7.0974393  22.9886227  63.5778999   7.1654367  23.0834980
  58.2266273  49.2684326  19.6229210  58.6781349  50.1029167  19.7494583
  58.6997375  48.8464699  18.9057407  13.7943888  12.1910868  59.2298241
  13.4553642  11.3429098  58.9436569  14.6925163  12.0090914  59.5063667
  37.0592804  67.5572052  82.7678604  36.4037437  66.9229736  82.4776077
  37.8857498  67.2247314  82.4176559  15.8151846  57.2429543  33.6228981
  15.0633001  57.8352509  33.6321640  15.8404121  56.8740959  34.5058136
   9.1576881  54.8293457  61.1228943   8.8139973  54.0638657  60.6623039
   8.5814772  55.5465546  60.8586464  17.9749622  62.9759178   2.1538637
  18.4960537  62.9813232   2.9567757  17.2263546  63.5391197   2.3503845
  67.3635330  62.5033798  36.7971344  67.7839890  63.1871834  37.3185387
  67.1215134  62.9397659  35.9802971  58.3785248  47.6642380  86.9469757
  58.8728104  48.4517670  87.1743622  57.5573235  47.9939156  86.5820389
   2.0862956  22.0576591  31.4473019   2.2601142  21.6230602  32.2822533
   1.1502612  21.9241905  31.2981129  30.4634113  52.5851669  13.5674124
  29.8180122  51.9227371  13.8141527  30.0225754  53.4198608  13.7260895
  36.5004730  69.8522110  68.7781296  37.3032837  70.1087570  68.3243561
  35.9067268  70.5922165  68.6512909   3.5650644  46.8530350  44.0437431
   4.0229135  46.0289497  43.8779602   3.4511626  47.2423706  43.1767502
  69.7926712  14.1375694  66.3613663  69.6311035  13.6248884  67.1533813
  70.6101608  14.6025095  66.5396271  46.8605690   8.8304319  63.9617577
  46.7780304   8.7668543  64.9132690  46.3107071   9.5766668  63.7229767
  52.0232849  42.7264633  81.8850632  52.8119240  43.1722107  82.1942291
  52.3307114  42.1579094  81.1790390  52.3495064  46.4000473   3.8580928
  53.2009697  45.9681816   3.7892573  52.0216637  46.4278107   2.9592159
  36.6296310  50.0208664  11.8571329  36.1107216  50.3955231  12.5688896
  36.5622826  50.6612167  11.1488600  73.3209610  11.8816156  33.5547333
  72.6855164  12.5721998  33.7432213  73.4807434  11.9535027  32.6137047
   2.1914625  46.0498734  51.7968712   2.8355691  46.6936722  52.0916290
   1.8733081  46.3941650  50.9623222  27.9387283  45.2744026  60.4278374
  28.0814362  44.8488541  61.2732849  28.7642746  45.7220802  60.2426529
  32.2161026   1.3193806  48.9909592  32.1726074   1.3547473  49.9465179
  31.3331223   1.5501409  48.7023010  55.9041214  33.2446747  88.3692169
  54.9645767  33.0733643  88.4335327  55.9623756  34.1179276  87.9815750
  61.1023903  61.8308220  35.0887260  60.2429848  61.4304161  34.9570999
  61.5794220  61.2016449  35.6298447  35.4787407  60.5654716   6.8252282
  35.7150612  61.2127190   7.4896464  34.7119293  60.9380264   6.3899841
  68.5345764  69.8091354  87.6469955  68.8406525  69.1232681  87.0535889
  69.2132950  70.4827805  87.6048126  76.0954590  43.4642715  39.9804382
  76.1424866  42.5760422  39.6267853  75.1583405  43.6358414  40.0731659
  29.9710808  24.0421581  81.0538025  30.7455158  23.6939583  80.6119461
  29.3878384  24.3063068  80.3422699  11.8992939   4.6127157  86.1418381
  11.7664938   4.9023213  87.0444565  11.8367109   3.6585298  86.1847839
  42.0746536  55.7880821  79.4997940  41.1309395  55.7385292  79.6520615
  42.3268623  56.6476746  79.8370209  75.0627213   6.9728289  67.8052826
  75.8582077   6.6108303  68.1956558  74.4446640   7.0334768  68.5336761
  59.3905563  48.7298317  26.1508656  58.5626183  48.8726959  26.6094933
  59.4226723  47.7846069  26.0033932   7.2025695  52.8085747  72.4149323
   7.6285219  53.2285957  71.6676865   7.5611706  53.2592506  73.1794739
  70.0362625  16.9024353  85.0316620  70.7225494  16.3281860  84.6918488
  70.3081207  17.7818871  84.7692032  13.9495821   4.5157223   4.7388387
  14.4904909   4.4741588   3.9502182  13.1136112   4.1302986   4.4764771
  68.4213867   3.0179265  52.3157616  67.4767609   3.0909066  52.1794090
  68.5099487   2.4428930  53.0758438  76.8333893  15.0467587  74.3661270
  76.8675919  14.6605015  75.2412720  77.1466599  15.9430618  74.4875183
  48.9751358  61.0060539  43.9738388  49.7092743  61.2499847  43.4101257
  49.3838348  60.7384720  44.7970009  31.6404648   3.1443121  44.2186737
  31.7994308   2.6841764  43.3945160  30.8166161   3.6107678  44.0775146
   5.7608318   9.0095301   8.4686079   6.5862889   8.6228876   8.1764441
   5.9220572   9.2591162   9.3785229  64.4795532  59.5560570  71.5791626
  65.0470352  59.1582413  72.2394180  64.6534042  60.4948082  71.6481247
   5.5586085  54.5602112  38.8815765   4.6970139  54.1447830  38.8454514
   6.1201096  53.9107246  39.3047981   1.2336137  70.8511581  82.2258682
   1.9117912  71.4732590  81.9626236   0.9468635  71.1590500  83.0856400
  24.6492214   8.0570402  64.8811722  24.4634800   8.8371067  65.4038849
  24.4784508   8.3270950  63.9788780  68.0223007  64.3681641  54.5315590
  68.1731491  63.6417656  55.1363907  67.9903412  63.9576416  53.6674500
  26.8157864  70.3774338  80.4593658  27.1503353  69.5616608  80.8319473
  26.7832737  70.2145920  79.5166855  51.5590172  37.0088959   1.3153993
  51.3852501  37.3049965   0.4218894  52.1383743  36.2543678   1.2092665
  14.6535101   0.8469743   2.7889452  14.5367880   0.8804504   3.7384119
  15.4873943   1.2907857   2.6343479   6.8440404  49.8959389  73.6926041
   7.6083961  49.4182129  73.3704681   6.7750673  50.6555023  73.1142197
  39.4037781   0.0378596  15.5742826  39.9587440   0.7920567  15.7728558
  39.6182442  -0.1854609  14.6685438   8.8198967  46.7748795  62.1289024
   7.8633084  46.8066177  62.1417122   9.0651760  46.5791435  63.0332031
  49.5221443  10.0395699  37.4072456  49.8283119  10.9268799  37.2196999
  49.1788712   9.7230291  36.5716629  52.2768326  51.4674797  54.1164474
  51.3340950  51.4386559  53.9532127  52.4103355  50.8732109  54.8548584
  11.4746838  48.5466080  51.4674301  10.5976610  48.7013855  51.8182945
  11.6343498  47.6158447  51.6237068  43.4154282  53.5800285  78.4614029
  42.8424149  54.2917023  78.7467270  43.9142265  53.3457222  79.2440491
  10.9241142  16.5202637  85.1361847  10.5379496  15.9905853  85.8337173
  11.8686676  16.4180298  85.2528000   1.3363104  23.5743942  34.5932579
   1.6133891  22.8539295  35.1592865   2.1527693  23.9961052  34.3253288
  81.0099106   4.8702040  70.6606522  80.1667938   5.3174362  70.7339630
  81.4733734   5.0992484  71.4662399  49.9201050  32.0395126  18.9700298
  49.0733643  31.6792183  18.7064934  49.8417931  32.9794044  18.8066101
  50.3877106  48.3911705  40.0733109  51.1451416  48.7582169  39.6174545
  50.7390862  47.6452255  40.5594521  15.7182579  57.3803825  22.2948532
  15.8376770  58.3290596  22.2503166  16.1150951  57.1279068  23.1285248
  11.7302465  60.8364449  20.5883789  12.4726505  61.4387436  20.6364021
  11.8726559  60.2228012  21.3090687  63.1962929  66.2289352  35.4395790
  63.6849289  65.5606689  34.9590683  62.5613670  66.5632629  34.8060760
  49.5468712  13.1775389   2.8153207  49.4267464  13.4781809   3.7161074
  50.2593155  13.7187891   2.4751732  53.7204056  26.3671017  62.5480118
  53.6593895  26.0663147  63.4546738  54.6264725  26.6609840  62.4536247
  32.5178871   9.7735710  65.1736221  32.8683319   9.5937395  66.0460205
  31.8515911  10.4456711  65.3170242  13.4830704  46.8529587  36.2968788
  13.7837191  46.7512321  35.3938332  13.9210081  47.6454811  36.6072807
  54.8281441   3.1063809  74.2789841  55.5865250   2.5331542  74.3907776
  54.5422707   3.3021426  75.1712723  44.6821823  62.8782921  52.0041275
  44.3268929  62.9672356  51.1197701  45.2058907  63.6691666  52.1325111
  70.4226837  37.3429832  55.5928535  71.1020279  37.0689163  54.9767227
  70.0708160  38.1503258  55.2178574  43.8614349  19.5325260   8.5892534
  43.5120964  19.8508186   9.4216490  44.7742920  19.3164158   8.7795753
  86.1211853  27.1929588  64.3114395  86.0168991  27.1412964  65.2615356
  86.8830795  27.7583256  64.1845093  26.0629997  58.9807205  13.4647732
  26.7179871  58.9926414  14.1626854  25.2244682  58.9340897  13.9240341
  61.5337906  32.0606537  64.4053268  61.6250534  32.4654655  63.5427551
  61.3991966  32.7966843  65.0022964  58.8737221  28.4823265  71.1865540
  59.5929337  28.6922016  70.5908051  58.9409409  29.1358051  71.8827438
  62.9016609  53.7449951  30.0784645  62.7923393  53.1475220  30.8182697
  62.0167084  54.0574379  29.8901329  41.5411873  25.6890965  75.0687561
  42.1987114  26.3173542  74.7701111  41.9560318  25.2401524  75.8053589
  48.5210533  69.4302979  72.5750122  48.5391922  68.7598343  73.2579346
  49.3363419  69.3007812  72.0904922  52.3193855   3.9969387  73.3383179
  52.0527954   3.6204705  72.4996109  53.1629486   3.5862119  73.5278931
  26.3451710  49.4125786  84.3691864  26.3819828  48.5838623  84.8467865
  26.1646481  50.0689926  85.0420609  82.3725891  31.0285244  73.5699005
  81.8038101  30.2648869  73.4720078  82.7578354  31.1529942  72.7025375
  76.0009384   4.7719817  15.0678911  75.0623550   4.5844874  15.0794220
  76.1419373   5.3357091  15.8285246  19.8147011  14.1626253  84.5298615
  20.4435101  14.5395403  85.1452942  19.7858582  14.7866735  83.8046265
  57.0126076  66.2917557  34.3877907  56.2699356  66.6101608  34.9009056
  56.8813820  65.3448715  34.3386269  42.4428673  32.2257271   0.9041531
  42.0978355  32.2432976   0.0114733  43.2183304  31.6671753   0.8502572
  35.0757217  34.4053459   4.6104469  35.2208633  34.2540855   5.5444093
  34.8763618  35.3394165   4.5472374  22.3714676  58.3911667  39.6674423
  21.6414375  58.9196510  39.9899254  22.2276173  57.5254440  40.0496216
  28.4602718  52.8562889  10.4881821  28.8216496  52.0448837  10.8449211
  27.9777088  53.2447357  11.2178888  79.6145706  29.6556969   3.4732811
  80.0395203  29.0675507   4.0975690  78.6837921  29.4420395   3.5383341
  43.9875793  43.4544411  46.7225075  44.1982498  42.6297035  47.1602898
  43.0982018  43.6586571  47.0115318  80.7071609  32.5431747  56.7236481
  81.0569305  32.9632950  57.5093918  79.8575745  32.1961060  56.9956322
  11.8445606  64.4949493  67.3929520  11.4690752  64.9180603  66.6207962
  12.4556923  63.8489876  67.0387268  60.4564590  12.5607061  11.6876373
  61.2471771  12.5283127  12.2261038  60.7747307  12.4726267  10.7892065
  61.4152412  43.1846848  79.0402756  61.7873001  43.9986191  78.7006912
  61.1490517  43.3978462  79.9346695  58.3013344  31.2135086  19.7895336
  57.9516335  30.4232960  19.3778248  58.2378998  31.8853798  19.1107121
  69.6549072  22.5577774  53.4771080  69.5244904  22.2962818  54.3886147
  69.0065231  22.0515919  52.9876060   2.9554322  30.2256165  78.0951233
   2.5549226  29.5107479  77.6003647   2.6575124  30.0906296  78.9947128
   1.2490094  37.7861023  64.2024765   2.0173633  37.8965530  63.6424141
   0.5465996  37.5415382  63.5999451  16.5474567  44.9039993   9.9782772
  17.1320744  44.2809906   9.5466366  17.0864944  45.6830864  10.1149940
  23.6238232  31.7291374  68.8796310  24.1627579  30.9790325  68.6283798
  22.7277107  31.3927040  68.8743439   8.4785042  67.7492447  62.0547523
   8.0952082  66.8856506  61.9013672   9.4215851  67.6120300  61.9653015
  68.6522369  11.1812096  56.6111679  68.5247803  10.7002068  55.7934723
  68.2342682  10.6357832  57.2775345  64.1074600  22.5067673   0.5421276
  63.2793083  22.7042904   0.9796093  63.8657417  21.9202366  -0.1746625
   1.7345585  52.2006226  85.0163803   2.2214298  52.9298172  85.4003906
   1.7206004  52.3896370  84.0781326  38.1861305  24.4472122  85.6708908
  38.2356758  24.7266064  84.7567139  38.5463257  25.1829453  86.1660538
   7.2160258   3.1134505  37.2524490   7.8405209   2.6454222  36.6982040
   7.7613902   3.5882106  37.8796730  57.3086395  71.3901367  71.9976578
  56.8780136  70.9629135  71.2572021  57.1743393  70.7903442  72.7314453
  75.9776077  24.0554352   9.1003857  76.4531860  23.4166050   9.6313782
  76.1421967  23.7858009   8.1968164  69.9425049  11.7388992   3.7226481
  70.4328384  12.4939470   4.0477743  70.1738281  11.0277557   4.3201408
  52.1925011  14.3165359  66.8858032  51.7755661  14.5959787  66.0707550
  51.7386322  14.8105001  67.5686188  23.7559967  27.3822441   4.8187852
  23.3892193  26.5294781   4.5853448  23.2641888  27.6501160   5.5950594
  20.2608547  47.2356529  67.4996948  21.0946140  46.7919502  67.6552811
  19.7147064  46.9876595  68.2456512  76.7773972  66.5622330  37.5407677
  77.4171677  66.5339966  38.2521935  76.0975418  67.1590500  37.8535767
  85.5755692  19.6165314  24.1833725  84.9860458  20.2701187  24.5595551
  86.4055405  19.7510834  24.6408348  27.4903393  55.1689262  73.9540939
  28.3661175  55.0297775  74.3144913  27.2552891  54.3269882  73.5640640
  48.4918861  29.5190086  83.2507858  47.7453957  29.1032162  83.6821747
  49.1832542  29.5159817  83.9127808   6.9759698   0.6142275  28.4173088
   6.2086964   1.0854846  28.7420235   7.6010323   1.3024248  28.1894627
  37.0542831  70.3971329  50.1709518  36.9297752  69.9555969  49.3308449
  36.5857430  69.8496628  50.8010178  61.1342430  41.5624619  13.0058222
  61.8521385  42.1792641  13.1487093  60.3786888  41.9726715  13.4266520
  22.7715778  47.1217537   4.7365141  22.1366920  47.8108101   4.5406847
  23.5015488  47.5799675   5.1529422  25.2940922  65.8780670  39.6216240
  24.7411518  65.6972580  40.3817558  25.5344353  65.0132446  39.2891350
  35.3228874   3.5174153  13.9050493  36.1850052   3.3556869  14.2882347
  34.9757576   2.6448913  13.7194843  34.6964645  68.6243362  44.1408195
  34.4221840  68.1584549  44.9307289  34.5515137  67.9985504  43.4311638
  21.6005688  35.2792358  67.4266739  22.0457821  36.0904503  67.1818314
  20.9131775  35.1752892  66.7687073  12.5217342   6.7758007  59.1868057
  12.5667210   6.3336468  60.0345726  12.7234297   6.0914011  58.5487251
  86.4891739  43.2383842  87.7950287  87.2396317  42.6447067  87.7708664
  85.7819977  42.7152557  88.1724854  83.4725800  63.1983643  46.6694832
  83.9230423  63.7832146  46.0601730  84.0340424  63.1813736  47.4445305
  57.8851357  59.4801331  46.5250282  57.8191071  58.5547409  46.2893906
  58.6322289  59.8028831  46.0211258  24.4979210   6.1629739  40.6388206
  24.9470997   6.0609746  41.4779091  24.4560013   5.2764549  40.2802696
  48.5399284  40.4473190  22.8030262  49.0055428  39.6204262  22.6778126
  47.9299164  40.2725677  23.5196724  43.3045197  63.0672493  73.7863770
  42.7199669  62.8094063  74.4991531  42.9576073  63.9065018  73.4838181
  77.4798508  58.3521042  54.4512978  77.4629898  58.9576111  55.1924553
  76.8329849  58.7039948  53.8397675  10.9235067  48.6551933  35.6268692
  11.3050585  49.2726288  36.2509079  11.1254520  47.7926445  35.9894333
  41.7791100   1.2231499  57.6339226  42.4596596   0.5541215  57.7080078
  42.2429657   2.0513220  57.7572136  22.8975391  33.6165504  73.1232910
  22.0052547  33.2757072  73.1856308  23.3727055  33.1738777  73.8264847
  73.4545822  22.5903530  81.3711853  73.4997406  23.4651489  81.7570953
  73.6922684  22.0004368  82.0865479  10.3125458   7.8679843  79.6040649
   9.5665865   7.3167529  79.3675919   9.9204235   8.6973715  79.8771744
  62.0000801  25.5112438  68.7909317  62.2157288  26.4433327  68.7603073
  61.8538361  25.3296204  69.7192993   2.9308031   6.1059289  13.3699226
   2.1710815   6.5907445  13.0474195   3.4985838   6.0138283  12.6048250
  81.2243195  32.8215141  49.8576927  80.9081879  33.5774994  50.3524361
  81.1661377  33.0933495  48.9417496  19.5706177   9.6767387   4.5904202
  18.9928055   9.7771835   3.8339303  18.9790134   9.6562557   5.3426285
  69.7822037  53.6340179  18.1200790  68.9214706  53.7306061  18.5275707
  69.6971359  54.0729904  17.2737331  30.4670200  63.9147835  75.9280167
  30.6158829  64.2850418  75.0579681  31.3450127  63.7464638  76.2701111
  76.8427734  12.1561174  74.5488968  76.8804474  12.8348846  73.8750381
  77.6077805  12.3226204  75.0996017   2.8930223  13.3281679  43.5811119
   2.1279554  12.8913984  43.2067642   3.5991132  13.1482592  42.9603882
  85.3519440  19.4438457  28.4463844  85.6026459  19.1600876  29.3255081
  85.6267242  18.7262478  27.8756161   2.2078373  19.7238121  66.3751221
   2.9202635  19.6858463  67.0132751   2.0967863  20.6574039  66.1953812
  42.0267410  55.4454269  32.7347870  41.7936020  56.3633652  32.5959930
  42.1812134  55.1018524  31.8548298  85.2400742  47.9644470  85.1813049
  85.4912949  47.1040993  85.5173492  85.6070938  48.5842934  85.8116379
  48.3496513  15.7103271  63.1508369  48.7869301  16.5610123  63.1140671
  47.5824814  15.8108187  62.5872917  12.4049091  60.2514534  81.4289322
  12.7714043  60.3547173  80.5507202  12.7507658  59.4133186  81.7357712
  66.0311508  70.6850815  33.0012589  66.6248550  71.0896530  33.6337662
  65.1595993  70.9731674  33.2726135   2.7175732  44.6522751  60.6272850
   3.3168724  45.2683754  61.0485840   1.8718227  45.1005249  60.6306801
  28.3376980  49.4002113  20.7222786  29.2321453  49.3535767  21.0599480
  27.9220257  48.5960388  21.0333309  19.3134880  58.4810791  35.1090622
  19.0307236  57.8750000  35.7938538  20.2290878  58.6671982  35.3170662
   3.0519681  15.1621313  85.1703568   2.7628803  14.4129820  85.6913528
   2.4606106  15.1729593  84.4177551  52.0664139  39.5079460  23.9419231
  51.3528786  39.2371902  24.5196686  51.7469864  39.3154182  23.0603733
  58.0988159  44.0863991  58.1380463  57.9321823  43.6232414  58.9589920
  58.0932922  43.4003181  57.4705925  77.0039444  62.7237854  39.4683075
  77.1505890  63.6436653  39.6886406  76.0770187  62.6784935  39.2338104
  39.7983246  54.0462074  21.9831505  40.2958870  53.3090057  22.3369865
  39.6688690  54.6289558  22.7313976  44.0113335  67.1651077  72.4993286
  44.5396004  66.5295334  72.9822464  44.2003975  68.0033646  72.9210205
   1.4858934   5.0444732  75.9829483   1.2793978   5.7363234  76.6113892
   0.9769462   4.2905374  76.2809143  45.3912621  11.3364830  18.5307522
  45.6881485  12.2464237  18.5407352  45.7220230  10.9856892  17.7038441
  57.3396149   0.7418428  13.1716814  56.6127472   1.3349464  12.9816084
  57.7780075   1.1344881  13.9265785  83.7623749  57.1861191  59.3334351
  83.8543930  56.7753677  58.4737549  83.0291214  57.7929306  59.2316971
   2.8014355  47.8132210  11.1729326   2.2422824  47.2150116  11.6686392
   3.2229888  47.2585258  10.5165510   1.9966689  57.8705177  36.5640335
   1.0930868  58.1614609  36.6870155   1.9514346  57.2492523  35.8372498
  61.5996704  25.8863926   2.9040070  62.2548370  25.3798676   2.4239824
  60.7608643  25.5838509   2.5560033  65.0616455  25.4435043  36.8509407
  64.1374512  25.6921825  36.8351593  65.4146271  25.8825531  37.6248093
  10.3323774  18.7829762   2.8958700   9.4418097  18.7782078   3.2467239
  10.2759237  18.2662315   2.0921159  74.5131302   5.3660026  82.4481506
  74.4156113   5.5954404  83.3723145  74.3711090   4.4198165  82.4199905
  43.1459732  12.8973513  78.5969086  43.2063217  11.9474955  78.6987152
  42.9484329  13.0267429  77.6692963  27.3235588  66.1637039  49.7466240
  27.8207150  66.5498123  49.0255203  26.4118481  66.3812256  49.5524559
  78.1200638  52.4506645  49.8752403  77.8694153  51.6900597  50.3995323
  79.0543365  52.5644455  50.0496826  84.5107193  66.5717697  79.4752579
  85.3871536  66.8848724  79.6990051  83.9236145  67.2610626  79.7857666
   2.9325769  28.8506279  40.9128761   3.7873101  28.6394043  40.5373116
   3.1176591  29.0552902  41.8294373   0.4683443  59.8008652  34.1080437
   0.4835409  59.5399551  35.0288734  -0.1880244  60.4963722  34.0669708
  50.3675880  57.5864410  30.1897449  49.7395592  58.1866570  30.5916805
  51.1241379  57.6035690  30.7758980  65.5778885   4.5499778  31.3498459
  66.0403824   3.7596610  31.6286449  66.0530853   4.8439994  30.5726929
  13.0514050   5.0921783  57.2036896  13.3322964   4.1856775  57.0788422
  12.9324741   5.4304657  56.3161964  80.5656815  13.3792152  23.5417557
  80.1064682  13.1416445  24.3473053  81.4668045  13.0902300  23.6856289
  55.5076485  66.5957642  63.5211487  55.3067627  65.8393936  64.0723114
  55.2491531  67.3517075  64.0483627  82.9690704  40.2099686  65.9933014
  82.7538147  40.3387222  66.9170609  83.2665405  41.0693588  65.6946564
   4.5216122  17.7553558  76.4248505   3.9698448  18.3048077  75.8681717
   4.3554125  18.0710926  77.3130569  15.9846392  19.6248646  26.2361240
  15.4770212  20.0677891  25.5561447  16.5394840  19.0087795  25.7577744
  75.6052246  49.0559273  69.2140808  75.4842911  48.2882576  69.7729111
  75.6766434  48.6989021  68.3288345  54.2769203  67.1332779  84.4242706
  54.5974350  66.2547760  84.2199860  54.0904922  67.1079788  85.3628006
  80.7139969  16.6210365  68.9037704  80.3516083  16.7754478  69.7761536
  80.8533325  17.4969654  68.5438156  19.8699074  42.8183060  20.7197037
  19.0105934  42.7430000  21.1346016  19.8835258  43.7036209  20.3560257
  25.9309921   1.7160330  85.3471069  25.1234436   1.2381121  85.5360184
  25.6615429   2.4159188  84.7523041  59.0209427  65.1872482  65.8777390
  59.2781906  66.0173035  65.4764175  59.2285614  65.2954407  66.8058624
   4.0684466  11.7932138  19.3788509   3.6275978  11.0290899  19.7503319
   4.9910035  11.5412693  19.3382874  64.9968872  11.8539391  18.2193565
  64.9963074  11.7472706  19.1705933  65.8884277  12.1325035  18.0101242
  52.3931694  59.5539398  52.4923134  51.5735550  60.0344124  52.6089783
  52.1205101  58.6502914  52.3332405   0.7779984  34.6835823  67.5424271
   0.8535205  33.7319450  67.4722977   1.1025465  35.0120354  66.7039642
  68.6776581  62.8164062  18.3747921  68.3622055  61.9663467  18.0679970
  68.4304428  63.4281311  17.6813164  54.1970291  26.3295708  74.8704224
  54.0306549  27.0144367  75.5181198  54.5755768  25.6096058  75.3749847
   4.0248723  51.9707642  45.2778435   3.4145021  52.4476357  44.7154617
   4.3438063  51.2530060  44.7307320  81.8777847  23.0843353  46.3262978
  81.3707428  23.7835617  45.9137192  81.3563080  22.2943630  46.1840286
  72.1016083  12.6371574  78.7067947  72.4193420  12.6762695  77.8047180
  71.1928253  12.9330111  78.6536713  48.3673859   9.7437735   4.3916140
  49.1981812  10.0445290   4.0234327  48.4447784   8.7898788   4.4097252
  76.0244598  28.9975662  66.2329483  76.9532547  28.7662048  66.2257614
  75.5804291  28.2161674  65.9035797  59.8222771  64.5316315  71.2094955
  59.0241814  64.4957581  70.6822510  60.4505234  65.0018234  70.6613541
  69.0520935  49.4788361   2.4266815  68.0956116  49.5151520   2.4192798
  69.2604294  48.5926285   2.1309390  44.4481888  57.7377777  24.0520439
  43.9933853  58.4582100  24.4883518  44.1055603  56.9488602  24.4720974
  76.0207443  49.2981529  25.2975082  75.1156006  49.5108376  25.0701103
  76.4914398  49.3330612  24.4647655  12.2722378  58.6485825  14.1002951
  13.1116791  58.1997795  14.2010260  12.5042658  59.5726013  14.0076380
  64.8161697   8.9104567  14.8381376  65.3366394   8.8036604  15.6343384
  64.9881287   9.8095665  14.5583839  74.6124802  69.6312866  83.0770340
  75.0349197  69.1352615  82.3758011  75.3352432  70.0564499  83.5386429
  14.5257101  59.6755142  78.8545914  14.9346495  59.8262863  79.7068024
  14.1592894  60.5255928  78.6110077  50.3764534  50.7728577  23.6190033
  51.2323532  50.5121727  23.2788506  50.0805626  50.0176392  24.1272583
  74.3034897  21.2099953  83.4603882  74.7632523  21.7860107  84.0711670
  73.9822617  20.4911652  84.0047455  10.7500067  24.0591526  88.2551880
  10.8019133  24.4458408  89.1292648  10.6474581  23.1208229  88.4141083
  36.8547020  43.1843681  19.8056774  37.5965309  42.8163223  20.2857456
  36.9212494  44.1284256  19.9490528  71.3252411  29.4349022  14.6960344
  71.7636032  28.8801556  15.3412704  71.7975082  29.2717438  13.8795958
  63.8836288  69.7902679  27.1013775  64.0906601  70.4513321  27.7619591
  63.4503098  70.2786407  26.4014034   9.7661371  14.3847075  12.9526110
  10.1497030  13.7297773  13.5358572   8.8432865  14.4185753  13.2044668
   1.6204071  21.1419964  23.3000202   1.6954926  20.7145195  22.4468746
   1.0658714  21.9051037  23.1375771  34.5575027  57.2548409  83.0654755
  34.9741974  58.0695610  83.3462372  34.6590157  57.2495193  82.1136856
  54.3829346  36.3688889  62.2680893  54.7620773  35.9544907  61.4930077
  53.7730217  37.0184021  61.9182701  52.7299423  23.6129932   9.9214535
  52.9129715  24.1376133   9.1420269  51.9562721  23.0997810   9.6884804
  35.5556526  59.2534103  76.5980988  34.6905975  58.9128609  76.3701859
  35.8303642  59.7462730  75.8248901  55.2575302  45.7446404  60.2599907
  54.3510208  45.7799492  60.5653114  55.1981506  45.3867836  59.3741875
  65.8162155  45.2863159  10.4213123  65.7581406  44.7020607  11.1772919
  64.9057999  45.4774284  10.1958084  36.5094643  61.3301010  79.4029541
  36.2608414  60.4587021  79.7112961  37.3157845  61.1877098  78.9071655
  79.8285217   4.7409296  42.4392509  80.0574188   5.6255922  42.7242241
  78.9523697   4.8293338  42.0640564   7.4859762  54.5910759  74.5047531
   8.0528183  55.1408920  75.0457001   6.7220283  55.1389427  74.3246078
  84.1915283  57.3125381  27.7397099  85.0275650  57.6653633  27.4350910
  83.5638428  58.0190849  27.5879631  30.8211403   4.3625593   6.3067169
  30.0999355   3.9302628   6.7641191  30.3922710   4.9460039   5.6807008
  54.2636185  38.0005684  37.0252571  54.9667549  37.4078979  37.2909088
  53.4590645  37.5376167  37.2589111  56.6232491  62.4814453  72.0480957
  56.7217560  61.7923851  71.3910370  56.1066895  62.0761490  72.7446136
   4.9396195  66.1984711  28.3347931   5.2045927  66.3035278  27.4210186
   4.0059934  66.4095535  28.3392258  20.1009655   9.1629143   9.7879705
  20.0973320   9.9556417  10.3244410  19.1797409   8.9099197   9.7282228
  84.0597000  43.4932404  74.4717941  83.9941864  43.3832169  75.4203873
  84.0805893  42.6001663  74.1279678  52.1534615   7.5115657   1.4958177
  52.8281517   6.9206939   1.8303223  51.4803467   6.9304514   1.1416175
  72.0138397  68.9119263  82.2495193  72.8680954  68.9741821  82.6768417
  72.0745850  68.1263428  81.7060242  63.4690208  53.9271317  84.2921906
  63.2513351  54.6939049  84.8221893  64.2405167  53.5530357  84.7177200
  68.9766388  35.8311043  70.0079575  69.8828049  35.6725159  69.7434921
  68.7434540  36.6556778  69.5814133  85.9677963   2.0343063  66.8237076
  86.8695297   2.1481128  67.1239777  85.4346924   2.1834478  67.6045990
  33.0488892  55.2178192  14.2112579  33.7921524  55.8208084  14.1971035
  33.4137917  54.3810654  13.9233027  68.3684158  65.8461838   6.9562621
  67.7308578  65.4322205   7.5379710  69.0363159  65.1749115   6.8164854
  30.6177387   9.1195316  81.6040726  30.1983871   9.9739141  81.5020676
  29.8896618   8.5012064  81.6657867  54.1685219  38.7078857   7.1299930
  54.3141975  39.2783127   7.8847246  54.0518341  37.8361053   7.5076442
  41.8700523  51.9194069  62.7786865  41.9805069  51.2124138  63.4144440
  41.3027649  51.5476685  62.1032410  49.6364174  21.7432327  14.7512465
  48.9009209  21.2994194  14.3289852  49.4527283  22.6753521  14.6344404
  45.8089485  40.8596535  15.6166954  46.1083641  40.8727303  16.5257664
  45.3077164  40.0476761  15.5412693   1.2187248  46.9832916  69.3251038
   0.3174620  47.1687317  69.5888596   1.2850308  47.3330421  68.4365616
  78.3276443  58.9937630  19.4497242  78.2134857  58.5028458  20.2634792
  77.6561356  59.6749954  19.4847584   3.5062041  61.0386429  56.9530716
   4.2627106  61.4198303  56.5073929   2.7547200  61.3158798  56.4290085
  47.1762581  67.0508194  49.7667770  47.7750664  67.5051117  50.3594704
  47.3026962  67.4821014  48.9216499  64.2276154  18.8987389   8.5857029
  63.8820953  19.7610378   8.3548717  65.0484238  18.8311844   8.0979071
  62.1222382  21.4784832  38.1262474  61.4445229  21.9618912  37.6537514
  61.8908348  20.5580654  38.0016899  48.7370377  54.2814407  35.2400818
  48.9994087  53.3745384  35.3979530  48.8147125  54.7054787  36.0947075
  20.0674915  39.9673424   7.6623859  19.1693344  39.9619102   7.9933138
  20.6077957  39.7935677   8.4331694  31.2751923   8.8039103  69.6896591
  30.4843273   9.0826130  69.2280426  31.9914455   9.0327082  69.0973206
  38.7427902  59.5156364  31.0595741  39.0141449  59.7605629  31.9442253
  39.3106689  60.0282822  30.4842987  14.5188198  65.3776932   7.1133952
  15.3756657  65.2962112   6.6945777  13.9457312  65.7117844   6.4233346
  71.0153122   3.6549199  68.5244446  71.7586975   4.0409331  68.0611954
  70.3334274   4.3254619  68.4838638  12.8357096  29.8870392  14.4608088
  13.3219776  30.2627945  15.1946917  12.7441568  28.9605980  14.6834249
  22.7932129  31.0732937  20.9841557  23.4259930  31.4540615  20.3751907
  22.4294453  31.8246861  21.4524651  80.9824219  36.0147591  83.5410843
  81.0276794  35.7502098  82.6222839  80.4554214  36.8137970  83.5345764
   9.4279509  49.0899353  60.1249428   9.2960539  48.3056030  60.6575394
   9.2155256  49.8161049  60.7112770  84.7863083  32.7622604   7.0446634
  85.0406418  31.8399010   7.0729461  84.5092392  32.9618416   7.9388847
  10.3153248  14.0749407  22.4913464  10.5054188  13.1961927  22.8198242
   9.4316254  14.2628717  22.8075562  82.8724518  52.6252327  17.5029354
  82.9696426  53.5634575  17.6657677  83.1761551  52.2093773  18.3098183
  48.2343407  68.8486404  67.6027908  48.1947861  69.5128632  66.9146957
  48.8646622  68.2052917  67.2787170  69.8425827  40.8675385   4.0099840
  69.0015411  41.1610870   4.3602734  70.4774628  41.0949211   4.6892915
  76.8528442   7.5330019  22.5557327  77.0757294   7.9600997  23.3828621
  77.5798035   6.9319220  22.3930416  73.9088058  14.1804361  23.3734417
  74.8214722  13.8972940  23.4291229  73.4362564  13.5803995  23.9504013
  16.2767944   4.0620255  82.4693680  15.6546736   4.0173774  83.1954575
  16.9106770   4.7271991  82.7376404  34.8745155  44.5465927  51.8468018
  35.7705421  44.4740601  51.5180168  34.6822586  45.4836922  51.8134193
  51.4640579  58.5074959  86.1066742  52.0978928  59.0418930  85.6282349
  50.7023926  59.0773468  86.2133026  13.1225929  55.9688187  71.3629684
  12.4617901  55.2841148  71.4666672  13.8611860  55.6712875  71.8941879
  62.8300018  41.2523956  47.8316193  63.4889259  40.9571266  48.4600029
  62.4668121  40.4448013  47.4681396  27.9592838  40.0193138  76.1673355
  28.3936272  40.8676834  76.0787354  28.4403152  39.5757675  76.8659821
  36.6686363  -0.1473612  32.2070541  35.9116554   0.1387661  31.6958351
  37.4129143   0.2989861  31.8032513  76.8798141  35.7657318   1.6434448
  77.6001663  35.1872101   1.3931638  76.3063507  35.2166519   2.1781237
  73.2329636  19.2250061  32.1166458  73.0148087  18.3275719  32.3681412
  73.6620331  19.5926838  32.8892670  44.1824226  46.8864441  76.8002625
  45.1293488  46.9652367  76.6847000  43.8154831  47.1480827  75.9557877
   9.4797382  36.6676025  62.3407936   9.7071762  36.9181099  61.4453888
   9.4372549  37.4963341  62.8178978  44.8154335  65.6638260  55.7600632
  45.0236015  66.4882812  55.3205643  44.0358772  65.3414536  55.3077354
   8.1848373  45.8417625  11.0736752   9.1083946  45.7199669  11.2937613
   8.0708113  46.7914009  11.0360212  85.0219498  49.3608513  13.7540760
  85.0915909  49.9956169  13.0410147  85.1057739  48.5090637  13.3255196
  28.1271248   0.1943362  32.1590576  28.0753250   1.1223605  32.3877945
  28.8361168  -0.1474043  32.7038269   1.9898033  -0.0002152  15.6186295
   1.2220460  -0.0386533  16.1889820   2.1183772   0.9336806  15.4526796
  80.2277527  16.5615005   7.1049261  80.3561325  15.7963495   6.5443063
  81.1115265  16.8127842   7.3732939  73.6233902  66.8402100  47.1519394
  73.8671799  65.9431152  47.3800011  72.8921661  66.7420273  46.5421028
  67.4842224  19.4201241  62.7373352  67.7413483  19.4407921  63.6591225
  66.8740845  20.1515255  62.6424179  74.9137650  -0.0975174  69.0583725
  75.1004715   0.0839494  69.9794846  74.2767487   0.5711995  68.8068542
  52.5989075  61.2081757  70.0572281  52.5284004  61.9268188  69.4288864
  51.8595390  61.3362160  70.6515045   3.7492836  69.1347351  20.6467934
   2.8473506  69.1831741  20.3299294   3.8684959  68.2168274  20.8906612
  81.6000671  25.7980995  66.9406357  82.4452057  25.6793137  66.5072174
  81.2024918  24.9274063  66.9329834  54.7568207  54.3970604  22.0058308
  55.6506424  54.5152702  21.6843700  54.7787170  54.7309074  22.9026585
  66.1390686  29.8425064  19.0278873  65.5437775  29.4246445  19.6501846
  65.5626678  30.2436047  18.3774185   1.4241525  13.3751860  19.6217403
   2.0238261  13.8198013  19.0226231   1.3283445  13.9800577  20.3573914
  51.2299538  18.8632965  73.0000687  51.4346809  19.7980423  73.0239105
  50.7878265  18.6936512  73.8319244   9.2029705  70.1103439  73.0850067
   9.8856697  69.4398422  73.1091537   9.6817341  70.9385605  73.0523605
  37.2365608  38.0551796  75.9750824  37.4675522  38.4827957  76.7997208
  36.3667717  38.3948593  75.7645645  84.4259644  19.0496864   3.0580716
  84.1427765  18.1354942   3.0750315  84.0896606  19.4197845   3.8742580
  68.5447388  45.3538361  55.8239594  67.6517563  45.6156578  56.0481606
  68.7948456  45.9416618  55.1111221  50.9427223  -0.0016657  80.2624054
  50.9735489   0.9514156  80.1792297  50.8798180  -0.1579501  81.2046585
   4.6744428  46.5175056   9.0716171   4.9260125  47.3467331   8.6650105
   4.9883471  45.8478394   8.4639635  51.8024559  49.8944855  50.9666023
  52.4374428  50.6025581  51.0745621  52.2793808  49.2158432  50.4888840
   7.9126554   2.0519261  74.3493881   8.3114681   1.7200509  73.5449982
   7.5051093   2.8786664  74.0912476  11.4418602  45.7755928  80.8539047
  10.7357044  46.1436195  80.3227463  12.2355423  46.1937828  80.5201111
  24.0683746  46.2825546  26.4294872  24.7373638  45.6819420  26.1009254
  23.4248657  45.7152328  26.8540688   6.1464057  46.8241386  18.5238686
   5.2329445  47.1098137  18.5093212   6.4383135  46.9087830  17.6162033
  29.0398979  28.8945122  15.8710480  29.1606598  29.0454540  14.9335699
  29.6546440  29.4957333  16.2915878  83.0876694   5.0946784  86.6329041
  83.1409988   5.6430893  87.4156189  83.0195923   4.2015467  86.9704208
  14.2936859  47.4677849  48.2041969  14.5566387  48.3087425  47.8302002
  13.3535433  47.4129333  48.0328598   7.8810039   5.8082628   3.8319409
   7.7199373   6.6536498   3.4128830   8.1993942   6.0313225   4.7066426
  50.4080811  22.6976871   6.2337394  50.3768578  22.7375908   5.2778816
  51.3255234  22.5142822   6.4359641   0.7980890  33.5875168  38.0261116
   0.5693790  32.7017593  37.7444153   1.1073602  34.0196800  37.2299843
  21.1477661   9.8168859  13.0991993  21.5578537   9.0070429  13.4028692
  20.5588474  10.0685186  13.8105965   1.7744429  58.7426186  72.3379364
   2.7240937  58.7372742  72.4578018   1.5370926  59.6698799  72.3470764
  49.1443214  35.2194138  78.0747528  49.3550606  35.7035828  77.2763748
  48.1914177  35.2765579  78.1450348  61.7754936  59.1245003  69.0552139
  61.1380615  58.7519073  68.4460449  61.2567444  59.6869011  69.6303940
  71.5821609  60.8935814   2.4266007  72.4001999  61.3056068   2.7046087
  71.7405090  60.6354675   1.5185618  46.7769279   5.4825616  79.4518509
  46.5464973   4.8765807  78.7476349  47.1048203   6.2604942  79.0007019
  84.9179001  51.8665619  49.2335014  84.8658981  52.2998657  48.3815765
  84.7582245  50.9423485  49.0422859  32.0111732  36.3501396  66.7428055
  32.2328682  36.3454704  65.8116379  32.7914810  36.6997871  67.1730347
  60.4355049  71.2779007  60.6299744  60.2114639  71.7304382  59.8168030
  59.6112022  70.8892365  60.9227142  57.3208275  55.8024864   9.4379206
  56.8471260  55.3685760  10.1475410  56.6690979  55.9091721   8.7450285
  44.1306763  41.3783340  26.3076553  44.3901520  41.1757088  25.4088497
  44.7672424  40.9139977  26.8511734  82.1814575  65.5934906  80.5980682
  82.4920959  65.5129318  81.4998627  82.9654083  65.8094711  80.0930862
   3.0877187  37.5151062   1.0296454   2.7933037  38.4207191   1.1266755
   2.2797580  37.0030670   0.9943299  82.4807358  55.1715889  51.4931374
  81.8674164  54.7069168  52.0624809  81.9727020  55.3724632  50.7071419
  20.6068974  59.4601402  65.4231567  20.5189323  58.5183907  65.5701370
  19.7262650  59.7483635  65.1830673  40.6047935  55.1458015  85.1878510
  41.0691147  55.3709831  84.3816681  41.2711983  54.7407799  85.7429123
  69.5895309  51.6913147  13.8247375  69.6692963  50.9823380  13.1865969
  68.6846848  51.6362572  14.1320620  71.0183716  57.4322968  38.4905548
  71.7415009  56.9803200  38.0557671  71.2943344  58.3482208  38.5246735
  59.2166061  45.9018173  44.8199959  59.0077438  46.6383591  44.2454376
  59.0377007  45.1256828  44.2891045   6.9333634  64.8287735  10.8706675
   6.2192531  65.3774719  11.1950254   7.0700045  64.1804276  11.5614662
  12.8529596  57.9173965   6.5917172  13.1606045  57.5002480   5.7869983
  12.0406580  57.4578285   6.8043013  21.3139343  46.4219437  54.9927139
  20.5981598  46.9068451  55.4035263  21.0355778  46.3081436  54.0839806
  57.6346359  35.0523529  21.0166683  58.4570351  35.4860497  21.2442665
  57.2350883  34.8388710  21.8598881  26.3452911  12.7346973  63.8067589
  27.2815628  12.8570757  63.6497498  26.0790691  12.0756092  63.1656952
  15.6746683  19.8583908  68.2439270  16.2972851  20.5820847  68.3135529
  16.1607018  19.0937443  68.5526657  82.4935455  37.5312805  47.9848442
  82.8685150  36.6939507  48.2578049  83.2393799  38.0306892  47.6523552
  80.9188995  57.3836250  10.4214859  81.6985855  56.8690910  10.6302433
  81.1918640  57.9499969   9.6997242  12.9037066  61.2211456  14.3037119
  13.7288828  61.6563873  14.5179043  12.2334890  61.7552567  14.7300539
  72.8697891  11.6226597  63.6998749  72.1875610  12.1424532  64.1248627
  73.5655594  11.5597925  64.3542328  48.3407745  49.9960938  10.7630587
  48.9247093  49.5163574  11.3505116  48.5074081  50.9178886  10.9599371
  56.0967560   3.9376700  55.8497009  56.1461067   3.7309704  54.9163895
  55.7061386   3.1593668  56.2470589  51.4063644  39.3343277  28.3347034
  51.8830872  40.1602402  28.2520294  51.9208603  38.8222275  28.9586258
  35.4614143  66.4134369   1.4989250  35.9508514  67.2356339   1.5249114
  35.8074532  65.9054184   2.2326858   0.1458667   8.3334179  84.5980148
  -0.1147128   7.4188113  84.7067566  -0.0107821   8.7305746  85.4547272
  57.2165604   4.3384056  26.7042313  56.7630272   5.1592550  26.8959217
  57.0406151   4.1784177  25.7770443  29.9582081  54.6695251  52.0653839
  30.3431435  54.8694992  52.9186516  29.2424946  54.0648689  52.2612839
  51.1225700  65.9188004  34.0971375  51.4245491  65.4001770  33.3514328
  50.1816330  65.7488708  34.1417198  81.3576736  54.3349991   2.2903962
  81.6622620  55.2172241   2.5028582  81.9301529  54.0489082   1.5786026
   5.3271050  37.6933327  32.8674278   4.5703883  37.8404694  32.3000107
   5.1969795  36.8115463  33.2163506  83.5106201  23.4159908  42.0205307
  84.3424149  23.4193783  41.5468903  83.4053116  24.3169804  42.3260841
  78.8197708  49.1444664  19.0635605  78.5037689  49.5445633  19.8736820
  79.5206985  48.5562363  19.3444843  68.7212524  30.3275547  67.4236145
  68.8980560  30.8405533  66.6350708  68.3690033  29.4996967  67.0968018
  77.4396973  59.7261543   4.1422534  78.2699738  59.9205017   3.7074010
  77.6774902  59.1423569   4.8625770  70.2684402  70.0038071  75.9888306
  69.6707306  70.7429657  75.8764648  70.0932922  69.6866989  76.8748322
  84.1616592  23.4772224  62.3530922  83.6595764  23.3712120  63.1611252
  84.8331909  24.1234474  62.5714111  49.8236656  43.7214890  86.0281982
  49.7265549  43.7853241  85.0780792  50.6736641  44.1225433  86.2095566
  50.4175262   8.4665709  13.6933861  50.0928574   7.9261017  12.9731674
  51.3243942   8.1850729  13.8141432   3.2072301  17.3925228  79.1700592
   2.2951818  17.6094246  79.3633270   3.6943970  17.7045078  79.9326630
  81.4570084  51.6804390  20.3442478  82.1798248  51.2089043  20.7582760
  81.4719009  52.5467262  20.7511368  38.9540520  44.7247849  24.1151638
  38.1233368  44.3001022  24.3291473  38.8253059  45.0716515  23.2323627
  32.7394257  59.3247261  23.4322205  32.3741608  60.1777687  23.1974182
  32.4389839  58.7366066  22.7393398   8.1181870  10.1545067  77.3846054
   8.3628798  10.0789614  78.3069153   8.7675180  10.7513742  77.0126495
  25.5356236  19.4651604  81.1207352  26.1916962  20.1222134  81.3532944
  24.7436867  19.9712391  80.9392166  37.7114410  53.2723198  48.6131935
  37.8810883  53.9018936  47.9124146  38.2331848  52.5052109  48.3774796
  44.1342010  64.3050385  62.9895058  43.3804512  63.7498398  63.1891327
  44.7451897  63.7250633  62.5350189  60.9680405  34.6391220  73.4982452
  60.7692261  33.9811058  72.8321228  60.1437836  35.1092415  73.6240311
  45.0823898  56.4997902  71.3498306  45.7205734  56.0712509  71.9201965
  45.5836754  56.7470818  70.5727921  69.0011444  38.9655151  47.6452484
  69.8753891  38.5995331  47.7793884  68.6417160  38.4649048  46.9128380
  28.1440392  21.3162880  78.6034012  28.4257774  21.9323730  77.9271622
  28.0492744  21.8519764  79.3909836  51.4990501  64.2352905   1.7252893
  51.4217377  64.8277359   2.4731283  50.8655586  63.5402756   1.9038292
   7.8825803  48.1062660  69.3414536   7.6313205  48.9613075  69.6907501
   7.0519986  47.6821442  69.1258469  42.6052742  22.1547718   5.9979377
  42.1632614  22.9382000   6.3251925  41.9454117  21.7131405   5.4633608
  73.6390686  69.3556290  52.9465599  72.9326248  69.9287109  53.2444420
  73.9712448  69.7770615  52.1539154  84.4926910  37.1553917  68.2056808
  84.8630219  37.8088875  67.6123581  85.1886368  36.5068970  68.3122025
  39.7576828  65.9438782  59.2705765  39.1592712  65.8377380  60.0100822
  39.2272644  66.3599854  58.5910606  28.9331169  39.2484665  80.0870514
  29.6403141  38.6242905  80.2498627  28.1737671  38.8712997  80.5313110
  39.5935097  15.6490421  16.6359634  39.2304649  16.0507870  15.8466406
  39.0862274  14.8454742  16.7507439  22.0316582  67.5610428  74.1963348
  21.1277714  67.7766953  73.9667282  22.3936481  68.3787308  74.5377731
  33.9445801   5.4122009  86.3633499  34.1715622   5.7546253  85.4987946
  32.9923286   5.3175793  86.3410492  81.4604111   8.8413372  30.6312256
  80.5703735   8.7000246  30.3085709  81.3437805   9.3054409  31.4602222
   6.6632814  58.9423103  49.7020531   7.1725540  58.2013702  49.3736000
   7.3106089  59.6323471  49.8471298  74.9953461  60.7480850  77.1700821
  74.4189987  59.9840622  77.1880646  74.4235382  61.4735985  76.9192886
  70.7381058  34.8254089  74.9836044  70.5388718  34.5713692  74.0824966
  71.2566986  35.6253738  74.8978424  35.8524399   3.6625831  82.5047302
  34.9900818   3.4215665  82.8430862  35.6713638   4.3235335  81.8364639
  81.4060669   6.3942709  57.6535568  82.3628006   6.3846984  57.6253510
  81.1892014   6.0817008  58.5319099  43.5271416  55.8809090  67.4564362
  44.2897873  56.4493675  67.3493958  43.8619843  54.9984169  67.2973328
  60.7482681  48.3254700  88.3964920  61.5339546  48.7632484  88.0689621
  60.7208862  48.5472755  89.3272324  10.1056252  64.9607391  81.1605530
   9.9292994  64.9381409  80.2200089  10.1837158  64.0404053  81.4117813
  60.2716179  31.1211910  37.7606697  60.2480202  30.1668530  37.6905518
  60.7207375  31.4087200  36.9657822  70.6660385  31.5331936  51.7882919
  70.2343140  32.3755035  51.9309731  70.7275925  31.4538116  50.8363762
  35.0431976   0.9488660  39.8566017  34.3792191   1.5250982  39.4780235
  35.5867844   1.5281844  40.3905830  43.4965668  65.9505081  24.9687214
  44.2797890  66.3940964  25.2943287  43.8003311  65.4561462  24.2074280
  69.4876785  62.5637817  76.0715256  69.9607773  61.8002434  75.7407379
  68.6943741  62.6039009  75.5373993  68.7225418  52.0956078  68.5995102
  68.7941360  51.7983437  67.6924591  69.5559387  51.8471680  68.9994583
  30.4553738  44.5170021   2.9342506  29.5264282  44.6914482   2.7830520
  30.8937931  45.3353310   2.7010961  12.0535030  67.8858719  13.9130058
  11.3674049  68.1251602  14.5360975  12.1905565  66.9493332  14.0556383
  75.7903824  46.5762978   4.1027617  76.5686035  47.0491867   3.8078279
  75.0599289  47.1513214   3.8746808  48.9664688  55.9595413  57.4263496
  49.1303062  56.7373352  56.8930359  49.8348579  55.5875740  57.5805244
  74.2030258  32.2911949  12.3290815  74.6653214  32.0555458  11.5247297
  73.4505386  31.7001495  12.3547764  77.3407516  44.9700584   1.5291222
  76.7513657  45.7204819   1.6047819  78.0490189  45.1587601   2.1447330
  76.7007980  59.4789124  64.5684357  77.3874283  59.8827782  65.0991592
  76.0405502  60.1647491  64.4687576  40.9256096  22.1837444  86.0386658
  41.5860863  22.8700485  86.1334763  40.3057823  22.3480244  86.7493439
  37.5684433  65.1860046   3.2811399  37.2591438  64.3075562   3.5022383
  38.1224060  65.0581207   2.5110741  70.5820007  43.7121696  76.0478134
  71.1271973  43.7150421  75.2610626  70.8821411  44.4697876  76.5499725
   3.8849072  12.4366541  57.8757324   3.5014982  12.6883841  58.7158852
   4.4046583  11.6575603  58.0734787  84.7541199  50.3670235  54.8553810
  84.9715729  51.2464218  54.5461807  83.8491287  50.4369392  55.1592560
  67.0458603  23.1951008  57.3095055  67.4377213  22.6352940  56.6392136
  66.2073898  23.4656963  56.9353676   2.8733373  48.0132866   3.3169000
   3.4986005  47.6034431   2.7191479   3.2926452  47.9598083   4.1757092
  84.6823349  34.1761169  15.5580473  85.0876160  34.7821274  16.1783142
  85.4008636  33.6141281  15.2680159  45.5496140  52.4725533  84.4275284
  45.2087898  53.3601265  84.5383682  45.3788414  52.0439453  85.2661972
  62.7305832  31.8532410  56.8542824  63.2824478  32.5631371  57.1824951
  61.9287186  31.9135857  57.3735199  28.8588562  64.5140839  30.1898880
  28.0659370  64.8336411  29.7593174  29.0606060  63.6928978  29.7413483
  15.4220905   4.3958755  28.2237530  14.6384516   4.9416804  28.1586514
  15.2104902   3.6116302  27.7173767  40.2205315  41.3354836  68.9026566
  39.4794121  40.9331055  68.4498138  40.4159813  42.1207123  68.3913422
   2.3628829   7.8829184  66.6440353   1.6394076   7.6116390  67.2090302
   3.1485286   7.7197113  67.1659164   4.5644093  52.8151665  71.7053528
   5.4476652  53.0015640  72.0236969   4.0294809  52.7668152  72.4976501
  24.3358002  23.7848721  10.8390369  24.4904575  24.7089043  10.6428843
  23.6103630  23.5365486  10.2660542  83.6242294  67.3707199  65.1236649
  82.8155136  67.1541367  65.5876694  83.3310165  67.7317657  64.2870560
  63.2553596   0.8356982  83.8705444  63.0989723   0.0255543  84.3557663
  62.3905525   1.0953451  83.5528488  82.2824097  32.1912766  29.0606728
  81.5756683  31.7864761  28.5578022  81.8873825  32.3938332  29.9087029
  70.1377869  12.2331715  64.5093002  69.9524841  12.8343430  65.2307434
  69.7298737  12.6420927  63.7460022  47.8020210   6.1379385  53.2211075
  48.7167282   5.9377723  53.4198036  47.3020973   5.6434517  53.8705635
  26.9488564  28.9352989  63.1828499  27.6721306  29.4593143  63.5271072
  27.3720932  28.1726418  62.7885742  58.3499031  32.2428856  70.0358200
  57.9945908  33.0138206  70.4781342  59.2173996  32.1235275  70.4223938
  80.2643890  54.7419281  62.3544617  81.0496521  54.8659821  62.8875694
  80.4281616  55.2557373  61.5636292  58.1226234  24.7689400   7.7975760
  58.9481392  24.9772320   7.3601160  57.9300423  25.5429535   8.3267717
  27.9856720   8.9651794  62.1066933  27.8993473   9.9009085  62.2888794
  28.6843567   8.6708593  62.6910286  19.4421082  45.9163475  72.7347565
  20.1562119  45.8310165  73.3664322  18.9815807  45.0783920  72.7792435
  62.9124870  15.0091181  87.3735199  63.1747856  15.6762638  88.0078278
  63.6955528  14.8619356  86.8430710  77.1471100  19.1582203  48.1445694
  77.0678711  19.6804237  48.9428520  78.0898666  19.0406113  48.0278931
  36.9296570   7.5421200  68.8496246  37.7465439   7.5497437  68.3507614
  36.3813171   8.1994867  68.4213409  72.2074356  30.3856564  77.5077744
  71.6190033  29.7856960  77.0494919  72.4832382  31.0099392  76.8366241
  55.1875839  40.1369514  74.5442123  54.9321213  39.8310776  75.4145126
  55.6695747  39.4024773  74.1641312  18.0494518  17.8315563  72.2100220
  17.9530544  18.0389652  71.2805481  18.5569077  18.5605850  72.5667343
  79.5035629  41.5061493  65.6944580  78.8072205  42.1594505  65.6271973
  79.3135376  41.0362701  66.5064545  49.1911163  63.0905914   3.6474092
  49.0368767  62.2850952   4.1409831  49.7946510  63.5942917   4.1935468
   3.7760258  17.4427452   1.0931171   3.9576013  17.2787056   0.1677236
   2.9803317  17.9748135   1.0904177  35.9329033  67.3772507  62.0544243
  36.0888672  67.3424072  62.9981918  36.5595322  68.0249557  61.7318611
  83.2010498  62.7120705  65.9782333  83.0212631  63.4826126  66.5169067
  82.8616791  62.9403496  65.1128159  79.6741333  46.6893883  77.4345779
  79.6677780  46.6447906  76.4784393  78.9259796  47.2449150  77.6534119
  69.5919189  16.3515854  37.3835678  68.7274399  16.0632133  37.6763916
  69.9155960  16.9010887  38.0973701  19.9590683  65.4602127  64.8026810
  20.1454582  66.3984299  64.7674789  19.0923233  65.4031372  65.2048340
  51.6161575  25.9775791  52.0916138  51.4817848  26.9206219  51.9975433
  51.0744247  25.5887814  51.4048882  32.1978760  64.8271103   7.3013577
  33.0594788  64.8436890   7.7180066  31.9982338  65.7469406   7.1273561
  64.1263962  41.0312881   4.8710003  63.1806068  40.8865318   4.8433790
  64.5056152  40.1617928   4.7429242  35.2101860  34.9714165  14.4127836
  35.7017059  34.9397011  15.2335367  34.5453835  34.2889748  14.5052090
   2.9117076  15.0888729  17.9813080   3.4201510  15.8956280  18.0641537
   2.2099664  15.3098392  17.3689632  46.4395065  45.9941177   1.6280169
  46.9985886  45.9665756   0.8515522  46.7591553  46.7459831   2.1267698
  62.3257980  14.6292076  57.1547737  62.7587585  15.3027077  56.6302032
  62.5542564  14.8459682  58.0586853  41.9825630  70.7719040  48.7210922
  42.3310204  71.4834671  49.2582016  41.0324402  70.8759079  48.7728729
  55.5671997   6.3234253  48.5835648  55.5296440   7.0750451  49.1750793
  56.5025787   6.1700215  48.4502945  57.0210800  12.8798161   1.7974012
  56.3210144  12.5159130   2.3393564  57.7111626  13.1092119   2.4198129
  15.1396818  61.7735176  32.2982140  14.2316561  61.8111763  32.5987206
  15.5932903  61.2641373  32.9697800  21.3188801  34.1848755   6.1975484
  21.0843258  34.9257812   6.7563596  21.9297523  33.6706810   6.7254429
  45.7268105  33.1190262  82.6335678  46.5972290  33.3085861  82.9838181
  45.8795052  32.4603920  81.9559937  15.8366795  65.8915100  55.1661453
  16.2399788  65.5242844  54.3795509  16.4792805  66.5210800  55.4931564
  64.4757462  59.2438126   0.9707788  65.3043137  59.3391304   1.4404829
  63.9847565  58.5987129   1.4797068  20.4712143  70.5366898  39.4161530
  21.2339668  70.3564224  38.8666573  20.8341427  70.9394073  40.2050362
  69.1464462  43.6055717  82.8248215  68.8910599  42.9110794  82.2176132
  69.8847809  44.0386963  82.3964539  48.2503548  57.9210625  14.5006084
  47.4731026  57.5804024  14.0578203  47.9059639  58.5268784  15.1568193
  77.9769211  10.2845039  70.3070145  77.4029770   9.5661049  70.5729523
  77.5051117  10.7171402  69.5953674   4.0734944  39.8156776  20.3767223
   4.6166415  39.1943054  20.8616142   3.4556355  39.2672806  19.8932533
  58.2777672  19.4685593  34.7864456  58.5863457  20.2894516  35.1700439
  59.0387421  18.8887405  34.8174362  59.1970367  69.5199661  29.7911606
  58.8246765  70.3999176  29.8483696  58.6668129  68.9960251  30.3916435
  52.8406487  39.0434227  48.1820641  52.5230675  39.0053940  47.2798843
  52.2988167  38.4107132  48.6535835  64.0854263  69.8683929   3.2436399
  65.0215073  69.8883743   3.4425905  64.0370026  70.0353012   2.3023479
   2.1452658  22.0012321  49.5001068   1.3365569  22.5064697  49.4166946
   1.9308176  21.1436081  49.1330605  36.7672424  45.9539185  87.2160187
  36.0873451  45.6009636  87.7899475  36.6868591  46.9035454  87.3053360
  27.5246735  65.4763489  87.8158264  27.2721329  64.9010696  88.5379791
  27.7946453  64.8798523  87.1175919  62.9221191  60.8767052   8.4946804
  62.7066879  60.1949272   9.1310787  62.1144905  61.0034027   7.9967699
  66.2101593  33.5622787  40.4169846  65.3055573  33.5836716  40.7291756
  66.7173004  33.9596748  41.1248817   5.0398355  13.3420153  49.5786362
   4.3762412  13.0853167  48.9383392   5.1656651  14.2792788  49.4305305
  23.7976303  10.9994135  57.2819633  23.1220951  10.7552805  57.9146423
  23.3138771  11.3873434  56.5527687  51.2525406  57.6530838   5.9910240
  50.8423424  57.5951385   5.1281157  50.6074638  57.2751312   6.5887370
  19.2365952  15.7656231  82.3347626  19.1885643  14.9981480  81.7647552
  18.9057312  16.4847469  81.7965927  42.1683578  21.2366009   2.2495072
  42.9262657  21.8209267   2.2303495  42.0486565  21.0298996   3.1764259
  14.4693642  26.0979118  86.7592850  14.1288528  26.9077015  87.1394501
  15.3953323  26.0903683  87.0016861  16.6352215  14.0389099  83.0747147
  16.6795216  13.4039793  82.3597794  16.5344505  13.5053492  83.8629913
   8.6938038  61.2347603  39.6442566   8.2591848  61.8973351  39.1072845
   8.1697369  61.1932564  40.4441681  75.3659058  31.5561676  25.0128002
  74.8016281  30.9549294  24.5266533  74.7659225  32.0453835  25.5757580
  46.8539505  44.6998863  40.2142220  47.5408821  44.8570023  40.8620453
  46.1940460  44.1897354  40.6838036  58.6206551  50.9177513  79.6598053
  57.7143135  50.8013535  79.9448166  58.9892464  50.0343933  79.6667786
  48.3157768  11.4002476  77.3229141  47.9619827  11.6717548  78.1698761
  49.1523743  10.9860306  77.5344772  19.8934574  51.5748749  27.1269379
  19.4025192  52.2149162  27.6422615  19.2266521  50.9764404  26.7900696
  55.4610786  65.7436371  86.6377335  56.0215569  65.4685593  85.9121780
  55.8985977  66.5143051  86.9995117  75.5404510  22.7321148  64.6825027
  75.7677383  23.6574249  64.7739868  75.7326660  22.5276108  63.7673759
  61.8533363  25.8057880  30.1541023  62.6798935  25.5531044  30.5654297
  61.6648102  25.0963612  29.5397701   7.0241289  13.2639685   1.2657335
   6.1753526  12.8214645   1.2667378   6.8868985  14.0465021   1.7996255
  25.2237301  43.1419067  13.5970888  25.9780045  43.7279778  13.5352402
  25.3276062  42.5393181  12.8606586  58.2583008  59.5652351  35.4924049
  58.2451210  58.6326180  35.7075462  58.0642853  59.5977020  34.5556374
  31.5665512  59.1456413  39.2638550  30.9232101  58.4974518  38.9771576
  31.0469608  59.8247719  39.6940193  55.8943291  11.1406603  56.5206108
  55.9001160  11.6223202  57.3477745  55.1006355  11.4380608  56.0758247
  81.6060410  33.8149681  21.2150326  81.0088577  33.4544487  21.8704987
  81.3142166  34.7188683  21.0965538  38.2178955  48.7611771   2.5031819
  37.7547913  48.2881622   3.1945760  38.8672485  49.2891464   2.9677429
  75.7780914  19.0625763   2.6787510  75.0497131  19.3539791   3.2271900
  75.8373032  18.1208687   2.8397241  21.2582188  46.9726791  51.7391052
  21.1441441  46.7773819  50.8090096  20.9278278  47.8655205  51.8386421
  70.3974838  11.5712118  60.2593307  71.1891861  11.8680201  60.7080421
  70.7202377  11.0661478  59.5130234  70.6910095  42.6650314   1.0450120
  70.1662369  42.8910370   0.2770503  71.5972519  42.7679939   0.7545777
  81.0751419  49.5298080  76.1780090  80.2454071  49.5501747  76.6548309
  81.0489655  48.7087212  75.6867218  59.9827499  33.6887817  41.8273544
  59.7573433  33.3532295  40.9596977  59.3052254  34.3379288  42.0165520
  67.4832535  16.4092293  17.6011944  66.6394501  16.7337341  17.2866707
  68.0377960  17.1881409  17.6460094  82.4427719   8.9022942  39.8307648
  82.2784500   8.5938559  38.9396439  83.1232834   9.5681744  39.7320671
  68.3006973  31.3160686  81.0923843  67.7617340  32.0086555  81.4745712
  68.8549576  31.7676086  80.4558792  67.0737839   2.9853342  46.6005287
  66.4280090   3.6854546  46.5054359  66.6513138   2.2162583  46.2180672
  25.0657845  66.2588882  11.9201765  25.6089687  65.4723434  11.8699064
  25.6264629  66.9106750  12.3409472  63.5099258  15.1117325  13.6139908
  63.9522324  15.5043154  12.8613453  63.6259918  15.7486639  14.3190298
  47.3178596  68.3220825  19.5524292  47.6753044  67.8864136  20.3261604
  48.0388145  68.3215866  18.9227829  10.7929573  66.0222244  69.1103134
  11.1709652  65.3851089  68.5041656   9.8989697  66.1525574  68.7940369
  40.9154663  67.4598465  20.3247509  41.4461555  66.6672745  20.4049511
  40.2608490  67.3810043  21.0186481  30.1295471  44.4641533  51.3974380
  30.6983318  43.8439064  50.9413528  29.3277607  43.9709358  51.5709457
  38.4915314  58.0287743  39.2476311  38.6337624  57.0952377  39.0910835
  38.0070152  58.3294640  38.4788246  36.5019035  41.9491768  85.7682724
  35.8229370  41.9502449  86.4429855  36.8877563  42.8238945  85.8153839
  39.3518639  40.4195061  80.8360825  39.9270630  40.9589920  80.2935638
  39.0465164  41.0114403  81.5235519  73.5826874   7.0078306  55.5607605
  73.4546280   6.3646469  56.2580032  73.8999557   7.7901635  56.0118980
  52.3321915  19.4146671  38.8544884  51.8135262  19.6050358  39.6361389
  52.6798935  20.2647495  38.5848656  72.6482162  12.4828472  13.7805252
  72.3144150  13.2212648  13.2710676  73.0196304  12.8827906  14.5668640
  68.4269180  20.8771896  20.5792007  68.2372665  21.8153877  20.5723686
  69.1513290  20.7837677  21.1978626  19.7122593  56.6289406  14.3177729
  20.2588539  56.6659546  13.5328560  19.7022190  55.7027397  14.5591888
  51.9404564  48.2505836  42.9192429  51.8792763  47.4036484  42.4774437
  51.2891426  48.2032547  43.6190872  84.5120850  63.4375420  85.0437775
  84.4699097  62.4817238  85.0732269  83.7692108  63.7265015  85.5737610
  60.1694450  45.0018921  13.1965570  59.6061211  45.5610008  13.7316217
  59.7218323  44.1559448  13.1807938  72.8193283  16.4115486  32.8998108
  72.1711960  15.7366428  32.6981659  72.3598785  17.0193596  33.4792061
  62.4946327   1.9734234  50.4174347  61.9735947   2.6462512  50.8556747
  63.3655434   2.0537701  50.8063965  85.4532776  27.9966793  16.0161839
  84.7483826  28.2532520  16.6107597  85.7340851  28.8165359  15.6097174
   2.1735511  42.8079147   8.1234112   1.6948917  41.9873848   8.0057344
   1.7816308  43.4070663   7.4880781   0.4037351  12.8642941  49.0404205
   0.1211412  11.9509335  49.0867310   0.1572593  13.2345390  49.8880043
  10.4345703  43.9788361   9.8761263  10.9013815  43.5386429   9.1658096
   9.5495958  43.6156387   9.8423691  83.7495270  20.9696102  61.2829475
  84.5440445  20.4670849  61.4630547  83.9865570  21.8740559  61.4879494
  50.2717361  25.0608330  38.3980408  49.3641586  24.7566738  38.3936958
  50.7348251  24.4249802  38.9434509  55.1805534  38.7714577  34.5542946
  54.6349564  39.5460739  34.4181938  55.0605736  38.5533791  35.4785652
  79.7541199  62.5934868  49.1192131  80.4617462  62.5910416  48.4746208
  79.0000229  62.9447212  48.6457100  28.8506737  57.6569443  63.0783882
  29.3348141  58.3464470  63.5327301  29.4924698  57.2632790  62.4873238
   3.2048037  65.4298325  45.6627159   3.0415752  65.5770340  46.5943375
   2.5297432  65.9419403  45.2174339  61.6331062  47.5641594  13.3711243
  61.6555214  46.6325150  13.5896788  62.5524521  47.8061714  13.2594910
  71.5891266  26.4698582  36.4748993  72.1719284  26.4782715  37.2341805
  71.2280731  27.3556747  36.4402771  40.9155121  17.3609867   4.3170347
  40.4712219  17.4049530   3.4703317  41.5704651  16.6714554   4.2083273
  39.2790604  29.0262833   5.4468064  38.3841629  29.2457047   5.7061143
  39.6836014  28.6875191   6.2454424   2.4994621  21.8714733  39.4875565
   3.1583385  22.5657635  39.4962044   1.7909080  22.2068386  40.0368423
  41.6587868  36.3582916  60.1130066  42.3412018  35.6874657  60.1362419
  41.2950401  36.3606834  60.9983940  43.6405334  21.1928349  73.2744675
  43.8446198  21.7898197  73.9943237  42.7062302  21.3235111  73.1124954
  73.9282608   2.3311956  52.8298912  74.1824265   1.7964832  53.5820312
  74.5487823   2.0883226  52.1427269  76.3886948  32.5529785  51.5492172
  76.3746185  31.5966072  51.5864372  77.2067947  32.7974968  51.9818306
  69.4996338  17.2051830  29.0815449  68.5955505  17.4294224  28.8611565
  69.8914108  16.9434414  28.2483368  37.8421326  16.9898930   3.9974012
  37.5156326  17.7737980   3.5556738  37.9568138  16.3495350   3.2952454
  24.9645405  32.5517578  82.6827240  24.4436855  33.2442970  83.0893326
  24.8423271  32.6810112  81.7421951  42.1033173  48.3024025  81.0514450
  42.0067444  48.3850365  80.1027222  42.5017052  49.1288109  81.3245239
  63.7384605  24.8119659  49.8879089  64.0046768  24.8259926  48.9685822
  62.8285294  25.1088943  49.8783226  10.7178192  44.7639771  50.0364418
  10.2551928  45.3066940  49.3979530  11.2389746  45.3847809  50.5455856
   4.5818887  66.4027176   1.9610631   4.7457004  65.5267563   1.6116464
   4.8664074  66.9952240   1.2652065  11.5069847  55.5761757   6.7935925
  10.8325901  55.7196922   7.4575396  11.2429543  54.7674141   6.3549285
  11.9622269  12.3195047  17.6571026  12.5683537  13.0597992  17.6854954
  12.5268936  11.5468044  17.6749382  24.4148235  22.6626015   6.3153448
  23.8682365  22.8715076   7.0728617  23.9201488  22.9918995   5.5649509
  76.5176010  45.7252350  24.1878777  75.6913376  46.1332436  23.9289379
  76.3506699  45.3825035  25.0658875  20.7498779  40.2821198  86.4728165
  20.0589981  40.8755951  86.1783676  21.5396137  40.5969658  86.0330276
  71.2709351  54.5404549  75.9907227  70.3163223  54.5005608  75.9327927
  71.5183105  55.2422028  75.3885651  25.4636745  66.6851501  58.0074158
  26.3131847  66.9698715  58.3443069  25.5587730  66.7223206  57.0556755
  69.7282944   9.4194193   5.4397516  69.6230545   8.8136492   4.7061310
  70.4732513   9.0733261   5.9311714  69.5686111  15.5513048  42.9622955
  69.2282944  16.3749790  42.6130486  70.3773346  15.7974844  43.4112816
  12.3370056  19.7431278  71.8345642  12.9598055  19.0167332  71.8610764
  12.7602453  20.4399281  72.3361359   5.2406030   0.6879269  74.8403320
   5.9069266   0.4067676  75.4673843   5.7206593   1.2131827  74.2001114
  74.8915482  61.3474350  34.7032623  74.7462997  62.2926254  34.7451096
  75.8262253  61.2406921  34.8799438  50.9276962  70.9794159  85.6944046
  51.6236534  70.4063644  85.3727112  51.0554161  71.0022125  86.6427689
   8.0992851  33.9098816  81.1012497   8.8140020  34.2121582  80.5408554
   8.5290108  33.3797646  81.7724762  17.8137608  21.1605415  11.7734985
  18.5596428  21.7386703  11.6133204  18.0846195  20.3152637  11.4152050
  59.3270760  60.5521278  48.9580536  59.6206398  61.4607620  48.8914642
  59.2949028  60.2438393  48.0524292  43.6433716  45.4808044  81.5937271
  44.0532112  45.9644508  80.8765411  42.8654480  45.0843239  81.2014618
   7.8313627  34.4266663  74.4486237   7.6339464  35.1902122  74.9910812
   8.0105295  33.7266922  75.0764542  22.9797611  19.0698986  33.3089294
  23.0186729  18.1135330  33.2997208  22.6733513  19.3055859  32.4332619
  82.2952728  39.2869186  71.9378586  81.4331741  39.3844604  71.5335083
  82.6108322  38.4382553  71.6273346  62.8058853  51.3419418  78.4443817
  62.6228294  51.8953400  77.6851273  62.0358810  50.7785568  78.5213470
   5.1684003  40.4566536   8.6538105   4.3542919  39.9542389   8.6215801
   5.0997500  41.0710907   7.9230661  31.2162476  49.0951424   4.9707327
  30.3806171  49.5348053   4.8137240  31.8513680  49.8074036   5.0451798
  71.6833038  61.2197456  26.6555939  72.3948441  60.6809540  27.0014915
  71.9158554  62.1136398  26.9068031  19.2465725  64.3166504  11.8684769
  19.4814072  64.2747879  10.9414749  18.2901211  64.2793961  11.8751783
  47.7965775  54.0410118  54.8149529  47.4588013  54.9082184  54.5911369
  48.6319122  54.2140617  55.2491226  76.5388031   2.6376953  26.8101215
  77.2363281   2.8468518  26.1888809  76.5772858   1.6856781  26.9018497
   7.2791500  40.0988197  34.1528893   7.8311682  40.5543900  34.7884712
   7.7392755  40.2004433  33.3197060   0.9249578   5.9075198  52.6125145
   0.0662320   5.8730388  52.1910515   0.7696623   6.3720984  53.4348793
  82.9872818   6.8735352  21.4639988  83.8256760   6.7113137  21.0315456
  83.2189560   7.3339896  22.2705593  19.8392849  38.2178345  81.6072235
  19.2500095  37.5197372  81.3214951  19.7158260  38.2623711  82.5553818
  80.7005310  55.2404404  13.4796829  81.5420151  54.9558868  13.1230803
  80.8387070  55.2682648  14.4264479  71.7528000  21.0477905  70.5722885
  71.6279297  20.1819725  70.9608688  70.8786469  21.3084660  70.2822189
  81.4960861  22.7579937  39.9032516  80.9544601  23.5344315  39.7617531
  81.8902817  22.8946972  40.7647362  70.2432785   2.9234471  22.9184666
  69.8764801   3.2461543  22.0953293  70.9905396   2.3870451  22.6537075
  64.1704788   2.3458958  56.4635887  63.7614250   1.7668990  55.8204193
  63.7507172   3.1945808  56.3230095  84.2223816   9.0948792  31.8747005
  83.6517487   9.0017920  31.1118488  85.0879745   8.8348732  31.5594673
  38.4548607  51.7354240  64.6237183  38.8646393  51.3418846  65.3940659
  39.0831223  51.5882225  63.9167137  24.9628506   3.6427920  47.8977051
  25.5188503   4.3969874  48.0933685  24.7143192   3.2993796  48.7559204
  68.3236542  47.1914787  76.5576553  68.9379730  47.6730461  76.0036316
  68.1218948  47.7952156  77.2725220  18.2345409  71.4263840  56.4001999
  17.3848133  71.2588959  55.9925957  18.0321178  71.5738297  57.3240585
  57.6051826   1.7501121  21.1892586  58.1689911   1.6100199  20.4285183
  57.9378166   1.1417648  21.8491802  74.7782898  25.1690731  61.3582993
  75.1933289  24.6216545  60.6917343  75.2351303  26.0080318  61.2976952
  75.0631638  23.1025066  18.7892056  75.9281006  23.2769394  18.4181290
  74.4763947  23.0891438  18.0330620  81.4536438  24.1518726  70.1691208
  81.9244461  23.8992577  69.3749161  81.6563721  25.0804501  70.2826080
  26.5004063  52.1372337  39.1126595  27.3657341  52.0434418  39.5109596
  25.9080162  51.6933975  39.7195473   5.0526652  17.5275078  26.1057701
   5.7639818  18.1451454  26.2754345   4.4824505  17.9831333  25.4865017
  20.8592186  33.8282127  10.0882092  20.3640270  33.6802788  10.8938971
  20.7264404  34.7557030   9.8923435  81.8782883  45.1348763  58.9034081
  81.7650757  45.3325691  59.8331032  81.5156555  44.2551155  58.7997284
  69.3661575  68.5575104  78.3438721  68.7755661  68.5321884  79.0967331
  68.8736267  68.1372910  77.6388474  85.9124298   5.3358731  68.4278412
  85.0335083   5.1877093  68.7768097  86.4905548   5.2347307  69.1839981
  61.8424988  54.5277290  79.3958511  61.0654144  54.0855446  79.7376785
  62.2247238  54.9633827  80.1576538  24.0338287  16.2564735  59.8381271
  23.8662987  15.6478863  59.1185532  23.2682858  16.8309803  59.8490715
  84.6453781  61.0289268  82.6832352  84.6979141  61.0152092  83.6388931
  84.7049408  61.9562073  82.4533691  82.2394867  19.2314835  72.9229126
  82.9680557  19.7763157  73.2205353  82.6549530  18.4329624  72.5973587
  65.3720856  66.8651199  22.5160427  65.4046783  66.2092972  21.8195801
  66.0988388  66.6357422  23.0952244  65.8109970  19.0410423  44.3779869
  65.0987091  18.5173244  44.7448616  66.6041870  18.5496922  44.5916595
  74.5266647  12.8775539  28.0613747  75.1708603  13.3867483  27.5694733
  74.9563217  12.0370493  28.2200661  76.7908173  11.9524498  64.1233673
  76.5596237  11.0579367  64.3736191  77.1916656  11.8632460  63.2587280
  54.2522163  32.7033691   9.1534634  53.6147575  32.7340889   9.8668575
  54.8973961  33.3732681   9.3797569  79.4088516  19.2724781  68.8262100
  80.3569031  19.2941132  68.6959381  79.2511978  19.8890800  69.5411758
  62.2920113  31.2324314  86.5785828  62.8897552  31.7853165  86.0753403
  62.6315041  30.3450241  86.4624481   6.1756520  64.7053146  22.7261524
   7.1153226  64.6266861  22.5616283   5.9068980  63.8294106  23.0032692
  52.5791206  56.7532425  71.9098740  52.4599686  57.3763313  72.6266785
  52.0089455  56.0179214  72.1344452  45.9508324  21.0255985  59.6998405
  45.2538147  20.4401512  59.4037895  46.6686096  20.4403305  59.9416924
   7.1231594   9.6973009  71.1141357   7.4389510   8.8214350  70.8919525
   6.4029675   9.5442266  71.7257919   3.4065402  19.1656170  24.2999725
   2.8165934  19.8112068  23.9108582   3.9166050  18.8317947  23.5619831
  78.1112061  19.5089245  17.5619717  77.5628815  18.7343311  17.6867657
  77.5467224  20.1304321  17.1022758  74.7628403  56.0212936  52.6013260
  75.4385757  56.4471931  52.0738602  74.0092621  56.6087990  52.5449409
  14.3623762  52.5671539  85.1766129  14.6746130  52.6524391  84.2758026
  14.1863184  53.4658432  85.4551773  38.9569550  57.8152542  15.0977144
  39.7314224  57.3421478  14.7934103  38.3356133  57.7491112  14.3725996
  49.6763344  51.6110802  35.7845879  50.5884247  51.8368454  35.6019669
  49.6283493  50.6671219  35.6333427  43.2245293  46.2161636  48.1444435
  43.5038033  46.7462196  47.3979340  42.4694595  45.7251282  47.8204193
  66.4616699  16.8204632  80.6794434  65.9108582  17.5006008  80.2918167
  66.3067627  16.0480576  80.1357269  39.2538223  20.3394547  64.1951447
  39.2352142  21.2799168  64.3723831  38.3418274  20.0615635  64.2804260
  17.3698540  67.6452713  46.5949326  17.4153938  66.7152328  46.3731499
  17.8769321  67.7239151  47.4029655  81.4140091  33.6810760  73.4856720
  81.7896957  32.8225212  73.6805573  82.1526718  34.2862778  73.5515060
  31.7859612  66.9331970  89.2567062  30.8491325  67.0428696  89.0937424
  32.2085266  67.2946854  88.4776077  72.6415787   8.2126932  61.1834221
  73.0591812   7.3516231  61.2033195  72.5054855   8.4342299  62.1046333
  75.4588089  31.3123150  18.8749905  74.9511108  30.8163376  18.2327461
  76.1771088  30.7273064  19.1159134  86.1376190  68.3744736  56.8486404
  85.4163589  67.7506104  56.7661133  86.6564560  68.0450439  57.5824776
  77.4570999  64.1072998   3.7502992  77.7438202  63.3885803   4.3137350
  77.8405838  63.9094543   2.8958805  58.6634483   7.1324205  70.6738281
  59.0907021   7.8182173  70.1606369  57.7276802   7.3100452  70.5788574
  21.9081516  30.5135422  83.6069107  21.0796242  30.7967911  83.9936218
  21.6625099  30.1428680  82.7592697  61.2646866  56.3715668  66.2038193
  61.1596107  55.9542580  65.3488083  62.2093697  56.4958954  66.2951813
  37.3079681  68.9341431   4.0853038  38.0874557  68.4631195   4.3798680
  37.3432999  69.7700958   4.5502386  74.5582581  30.2416954  54.1740837
  74.6462326  30.8757095  54.8857841  73.6814499  30.3962994  53.8226051
  39.0762863  61.3141098  33.5360336  39.9318962  61.3558693  33.9631386
  38.4500389  61.2669945  34.2584076  72.0576401   0.2043205  83.3279266
  71.9276505   0.6969893  82.5176086  72.9368744  -0.1649351  83.2453003
  81.2961426  39.5089111  40.6441345  81.3166046  40.4654770  40.6158791
  82.0116653  39.2369576  40.0694199   7.1244445  57.7743149  41.3090363
   6.1730156  57.8514137  41.3802490   7.4458661  57.9504471  42.1932869
  63.7305489  35.0944176  72.1442642  63.3986015  34.9212914  71.2633133
  63.0282822  34.8039246  72.7262115  58.8144417   4.0793977  72.7030945
  58.4921799   4.5257607  73.4861298  58.0472374   3.6269851  72.3524551
  56.5029068   4.8851242  43.3344650  56.3605881   3.9511089  43.1808662
  57.2562180   4.9188385  43.9240570  82.3434982  13.2308178  87.2867584
  82.0086365  12.6354675  87.9573212  81.6802979  13.2118082  86.5968018
  23.2662220  32.4184799  17.3671837  23.7792931  32.2856598  18.1642723
  22.6327038  33.0970726  17.6004162  83.8145294  42.3004150  13.3549614
  83.3619308  43.1388664  13.4465590  84.3715820  42.4118385  12.5845652
  82.2330017   3.1391399  24.0531807  82.9007492   3.7950971  24.2533455
  82.0776062   3.2345614  23.1135101  17.6101761   2.8667295  28.7406654
  17.4713287   2.6629605  27.8157711  17.0725193   3.6428199  28.8982735
  56.7833481   4.6078682  17.5732651  56.7529716   4.6097188  18.5299816
  56.2780724   3.8356502  17.3190823  42.1542892  68.1404114  27.9906445
  42.8501511  68.4892960  27.4336109  41.6088638  67.6239243  27.3973618
  64.4762421  31.5717182  47.1637001  63.8473129  32.2023163  47.5144539
  64.2179794  30.7352562  47.5508232   1.7759207  56.6545143  34.0906563
   1.4122856  57.3703423  33.5695076   1.6539010  55.8763237  33.5468216
  77.2056885  70.5701981  84.0558701  77.5429153  70.6962814  83.1689606
  77.8090363  71.0612793  84.6135788  60.6923866   2.3111436  46.0423927
  60.0729523   2.1415715  45.3326187  60.7455063   1.4817051  46.5172005
   7.7736516  23.3916931  23.3327866   7.8973632  23.8449707  24.1667328
   8.4438267  23.7610111  22.7577209  44.5505028  39.9768906  87.2324371
  43.6914520  39.7148476  87.5634842  44.6259727  40.9016457  87.4677277
  78.1251755   2.6444907  67.5927963  78.4189072   1.7819375  67.8859787
  77.6517715   3.0040708  68.3430099  71.8415680  58.4864655  70.3914566
  72.0250473  57.5772400  70.1550751  71.1283035  58.7462654  69.8083649
   9.2860527  15.1653404  19.6689262   9.5898848  14.3038635  19.9548912
   8.4540577  15.2896299  20.1256180  14.0513735   6.4777594   6.6520748
  14.2096643   5.9171562   7.4116139  13.8418818   5.8684683   5.9441843
  57.5905914   5.1670885  50.7529564  57.1560097   5.4033208  49.9334641
  58.0259781   5.9719338  51.0338402  43.3423233  64.6469650  87.2399445
  43.3031387  64.2297440  88.1005402  43.9344749  65.3893127  87.3604050
  10.0262995  60.1517906  61.3037415  10.1780462  59.4527740  60.6676750
  10.6967382  60.8056107  61.1055946  61.9653778  12.8362770  77.8072281
  62.1651382  13.7715225  77.7666626  61.7983208  12.5873890  76.8981781
  70.2720795  23.6286030  39.1984367  70.0995941  22.6956406  39.3251572
  70.3272476  23.9845924  40.0852623  39.1634979  34.1049156  84.4674149
  38.4910812  34.6108894  84.9235764  39.3989067  34.6448708  83.7129211
  83.3239059  69.8714981  39.5081711  83.2077942  69.1872482  38.8489571
  83.2703857  70.6903687  39.0154076  61.5621796  60.3552475  60.5724258
  61.1488037  60.5157089  59.7241325  60.9605255  60.7414055  61.2089195
  11.4186306  42.4034996  64.8914261  12.0839062  42.8150482  64.3398209
  11.8843603  41.7004051  65.3441772   6.2040582  34.1357422  69.9158859
   5.7733536  33.6207237  70.5981445   5.7515459  33.8902893  69.1089020
  31.6614609  17.7788143  72.1954117  30.9096527  17.3025246  71.8430405
  31.8789597  17.3175602  73.0054550  85.4783249  41.9684639  57.6245651
  85.5685272  42.7702827  58.1395226  85.2360764  42.2717285  56.7495918
  80.7045135  42.0827103  15.4383106  80.3632584  42.3865776  16.2794037
  80.1782455  42.5442848  14.7854548  48.3050728  38.2041283  13.6385527
  47.6480904  37.7073097  13.1509266  48.0347023  38.1252213  14.5533781
  60.4041252  45.2250175  54.7213669  59.6626282  44.6302338  54.6088982
  60.4176102  45.4163361  55.6591530  23.9018764  58.5051804   3.2134790
  24.2235031  59.0472298   3.9338739  23.0472717  58.8777237   2.9964662
  48.6845016  24.0189381  57.5055237  47.8886642  23.8856258  58.0204010
  48.4299583  24.6468544  56.8293877  83.0406036  68.7863083  79.7880554
  82.5800552  69.0191269  78.9818802  82.4531555  69.0679398  80.4893570
  27.5203762  49.1612091  33.3724518  27.8383541  49.0892487  32.4724846
  28.2478905  48.8470650  33.9093590   4.1838999  67.4130859   7.5603647
   4.6929898  67.6741180   6.7929530   4.2287011  66.4569397   7.5636001
  36.7435684  27.3321362   7.4278126  37.4106026  26.7437134   7.0741830
  35.9330444  27.0625553   6.9958310  29.9129791  46.9683342  24.4029827
  30.6997757  47.5099297  24.3408451  30.2266254  46.0739899  24.2688103
  17.9980717  71.2760544  87.8139572  17.6584110  70.5470810  87.2948685
  18.9456768  71.1413040  87.8247986  71.9307709   3.4559238  33.8814278
  72.3003235   3.1017332  33.0725937  71.1912842   3.9907854  33.5927811
  52.1591911  24.0229378  26.7627048  52.0319595  23.1075706  27.0119991
  51.9216270  24.0540276  25.8359737  24.9139137   3.8722916  84.0212555
  25.1980858   4.6518731  83.5440445  24.1696510   4.1698089  84.5445023
  76.8137207  68.9914474  56.2997437  76.3334122  69.2188339  57.0958786
  76.1962814  68.4681244  55.7887383  31.4591141  66.6878433  69.0978470
  31.5794849  67.4545135  68.5375290  30.6262836  66.3115387  68.8132019
   4.7680683  41.6842079  75.2168503   5.5157232  42.2810020  75.2497025
   4.6536069  41.3936386  76.1216660  38.6165085  13.0440912  71.3353271
  39.1847763  12.3873234  70.9328918  37.7361984  12.6749687  71.2643509
  21.8798332  49.9022408  37.3421364  22.4231930  50.6332245  37.6365128
  21.8145752  49.3294067  38.1062279  41.5585480   2.5210757   6.5299811
  41.2981148   3.3768952   6.1894255  41.9483376   2.0730722   5.7792549
  24.3245163  70.2617950  10.7249603  24.9524403  69.5579071  10.5622187
  23.5547428  70.0198593  10.2100372  43.3274002  33.8387985  86.2275848
  42.7349663  34.4151878  86.7103195  43.0544434  32.9548187  86.4731674
  21.5689354   7.6711049  52.2232361  21.3351078   8.3845577  51.6294823
  22.5098858   7.7756095  52.3643723  75.0457993  47.6688919  44.7149391
  74.9600525  47.9690742  45.6197968  74.3555908  47.0134735  44.6135979
  26.6552067  69.6380310  37.1807518  25.8145847  69.8731461  36.7879333
  27.1988792  70.4176788  37.0675697  30.9431458   6.2579494  68.5744629
  30.6298103   5.6197577  69.2153702  31.3006325   6.9718757  69.1024246
  29.3842754  48.0451241  35.3673019  28.9605274  48.7402840  35.8707085
  29.0796108  47.2344170  35.7749367  54.2882118  31.7031422  68.3287888
  54.2747765  31.4508572  69.2520447  54.3500061  30.8738575  67.8547668
  42.8805046  71.0837173  69.3624878  43.0791321  71.9264069  69.7707367
  43.7372475  70.6927948  69.1910095  77.4171219  10.9213972  11.7533531
  77.7791824  10.6372328  12.5926352  78.1370316  11.3864298  11.3270779
   2.1053989  56.4135094  22.8274918   2.7221305  56.1256447  23.5005512
   1.2983334  56.6012535  23.3066883   2.1810122  32.8141060  77.0263824
   2.2485211  31.8924637  77.2758865   2.5442028  33.2914124  77.7723694
  78.9925461  41.2011185  22.9974289  78.3686523  41.5081291  23.6552544
  79.8417816  41.5154114  23.3076668  42.1824913   7.5866213  82.6210098
  42.9267349   7.8984551  82.1061401  41.6657562   8.3731880  82.7957382
  21.9701214  43.9306145  78.6721497  21.1828480  44.4399071  78.4796600
  22.0595760  43.9784851  79.6239548  49.2671890  34.4951935  60.8156967
  48.3159409  34.6013908  60.8064995  49.6040993  35.3707008  61.0059814
  43.4934540  12.7122984   4.1852331  43.8033867  12.3458776   3.3570359
  43.8524857  12.1294537   4.8542786  75.3196640  65.5672607  25.6241608
  75.9444275  64.9107895  25.3160324  74.9069977  65.1650238  26.3884525
   9.4294395  18.0466480  24.5251846  10.1845837  17.8289871  23.9787292
   9.3307123  18.9940643  24.4309254   8.1349821  42.8435364  72.6526718
   7.6848550  43.1529350  73.4387283   9.0053167  42.5893173  72.9594574
  11.7217541   1.9334927  85.9542084  12.0399847   1.2931229  86.5905151
  10.7705584   1.9248240  86.0608978  57.3120880  64.7543335  58.4969711
  57.9222031  65.4737244  58.6596565  57.2421532  64.3045425  59.3390083
  73.4333954  28.2100849  51.1668167  73.5060577  27.4044456  51.6785774
  72.5098572  28.2539654  50.9190483  23.1685295  48.6364746  21.6383076
  23.4816608  48.0195770  22.2998333  23.9655399  48.9771385  21.2321606
   4.2384176  50.6856728   8.0821753   3.8879673  49.8707733   7.7225161
   5.1104326  50.4516830   8.4000912  80.0490646   2.1097503  61.7440414
  79.6898575   2.4710834  62.5543709  79.4470901   1.4035739  61.5091591
  37.4477806  55.3517609   9.9236879  36.9595184  54.8526840   9.2688913
  38.1630745  55.7558403   9.4324608  29.7213020  68.0775757   2.8107519
  30.3071098  68.7972794   2.5760493  29.6219501  67.5760040   2.0015590
  25.4039211  27.9911041  41.2902832  25.0421658  28.8481331  41.5158234
  24.6838226  27.3793468  41.4433975   4.1283684  39.8274689  37.6889801
   5.0651288  39.9034119  37.5074730   3.8186946  39.1614456  37.0751839
   6.6075459  29.4502869  30.7016964   6.3212194  28.6839161  31.1986122
   5.8251953  29.9975719  30.6335850  25.8160610  51.7389717  24.5372772
  24.9231625  51.4842567  24.7698364  26.2309284  50.9247169  24.2524929
  18.2013493  68.4822388  39.2949104  18.4895000  67.7939758  38.6953392
  18.9838963  69.0128479  39.4442711  62.3522339  20.5394287  82.4689636
  62.4314384  21.2071457  81.7877045  63.2515602  20.3836784  82.7573929
  29.9495831  10.4231339  85.7441406  30.7127972  10.6410246  85.2091064
  29.7553234   9.5119619  85.5244598  54.4356728  44.4373283  39.3812447
  53.8289261  45.1775055  39.3962021  55.2268753  44.7675629  39.8068924
   5.1436815  58.2805405  15.4920769   4.4301472  57.9315376  14.9579439
   4.7349882  58.9678917  16.0181465  32.5524979  30.9803963  75.4146423
  33.1013374  31.5122299  74.8383179  31.7016582  31.4188519  75.4067917
  48.8221970   8.0289183  88.9352036  47.9034615   7.7711358  89.0107574
  48.8204842   8.9721432  89.0981598  63.8834724  38.1035080  20.1633682
  64.1214447  37.2985573  20.6234245  62.9313049  38.0574036  20.0768833
   0.3504593  29.2715588  18.3175488  -0.5503467  29.2255478  17.9971371
   0.3086456  29.8680935  19.0649643  61.6563301  25.3159714  54.5127373
  62.5859680  25.2001228  54.7091560  61.4619408  26.2103233  54.7930603
  71.3389511  65.3958130  25.2527332  71.8655853  65.5517502  24.4687862
  70.9287872  66.2406693  25.4376965  69.7844009  67.6585083  25.0149632
  68.9679642  68.1258011  25.1918774  70.1657715  68.1175385  24.2665806
  80.8246689  58.0510292  76.5099869  79.9092026  57.9930000  76.2365112
  81.2662430  58.4826050  75.7785568  38.1429291  46.8082542  52.3716316
  38.1819611  47.1767197  53.2542114  39.0586014  46.6723289  52.1281204
  84.9341049  24.0248642  68.4204407  84.7272034  23.4504070  69.1576157
  85.1862335  23.4284840  67.7154617  55.7888222  68.9762573  35.0056114
  56.6942749  68.9880981  35.3158531  55.4393539  69.8320923  35.2539024
  59.3055916  63.4552422  26.3762341  58.8220520  63.7179337  25.5930252
  60.1977310  63.2999458  26.0660763   2.5836143  53.1882477  39.3572044
   2.3522444  52.6754761  38.5827599   1.7425561  53.4196434  39.7512970
  67.9792938  36.3879852  84.1534500  67.9787521  36.0702095  85.0563660
  67.1614380  36.0567436  83.7824783   3.1162398  35.7168159  18.7268848
   2.5177715  34.9814682  18.5952415   3.9855125  35.3500252  18.5654526
  23.3080711  23.2268524  82.3939209  23.1711826  22.4125633  82.8780975
  23.6476326  22.9460545  81.5441666   5.7442164  49.4842415  19.1449604
   6.2897148  48.7518845  19.4318695   6.3501062  50.2222099  19.0776348
   8.4473581  52.1615219   8.4271698   7.9097028  52.9302940   8.6173029
   7.8380842  51.5329590   8.0399675  40.7824059  67.9741135  55.5372314
  41.0369072  67.2862549  54.9221649  39.8356552  68.0583267  55.4240532
  46.7565498  32.3044930  17.2023106  46.4427109  33.2076035  17.1561985
  46.9919777  32.0864029  16.3005104  70.1608124  17.2468662  34.6326942
  70.0955124  18.1371689  34.9781342  69.9416351  16.6849041  35.3759232
  12.5067606  12.1219463  26.3479862  12.6876068  12.9773827  25.9584293
  11.5517607  12.0772314  26.3949680  73.3809662  45.7033882  16.2352581
  74.1851730  45.5065994  15.7548838  72.7998962  46.0911598  15.5808716
  20.6957474  13.0230007  50.7561607  19.8532581  12.5726967  50.6955719
  20.8196335  13.4165545  49.8924446  24.9812813  27.3018379  80.0910873
  25.7053432  27.5344143  80.6723557  24.7087860  28.1334858  79.7033463
  34.4997520   0.1605028  68.5459061  34.0728035  -0.2925356  69.2730255
  33.7771378   0.4896042  68.0113525  59.6794662  28.4120140  34.0613632
  59.9765472  28.4908390  34.9678764  59.8306046  29.2784290  33.6835899
  42.8270073   9.2783346   3.5410578  42.3544159   9.9734678   3.0831530
  42.6651192   8.4935579   3.0174661   8.0036068  60.5409584  72.6269836
   8.9153976  60.2707253  72.7358170   7.7809410  60.2783546  71.7338486
  79.0249176   0.9945887  43.5266457  78.7271576   0.8536599  44.4253731
  78.5875244   1.8008595  43.2530670  74.5555496  58.5301857  66.3206406
  74.7851028  59.4156685  66.6025162  73.9639969  58.6605644  65.5794907
  73.1683502  60.8537941  50.6288567  72.3890381  60.3506355  50.8649406
  73.1089935  61.6494751  51.1576233  10.0765190  17.4525986  21.1797657
   9.3193321  18.0266399  21.0641079   9.9546995  16.7613964  20.5288963
  59.1284103  16.8495827  81.0712509  59.3223152  17.6578655  81.5459213
  58.3709984  16.4807625  81.5257034  62.1113930  19.4231052  59.6793060
  62.8588905  19.5298424  59.0910149  62.2575760  18.5763893  60.1011314
  62.5594368  59.2973289  35.5714722  62.0909157  58.4921188  35.3515854
  63.3217583  59.0024529  36.0696182  27.3821011   5.7216239  71.5101471
  27.8221779   5.3306484  72.2649307  27.7583599   5.2714486  70.7538376
  46.4735718  67.4876862   7.5701566  47.1488152  68.1590958   7.4727783
  46.8283272  66.8841095   8.2229023  27.5238075  67.7950211  25.4944038
  27.9369049  68.6308441  25.7111626  26.5978279  68.0083008  25.3790569
  52.4562073  37.6416130  51.4200592  53.3545227  37.3512802  51.2620621
  51.9997749  37.4669113  50.5970268  19.8990116   8.7060518  17.7309513
  19.0310459   8.3095284  17.6558647  20.5024757   8.0149498  17.4581146
  82.6128616  17.1968994  79.4398117  82.0517426  16.8804588  78.7318268
  82.1142426  17.9089451  79.8405609  34.9086342   9.6353350  43.5850677
  34.6879807   8.7591782  43.2690048  34.2481117  10.2053709  43.1913605
  11.2062960  32.8782921  61.0021210  10.8141403  32.0287170  60.8004532
  10.8646402  33.1002464  61.8682861  58.3432198  27.4894180   5.0504417
  58.4035492  27.4190044   4.0977430  57.4100075  27.3909912   5.2392640
  71.6702957   3.5582178  41.9148674  71.6736755   4.3305960  41.3494911
  71.8393784   2.8263526  41.3215599  64.5527115  17.5114365  60.6687813
  64.0233231  17.6225433  61.4584846  65.4071960  17.2252522  60.9915466
  16.0206108  62.2512856  25.1283932  16.7047615  61.5848846  25.1922398
  15.2682419  61.8659363  25.5774784  50.1277809   6.9771113  19.6546211
  49.2415886   6.7869229  19.9623928  50.6962585   6.4662757  20.2309113
   5.8797073  13.0737333  79.3129044   5.3268285  12.4235792  78.8794785
   6.4259315  13.4292259  78.6118393  76.2652283  21.4252968  72.1506805
  75.3108978  21.4981346  72.1638794  76.5723190  22.2234154  72.5807266
  21.1712799  55.3682556  46.0181313  21.7939186  54.9428711  46.6077080
  20.6551075  54.6485252  45.6551056  59.2069664  18.2201614  18.4214725
  59.3488426  17.3232098  18.7240944  58.6947708  18.1238594  17.6185932
  15.6761065  21.2678318  28.3846016  14.7381277  21.2695923  28.5754547
  15.7691965  20.6656322  27.6464138  46.3151894  17.5247307  80.5153732
  46.7966194  16.7226887  80.3124390  46.1247330  17.4594746  81.4511642
  65.3554916  52.2612610  86.2190857  65.3950958  51.4852562  85.6600800
  66.2066498  52.2851677  86.6563263  76.1528244  27.0089340  47.2722092
  76.6943817  26.7435818  46.5288811  76.3121719  27.9485626  47.3613014
  64.1182022   5.4004879  85.7473526  63.6268539   5.2557182  84.9387436
  64.8592148   4.7974272  85.6885757  85.6995544  50.0651665  32.9178696
  84.9403763  50.6476173  32.9430008  86.0099030  50.1150780  32.0137558
  61.9223022   1.3009317  40.3054771  62.5724335   1.2329974  41.0047226
  61.7893143   0.3990588  40.0136337  40.5183029  49.0533333  65.1311111
  40.4968071  48.2389450  64.6285782  39.9789314  48.8738594  65.9012451
  71.7602234  40.7321739  35.5209007  71.7654953  41.6877022  35.5771866
  72.1292267  40.5410004  34.6586227  47.7944031  31.9844894   7.2235699
  47.2384987  32.1012383   6.4531355  47.6116295  31.0921593   7.5178041
  28.2372952  43.4649773  74.0937424  28.5224705  42.8956871  74.8084564
  28.6686554  43.1086998  73.3170624  69.2929077  12.6352587  42.2744217
  69.3188705  12.9924412  41.3867416  69.4684372  13.3870401  42.8403244
  60.3367310  21.7269020  58.0039711  61.1948242  21.3189621  57.8878174
  60.0768394  21.9933147  57.1220894  77.9418488   2.0099847  70.3557434
  78.6199951   1.3753246  70.1243210  77.8793488   1.9566876  71.3094177
  70.0609436  66.3114777  30.9462280  70.5922928  65.6896362  31.4434223
  69.8656158  67.0114059  31.5692692  63.6472092  64.2088928  14.1569939
  62.7045326  64.2754364  14.3092146  64.0276489  64.1485062  15.0332661
  75.8237000  50.8173523   9.8584433  74.9615936  51.2329979   9.8742704
  75.6449280  49.8892288  10.0096359  13.9698534  69.8158340  57.3830719
  14.6442137  69.3455658  56.8928490  13.3151989  70.0502777  56.7252769
  56.4778900  52.3954582  27.1817169  55.7028008  51.8496017  27.0493965
  57.1552887  51.9836197  26.6452961  72.6873856  11.1929379  49.5593529
  72.0090256  11.7641239  49.1990662  73.3696747  11.7924557  49.8615074
  15.9552784  10.4119940   6.1476140  15.9155798  10.9051762   6.9670205
  16.6920414   9.8122063   6.2645187  85.4009399  26.1016541  33.8502693
  86.1626740  26.6788063  33.9039955  85.3169479  25.7334118  34.7298012
  25.8367195  39.4748459  74.5484467  26.2708473  39.7943916  73.7574615
  26.4635429  39.6457787  75.2513733   6.4154491  54.1480103  15.4010248
   5.5328627  54.0512352  15.7586670   6.3115072  54.7541046  14.6674862
  35.6396523  43.9595032  59.4947853  35.1227760  43.8877106  60.2972298
  36.2382317  43.2132874  59.5278778  51.5060730  48.6199608  81.9189072
  50.9029388  49.3631401  81.9068909  51.0235023  47.9271317  82.3698425
   8.5976944  42.5550270  19.9397793   7.6903272  42.6061707  19.6392784
   9.0670958  42.1419334  19.2150383  29.6098232  56.1935120  68.1445923
  29.0220642  56.1408005  68.8982391  30.3306561  56.7489738  68.4414062
  49.7050514  35.9675713  68.2514114  48.9306984  36.1913300  68.7676849
  49.4153976  35.2549477  67.6817551  45.7161255   9.5767603  20.4528046
  45.8847237  10.2972469  19.8455944  45.5809975  10.0033197  21.2989826
  46.7417183  52.7859459  42.5450706  47.1519623  52.3348389  41.8072128
  45.8221321  52.8700829  42.2930603  17.0618515  57.8320084  83.8738174
  17.9303665  57.4703484  83.6974411  17.1089401  58.7338104  83.5563812
  74.3063583  24.6752758  57.8792114  74.9419937  25.3647633  58.0710602
  73.4869843  24.9924545  58.2590256  59.5520325  51.5395584  30.0384789
  60.0563278  51.6043625  30.8494797  58.8887177  52.2255783  30.1134319
  65.3690186  12.4057570  56.6011353  65.7857208  11.5525122  56.7218170
  64.9986725  12.3688507  55.7192535   0.4456937  66.9732895  33.5965462
  -0.4811977  67.0812607  33.8097267   0.7753081  67.8669205  33.5016403
  86.8919907   7.2765832  44.0221367  87.0159302   7.0177622  43.1089668
  85.9609528   7.1292706  44.1885872   1.5888838   7.0679636  69.2346191
   1.0876561   6.6446595  69.9316177   2.2719438   6.4352121  69.0126114
  14.4254990  44.5687981  84.8610153  14.2067966  44.9071999  85.7292862
  14.2413568  43.6310883  84.9160614  46.7059097  42.8859482  13.8263245
  46.2413597  42.2155876  14.3273621  47.3492165  42.3979416  13.3122816
  21.6090183  61.7251663  87.2235413  21.4409046  62.6671410  87.2490463
  20.8443947  61.3573151  86.7805176  20.2272606  67.2627182  23.4081650
  20.9495087  67.6062241  22.8822422  20.2428722  66.3189545  23.2491093
  69.8500900  34.9133606  16.5103397  70.6653671  35.4148827  16.5051098
  69.9758148  34.2448349  15.8369160  20.5045567   4.0425215  87.1872406
  20.2117805   4.4546571  88.0000534  19.9434814   3.2727005  87.0934219
  52.2702217   0.1938681  87.8386230  52.4879227  -0.7035565  88.0905533
  53.0089035   0.7162638  88.1511688  57.2775764  50.1510277  83.5438004
  56.8450775  50.9362717  83.8793106  57.0187454  50.1098595  82.6231766
  38.0368881  34.0484924   5.3716335  37.7486687  33.6374207   6.1866064
  38.5365028  33.3663635   4.9229484  60.7822151  44.1025581  81.3858261
  61.5016594  44.7210732  81.5125885  60.3486099  44.0615616  82.2381973
  81.9144287  71.4804764  11.3252516  81.0473633  71.7915497  11.0651312
  82.2527542  71.0363464  10.5477438  84.2297821  49.0891571  80.5899734
  84.6284866  48.6858826  81.3611069  83.3056717  48.8453636  80.6429672
  62.7019539  52.1382713  41.7797775  63.3955078  51.6141891  41.3790932
  62.6778641  51.8469772  42.6912613  43.0391617  13.1249552   0.5115272
  43.0258179  13.2305069  -0.4397418  42.9656029  14.0163460   0.8524717
  14.0096684   1.6300136  53.5252876  14.3991013   2.4979951  53.4195442
  14.0981817   1.4399519  54.4592438  80.5338287   3.7014685  33.5304413
  80.2659302   3.0356951  34.1638527  81.2113037   3.2744119  33.0061531
  12.7897940   0.1270906  18.7056961  12.4840965   0.4796542  19.5414486
  12.9813766   0.9004649  18.1752071   1.3741946  68.7853775  61.8059883
   2.1957140  68.6579895  61.3315315   0.9364620  67.9354019  61.7594833
  57.5132751  45.2343407  29.0708981  57.5839767  44.3340569  29.3882694
  57.4079361  45.1467590  28.1235523  63.1275330  63.4525986  84.1641083
  63.7662277  62.8831558  83.7351227  62.3097267  63.2928123  83.6930542
  28.5398865  25.8160553  11.6607637  28.2632351  25.1072197  11.0800343
  27.7232971  26.1674862  12.0156021  29.2384567   4.3668132  42.7476311
  28.6132908   4.7388458  43.3697166  28.9640751   4.7108793  41.8975945
  65.1808853   9.8424320  78.6053162  65.5786819  10.3272085  79.3284912
  65.8957214   9.3152790  78.2484589  26.2313652   1.1929851   2.2737274
  25.9921532   1.6468614   3.0818152  25.4267216   0.7535359   1.9986527
  56.3456230  55.5187416  81.6194305  55.4117966  55.3221397  81.6939240
  56.3846741  56.2799835  81.0404510  53.6803741  21.5689564  37.5976906
  53.0410042  21.6181049  36.8870430  53.9371719  22.4780407  37.7521324
  12.6570473  57.8814201  18.6160088  12.8336191  58.7814178  18.3420467
  11.7053118  57.8420982  18.7102680  23.3759022  61.7881050   9.6803656
  23.3628426  61.6485901  10.6272535  24.0489826  62.4552574   9.5458279
  43.4079857  24.7157021  81.5117798  42.9129791  24.1082039  82.0614548
  43.5466461  24.2393990  80.6931610  18.9771042   4.1646476  15.0064135
  19.4934635   3.6387155  15.6171513  19.3986301   4.0289698  14.1578035
  66.8063812  52.6532822  21.2972164  66.8442764  51.8019791  21.7332001
  66.0100937  53.0613174  21.6373138  13.7788000  53.0862045  31.4139385
  13.9915800  52.2216568  31.0624886  14.5708094  53.6044044  31.2710361
   0.4933451  35.6829262  51.6515961   0.6696449  34.7807503  51.3847084
  -0.2312412  35.9611626  51.0914230  15.1050024  19.8597164  86.8016510
  15.2544107  20.6848888  86.3401337  14.5834608  20.1039410  87.5662308
  72.9458694  46.8607712  48.2364235  72.3441086  47.1713371  47.5599174
  72.9768753  47.5732994  48.8748398  26.3519230   6.4132090  77.0420303
  27.1873741   6.4226322  76.5749435  26.5555763   6.0167508  77.8891296
  44.9749069  43.6499214  28.0740070  45.7177162  43.0580139  28.1928005
  44.3249016  43.1272774  27.6043625  55.4506874   5.9384475  58.4335938
  56.0181236   6.5910683  58.0233078  55.9120903   5.1088228  58.3108711
  80.3769608  61.8437004   1.2006806  79.4386597  62.0228920   1.1397885
  80.6679535  61.7789230   0.2910880  47.9765320  67.5190048  38.6199265
  47.6805229  66.6977310  38.2273483  47.7835388  68.1837463  37.9587898
   2.2371094  25.7238255  84.7875824   3.0263646  25.6270313  85.3204422
   2.4085100  25.1961098  84.0075989  33.9175491  66.4978714  21.0533123
  33.2988968  66.8830643  21.6738987  34.0098801  67.1579132  20.3662472
  84.8850098  28.3255882   8.0838966  84.2746811  28.3878899   8.8186369
  84.6167755  27.5347347   7.6161046  35.1306305  25.3650150  67.3193665
  35.2119827  26.3152313  67.2374954  35.0498924  25.2117691  68.2607651
  50.3664436  22.7899609  63.0449791  49.8290367  23.2606068  63.6820984
  49.9898071  23.0218983  62.1961098  77.5746765  40.4189072  34.4442253
  77.7718811  39.5176849  34.1889954  77.4735870  40.3818130  35.3953476
  68.8534851  38.5545883  16.2511940  68.1567001  38.4314041  16.8958244
  68.4155960  38.4637756  15.4048834  26.6314049   9.0662241  73.5296097
  27.2678432   8.5027714  73.9697266  26.6604710   9.8882837  74.0191040
  64.9432831  39.1223259  82.8894043  64.3380966  39.6385460  83.4218445
  65.2808685  39.7415199  82.2422028  52.3454247  66.9592743  54.3738556
  51.6703339  67.2620163  54.9811668  52.9942131  66.5299911  54.9315453
  73.8774033  58.2236748  77.1715317  74.6120529  57.6758347  77.4479218
  73.1028366  57.7735786  77.5087051  71.9763870  40.2468071  56.4573708
  71.0573196  40.5141869  56.4498138  72.3839035  40.8087616  57.1164398
  44.7553558  11.1720428  71.2725677  43.9648590  10.7002745  71.5348282
  44.6589966  11.2944422  70.3281250   5.4185905  50.8763847  32.7094154
   4.8077712  51.1362839  33.3990402   6.2004042  51.4046860  32.8703461
  77.4746552  11.4270630   2.3139365  76.6304245  11.4110212   1.8631008
  77.9377594  10.6576471   1.9826306  29.9181633  10.0998774  16.8821125
  29.6790543  11.0261364  16.8489265  30.8371201  10.0800190  16.6149883
  27.3352337  32.3325500  17.7230644  28.1423607  32.3262482  18.2375908
  27.6272049  32.2226677  16.8181286  24.2350483  68.9743195  13.5822067
  24.2025356  68.0201035  13.6503868  23.3728905  69.2199783  13.2466984
  23.8988190  42.2542343  36.4667816  23.0535412  42.1429405  36.9019279
  24.0222015  41.4439545  35.9723587  71.0896454  26.5199032  15.3698511
  70.7435532  26.7853832  16.2218952  71.8492661  25.9762344  15.5787220
  31.9577217  57.0955772  71.1188965  31.5282803  57.1729965  71.9708481
  32.1571426  56.1631432  71.0350571  68.6089859  43.7175827  51.9726181
  69.1688461  44.4757118  52.1400261  67.8858414  43.8123093  52.5925598
  56.8586845  12.1485319  61.6093292  56.7606544  12.8517675  62.2512665
  56.6387978  11.3515425  62.0917091  64.6354675   7.5318098  34.8678169
  64.4356461   8.3152733  34.3554802  63.8626976   7.4014974  35.4174271
  79.7630081  47.2886124  87.5640411  80.6926651  47.3548889  87.7821579
  79.6500015  47.8754158  86.8162994  52.3380432   9.7769175  59.5726166
  52.2705421  10.6000032  60.0565643  53.1155815   9.3503733  59.9327965
  65.4607239  31.5028496  71.5568924  65.6304626  31.0904083  70.7099533
  65.7758789  32.4007454  71.4534912  42.7731972  10.0514355  17.5774746
  43.2411461  10.5505056  18.2469387  42.7706680  10.6236992  16.8101807
  52.0212326  59.3094788  88.5784225  52.1048813  60.1096115  88.0597458
  51.6656876  58.6640739  87.9674606  47.4663124  12.4652920  25.5774899
  47.0411644  12.9641123  24.8798790  47.8353157  13.1313591  26.1575108
   5.4041300  61.5163536  28.6094418   5.1131854  60.9258156  29.3043137
   6.1438923  61.9890366  28.9909592  64.6804657  49.8429489  50.1609230
  63.9412003  49.3132973  49.8622704  64.3462219  50.3108215  50.9261742
  33.1012802   1.2334085  42.4995499  33.3536339   0.4944497  41.9459343
  33.2445221   2.0041058  41.9502449  80.0659866  32.2707405  71.1624298
  79.5774460  31.6005020  70.6845779  79.9840698  32.0170593  72.0817642
  54.0543098  16.9228249  73.4112625  54.4975739  17.2467403  72.6271515
  53.2539444  16.5137291  73.0821915  40.7988701  46.1734047  32.4327698
  40.3151016  45.5842590  31.8538857  40.5265541  47.0506744  32.1635551
   0.9016166  58.8050575  54.9619980   0.6018782  59.6707039  54.6844368
   0.1843451  58.2164536  54.7268448  78.9356613  14.5581551  45.3628693
  78.4097443  14.9811039  44.6840744  79.0136032  13.6490002  45.0737419
  39.8649597  49.7207794  49.5297394  40.4020538  50.1534729  50.1934738
  39.8880310  48.7944031  49.7695732  64.5176239  32.6845818  75.5433044
  63.8555717  32.0383377  75.7888412  64.0142746  33.4350853  75.2276917
  69.6560745  58.8331985  68.7821198  68.9824066  58.1726570  68.6206207
  69.1742401  59.6585197  68.8360062  72.8531723   7.7798133  69.3655090
  72.7824554   8.4612379  70.0340118  71.9475784   7.5896215  69.1206360
   7.0248156  66.2738266  73.3043671   6.3506370  65.6017990  73.4048386
   7.4310179  66.0811386  72.4593201  72.4856262  51.3297272  28.6120720
  71.8405991  51.6736603  27.9941101  72.7835083  52.0977325  29.0995846
   4.8215036  14.4427786  81.1819382   5.5503750  14.4973192  81.7999954
   5.1337395  13.8541431  80.4947281  23.3518715  47.3307228  79.5558548
  23.7192936  47.3789215  78.6733017  22.4297199  47.1130867  79.4198303
  58.1743813  43.9557190  37.0968666  57.6981544  43.1259766  37.0657845
  58.5719948  43.9711990  37.9674416  40.9070663  63.4011993  68.8561249
  41.2758102  63.0904465  69.6829758  40.9449272  62.6406593  68.2761383
  15.2942867  48.2243385   1.2535113  16.0818310  48.0027885   1.7504230
  14.8383446  47.3900223   1.1427656   1.2134317   2.0587692  74.1899414
   1.2499293   2.1147318  75.1448059   2.0686104   2.3750498  73.8986206
  66.8514481  66.4135666  66.4594803  67.3580475  67.2016144  66.2630920
  67.2289734  65.7392120  65.8947220  67.5405960  49.9912910  10.7710552
  68.2793655  49.5949631  11.2329750  67.9439163  50.5123367  10.0767393
  60.2279282   0.5242935  49.1349678  60.8814125   1.0534563  49.5923271
  59.9430046   1.0738966  48.4049072  54.2671585  29.4346085  16.0842247
  54.9193268  29.7060337  16.7301617  54.4668999  28.5139999  15.9144707
  26.1393089  33.2914162   1.0240905  26.6595764  33.7106590   0.3386787
  25.3875408  33.8718834   1.1429906   1.7100497  35.2112541  65.1083298
   1.0442245  34.5297356  65.0164566   1.2762876  36.0113869  64.8119049
  80.6667023   9.2062168  16.3890362  80.9379883   8.4880838  16.9608078
  80.4871368   9.9327621  16.9857941  62.8224144   9.0668716  19.9705067
  62.4151573   9.1751156  20.8299561  63.7105026   9.4061861  20.0818462
  72.7516479  41.8051758  58.5576630  73.0942230  42.6880531  58.4183464
  71.8493576  41.9412270  58.8467903  74.6671371  19.0981426  59.9188881
  75.4264374  19.0766296  60.5013237  75.0150528  18.8495388  59.0625114
  28.0686188  15.7582769  15.0608654  28.7988930  15.1432467  14.9925346
  28.4749985  16.5845013  15.3224745  83.6121063  57.7376289  35.3420448
  83.5815659  58.2723198  34.5486946  84.4994965  57.3790169  35.3551750
  82.6491089  12.6372986  81.0575714  81.8644028  13.0505266  80.6974182
  82.8749619  11.9577789  80.4223709   3.5680532  31.0365696   9.4650135
   4.0693469  31.7818451   9.1341038   2.6823254  31.1759243   9.1299047
  38.4015007  42.3654442   8.3411541  38.8499565  43.1775894   8.5768328
  38.0718422  42.0239716   9.1723890  73.5397720  23.0922375   4.7587986
  73.0422592  23.3971233   4.0000081  72.8803787  22.9590206   5.4397459
  15.5000792  38.4812813  70.9918976  15.7006416  39.4001846  70.8140717
  14.5765295  38.4820442  71.2434692  54.5866661  45.0917015  30.2687683
  54.8442993  45.7214432  30.9420300  55.3893661  44.9288445  29.7734089
  21.4544888  62.3395233  40.1704330  21.8158493  63.1594429  40.5071526
  20.7171726  62.6096573  39.6230545  83.8675003  22.5634785  50.5076904
  83.3842926  23.2563839  50.0575562  83.2908020  21.8008690  50.4621735
  30.7531910  18.6383018  10.6367378  30.5395393  19.4408550  10.1608267
  30.1358280  17.9887695  10.3002806  47.4216995   2.5062771  60.8159676
  46.7918930   2.0444694  61.3694191  47.2998772   3.4302924  61.0341110
  77.2493668  18.6471214  33.4775810  78.0829773  18.2151127  33.2913322
  76.7011566  17.9581089  33.8530235   3.4390626  52.1264343  68.9315567
   4.0827689  52.0257378  68.2303162   3.9584951  52.1247101  69.7355576
   5.0451751  57.8519592  34.8873291   4.7203503  57.0104103  35.2075119
   5.2687311  57.6894264  33.9709015  47.0460091   5.9001226  72.5824509
  46.5389595   6.2655354  73.3074341  47.5050468   5.1520081  72.9643402
  33.0238800  10.8895779  71.4674988  33.4406357  10.3574018  70.7897491
  33.3817139  10.5538979  72.2893829  55.4508972  45.0232925  57.6673470
  55.5115280  45.6725616  56.9666290  56.3563461  44.8863716  57.9459991
  60.0956955   6.6465554  10.1591663  60.2799797   6.1284637  10.9426527
  60.1318588   6.0152411   9.4405794  16.4991436  48.7195435  42.6773949
  15.9656172  49.3161659  42.1523972  17.1132183  49.2905807  43.1389809
  22.7858181  30.8887367  23.8434601  22.7743626  30.5389709  22.9525242
  23.6915493  30.7779713  24.1326237  52.4921112  31.9423389  82.9232635
  52.5668526  31.1434059  82.4013901  52.2746086  31.6342659  83.8030396
  71.3411026  38.2080383  30.0915699  70.4293976  38.0823479  30.3546867
  71.8487854  37.9794426  30.8701801  81.7939224  55.8423767  34.2792931
  82.4232864  55.1517906  34.4871826  82.1072922  56.6058998  34.7641258
  50.9364166  57.1060677  17.2327042  50.2921867  57.0932388  17.9405441
  50.9342079  56.2120895  16.8906040  44.9326477  29.8086281  17.4168415
  45.0816917  30.7510929  17.3408394  44.8925018  29.6477432  18.3595695
  58.9772034   5.2963009  34.1610107  59.7843552   5.7936387  34.2928810
  58.7645798   4.9505463  35.0278893  61.4515038   9.5740976  63.5518875
  60.5300865   9.3789768  63.7226257  61.4347610  10.1795654  62.8106956
  61.9064407  31.1037388  89.4447250  62.1331749  31.4177361  88.5693817
  61.2365837  30.4368248  89.2938919  59.3897133  27.8544807   7.6594939
  60.1986694  27.3644505   7.5122061  59.3995781  28.5395393   6.9910412
  79.3720932  30.4618378  48.3302727  80.1385880  30.8183823  47.8812790
  79.5820694  30.5393887  49.2609291  78.4925156  31.1560154  73.5289993
  79.2382736  30.5967484  73.3115158  78.8477020  31.8022308  74.1393127
  49.3229065  38.0535469  57.6667824  49.0682335  37.2196159  57.2718964
  49.9945679  38.4011765  57.0800476  68.1757889   8.5820932  11.8193960
  68.8415604   8.6399717  11.1341028  68.6715393   8.4189034  12.6217880
  59.4099007  33.3711739  38.9608307  59.0355492  33.8147354  38.1996841
  59.4101372  32.4443054  38.7217789  60.8386383  56.2142830  61.0466003
  61.3315163  55.4348602  60.7900848  60.0004005  56.1277695  60.5926056
  44.8964005  11.3550329   9.3454380  44.3538513  10.8893051   9.9818087
  45.7956581  11.1621685   9.6107082  30.8987389   3.4495096  76.4550552
  30.1416531   3.2360857  77.0004883  30.5243530   3.8607364  75.6759796
  74.1262207  54.3448067  31.2646294  74.7856445  54.8560829  31.7336521
  74.4582672  53.4473305  31.2873077  72.9350281  63.1704597  65.0387726
  72.5581055  62.6716232  65.7635574  72.6264114  64.0657578  65.1781540
  62.5736122   7.4936013  36.5725060  62.7574692   7.8859367  37.4260292
  61.8736458   6.8636904  36.7442284  26.9740334  52.7606850  72.9382782
  27.5016670  52.4848938  72.1887589  26.0761566  52.5350227  72.6951141
  62.9262657  14.7071915  27.1776009  63.0106316  15.6391478  26.9761753
  63.8172073  14.3648605  27.1050510  51.1553574  59.2980232  48.9433823
  51.5747299  60.1583176  48.9274979  50.8261909  59.2085075  49.8377342
  71.5000763  28.4719849  80.9213791  71.9933853  29.2601204  80.6939545
  70.6806412  28.5531673  80.4333572   4.4040422  27.6810799  60.5378876
   5.0565228  27.9252892  61.1942902   4.8776689  27.7111816  59.7066231
  77.1859665  66.8803101  28.3146801  76.6370926  67.5618820  27.9268284
  77.8112183  67.3577576  28.8599701  64.0353165   2.8646193  76.8166351
  64.1666946   2.7051446  75.8820038  63.2840919   2.3190041  77.0494308
  52.2083321  57.2525902  45.5504341  51.2710075  57.2792549  45.3582344
  52.6105881  56.9436302  44.7386703   3.7824595  69.7883759  27.1231041
   3.6408393  68.8976288  27.4436455   2.9129710  70.0888138  26.8586102
  19.6140575  71.2092972  25.5407047  19.8400383  70.3497772  25.1851788
  18.9746742  71.0234756  26.2283764  69.7308655  28.2818756  20.9209461
  70.6841812  28.3611870  20.8872833  69.4350128  29.1088867  21.3014107
  25.3926525  52.0827026  47.5487289  25.6147690  51.8722496  48.4557037
  26.1864815  52.4834785  47.1945457   7.2667394  48.9269829  40.7432251
   6.5571265  49.4710121  40.4015923   7.0046000  48.0309563  40.5319290
  74.3798904   5.9717145   3.9576602  73.4551773   5.9944091   4.2038817
  74.4279327   6.4965410   3.1586108  47.7445564  46.9193382  12.8421221
  46.8466835  46.8977203  13.1731634  48.2154427  46.2874794  13.3854923
  77.2880554  11.2576847  34.9118919  76.7024689  11.8876333  35.3319931
  77.4807739  10.6166191  35.5960884  71.6547089  43.3560371  35.4186440
  72.5047836  43.7514763  35.2256775  71.0535049  43.7648506  34.7960281
  30.3298550  53.5670319  37.9211197  29.4824333  53.9633904  38.1236191
  30.7898197  54.2330666  37.4101791  68.0507736   2.0372949  24.2320385
  67.4128113   1.7886493  23.5631466  68.6544418   2.6267087  23.7799301
  13.7563734  24.2549210  11.3891907  12.9171076  23.9394741  11.0539923
  14.3459644  23.5059395  11.3017855   2.1556346   5.7341499  22.3874340
   1.6424221   6.3562560  22.9030209   1.7031745   4.8983078  22.5009232
  49.8949203  45.4016533  30.4944324  50.7964058  45.4538536  30.1768875
  49.9789162  45.3515511  31.4466228  12.7083969  48.4839783  82.3917160
  12.0028954  49.1016769  82.1995010  12.3742056  47.9569969  83.1175537
   2.3568261  24.5979691  17.5606365   2.6667185  23.7728710  17.9340153
   2.3607671  25.2102528  18.2963848  18.2869797  50.4828072  60.7259521
  17.3387165  50.5946350  60.6586761  18.6379185  51.3711891  60.6638794
  80.5664825  62.5552788  29.0641785  80.9710464  61.7697639  29.4323158
  81.2974548  63.1564140  28.9208031  39.6482201  48.4260292   6.7350054
  39.9220047  47.5135422   6.6420360  39.0432205  48.4201775   7.4767432
  41.7935638   5.1574974  80.9135208  41.4382629   5.5130825  81.7281113
  41.5125618   4.2424850  80.9089355  59.9997177   3.8200889  51.3234024
  59.9644356   3.5507817  52.2412605  59.1046219   4.0903845  51.1185265
  32.2330742  44.4736748  66.2124100  31.4897213  45.0567932  66.3661423
  32.2848053  43.9378090  67.0038681  56.6466408  45.6276741  15.0964937
  56.7550011  46.5674400  14.9504566  55.7432175  45.5348816  15.3989019
  52.0985107  20.6635418  23.0785408  52.4149017  20.2005501  23.8542767
  52.8733444  20.7607307  22.5249863  62.1252975  15.9689579  53.8559875
  61.4296799  16.3846054  53.3464890  62.1292038  16.4431458  54.6874695
  25.0037537  68.9216080  84.1068878  25.2409897  69.5683365  84.7714844
  25.8308182  68.4960785  83.8807831  65.7001648  44.7262459  59.7689476
  65.3281097  45.0793800  58.9608002  66.6413269  44.6822052  59.6000977
  49.2002754  11.0830908  41.3259125  49.5958023  10.6502352  42.0825005
  49.0468903  10.3764057  40.6987762  41.6878929  58.6183586  79.9307785
  40.8260155  59.0236473  79.8351440  42.2067337  58.9873772  79.2160339
  63.1549492   5.4355478   7.9799294  63.4735298   4.5334659   8.0113344
  63.6434097   5.8861828   8.6688166  22.9570599  22.9371471   3.7728088
  23.6406879  22.9482479   3.1029134  23.0245304  22.0686359   4.1695056
  10.2686758  48.8460884   5.9204626  10.6284866  47.9636078   6.0098748
  10.9468851  49.3352013   5.4545960  70.1675339  70.2110596  22.5066566
  70.5444641  69.4631348  22.0432281  69.3753662  70.4240189  22.0133533
  60.5368576   5.0680909   8.0168724  61.4566154   5.2977576   7.8844614
  60.1446838   5.1386514   7.1465559  22.6899948  60.0464478  84.1478119
  22.6667461  60.9263382  84.5239563  22.4220219  59.4721489  84.8651733
  46.9309845  55.7063293  86.4323273  46.5224991  55.5072250  85.5898743
  46.1955566  55.8164482  87.0350266  19.9003353  11.2632236  67.9411850
  19.2740803  10.7326527  67.4487152  20.7571125  10.9822063  67.6199493
  79.6341095  48.3550186   4.3303585  79.3530731  48.9689445   3.6518712
  79.2964478  48.7273102   5.1449857  69.6307831  63.4525337   6.0696783
  69.0608902  62.8810768   6.5843515  70.3615265  62.8913307   5.8102512
  34.3474731   2.8899822   1.8453376  34.3045578   3.4445145   1.0663100
  33.5123901   2.4222076   1.8526586  60.6940269  51.0949097  50.1811371
  61.2200394  51.0203781  49.3849030  60.1225090  51.8459244  50.0212097
  12.2349749   8.4297361  77.9793930  12.8596268   8.8893270  78.5404816
  11.5880527   8.0695648  78.5860214  62.2032089  47.4456940  41.6051064
  62.9724579  47.0347176  41.2106667  61.4660721  46.9169502  41.2996635
  51.6528740  11.5694799  66.3358917  52.3599854  11.0441971  66.7104568
  51.7328453  12.4206209  66.7664642  31.3917179  41.4402084  20.3278465
  31.2736397  41.3364296  21.2720490  32.3133392  41.2300873  20.1771984
   3.3425376   4.5400095  15.7993307   3.6311255   5.2485590  16.3745747
   3.3944809   4.9105682  14.9182968   6.2489905  61.3761253  85.5541306
   5.6191206  61.8767281  85.0355835   6.3897128  61.9071693  86.3379822
  63.7593765  59.5670547  26.3004799  63.9003983  59.4034462  27.2329903
  64.3447723  60.2956734  26.0939331  13.4662628  64.3535461  86.1507187
  13.2360306  65.2761383  86.0409698  14.0413094  64.3395691  86.9158096
  -0.2921703  43.4669838  29.2405262   0.2641117  43.7364883  28.5096722
   0.2238984  42.8071556  29.7037029  63.3991776  48.5185623  56.2358322
  63.5237312  47.6604271  55.8304596  63.3368988  48.3339767  57.1730003
  52.0156212   2.0709288  65.7619247  51.6302223   1.8205881  66.6015854
  51.2791252   2.0699155  65.1505356  51.9493370  15.9538736  56.4428253
  52.6729431  15.5263290  56.9009018  51.3363152  16.1961956  57.1368828
   5.4365020  51.6214294  66.7729568   6.3867273  51.5137596  66.7315979
   5.2895975  52.5403404  66.5487747  83.3712997  30.2354679  64.6095200
  83.4391861  30.8023968  63.8412628  84.0405960  29.5650501  64.4723434
  42.8348579   9.3180656  71.8425522  41.9247246   9.4141645  71.5620880
  42.8586922   8.4740534  72.2934494  47.2731590  71.5430450  13.0164576
  46.8411713  71.3116608  13.8386984  46.5957870  71.4293594  12.3497658
  41.3599205  48.1880379  13.5543098  41.9548950  48.8674736  13.2371235
  41.1901360  47.6412010  12.7872543  13.3405046  62.9933357  69.5980988
  12.9392557  63.2699127  68.7742462  13.3445110  62.0371857  69.5534439
  54.9288635  37.8103523  14.9236698  55.4250603  37.5344543  14.1530209
  55.1989059  37.2030067  15.6124668  40.9085197  43.4134483  29.1245232
  41.8264313  43.6458321  29.2647858  40.4955254  43.5429039  29.9782848
  47.7443085   2.5451655  54.4288368  46.8663750   2.1775346  54.5303993
  47.6632004   3.4476805  54.7372513  53.4529457  50.1110764  22.6591473
  53.3807945  49.4769249  21.9457893  54.3925171  50.2753601  22.7394543
  52.3351135  57.5599594  11.1520863  53.2405510  57.8369789  11.0118122
  52.4083290  56.7423706  11.6444483  42.5912743  15.3148432   4.4337568
  42.9949417  14.4819212   4.1897764  43.3106041  15.8329401   4.7948313
  67.5330734  41.4681396  61.3123055  67.0855026  42.0582581  61.9186707
  67.4039383  41.8662529  60.4514542  61.1797638  28.7684097  30.0580254
  61.5141106  28.7355671  30.9543343  61.2363892  27.8645802  29.7480011
  48.8336143  65.1724625  47.7687683  48.6736069  64.2820663  47.4560013
  48.3606300  65.2231674  48.5994034  84.0368271  47.7468605   7.9127884
  83.6282120  47.4691582   7.0929441  84.1326981  46.9395752   8.4180918
  72.9678650  59.9852943   7.7549152  72.3753586  60.0764732   7.0086861
  73.7758942  59.6370506   7.3780189  62.5489998  47.9736557  85.2509460
  62.8047409  48.7107353  85.8055115  61.5945587  48.0290794  85.2040253
  57.1646080  25.8121510  82.1193390  57.6017609  26.6194248  82.3903427
  57.8469391  25.1425591  82.1673279  61.8211479  28.5431118  70.3823471
  62.1567116  29.0619049  71.1134338  61.9215126  29.1119194  69.6190567
   9.4442501  63.9393768  52.3848076  10.1128893  63.2668877  52.2547607
   9.9192600  64.6795044  52.7627068  51.5470848  15.0933943   2.0158243
  50.9260254  15.7166204   2.3927906  51.8888626  15.5360136   1.2389659
  78.3236618  19.7120304   1.8777462  78.3999863  20.5545731   2.3255506
  77.5357132  19.3143940   2.2482295  81.3674774  63.1813469  76.5548553
  81.5486526  63.3975182  75.6401596  82.1095123  62.6401825  76.8245773
  54.7165833  44.5619316  24.0541477  54.4526367  44.2759399  24.9286613
  54.3308983  43.9145813  23.4638786  65.8082504  43.0496979   1.5513341
  66.2674484  43.2873306   0.7457903  66.0544205  42.1379356   1.7072961
  51.0360680  59.7913055  63.6990509  50.1174431  59.5800667  63.8656120
  51.0245323  60.7069130  63.4202003  73.3672943  18.0048618  36.0494118
  73.3389664  18.6069393  35.3058205  74.1621323  18.2478600  36.5241966
  33.7298622  69.2618790  49.8795776  33.8168068  69.6920242  49.0289001
  33.2233353  68.4704437  49.6971283  62.8872757  40.6679688  74.3938065
  62.7169533  41.4795647  73.9157562  62.7809219  40.9057083  75.3148956
  85.3829193   0.3981751  88.1820526  85.7216415   0.7212322  89.0169983
  85.6755371  -0.5122756  88.1410294  27.0371342  40.7650757  59.3847275
  26.7029705  41.6084442  59.6901779  27.0230751  40.8334236  58.4300728
   8.6168633   1.5970167  76.8906326   8.8525200   2.5147188  76.7545395
   8.5760450   1.2269093  76.0088272  85.4972763  71.2928848  14.8998079
  86.1131210  71.5093689  14.1997328  84.6468582  71.5812683  14.5683699
  42.7777443  15.8740187  86.0644913  42.9465065  16.4897156  85.3512802
  43.4156685  15.1728582  85.9315948  21.4037037  21.1031857  65.1458740
  22.3165627  20.8157845  65.1638489  21.4197598  21.9763851  65.5376587
  15.7605524  27.7440147  17.3721867  15.1103859  27.0476494  17.2794952
  16.1123447  27.8622322  16.4898624  47.8568001  26.2676849  66.9687500
  47.9117889  27.1928329  66.7293625  47.8467140  26.2681446  67.9258957
   8.6007109   6.7006960   9.2402735   8.5330486   7.3640742   8.5535545
   8.7850084   5.8874192   8.7703295   5.1693587  43.0843735  48.5277977
   4.7530522  43.0512466  49.3890877   6.0339818  43.4599304  48.6939774
  70.1065674  21.3267384  34.6833344  70.5004120  21.2027931  33.8197594
  70.4540863  22.1653576  34.9869385  41.9911385   1.8718628  33.2061119
  41.3978157   2.5042481  33.6114388  42.3198166   2.3179712  32.4256058
  86.0880661  69.3830566  23.3250942  85.6452789  70.0591354  23.8380165
  86.0751495  69.7162170  22.4278374  23.5861912   0.9599896  57.9000206
  23.9774437   1.6376282  58.4513435  23.0883293   1.4447314  57.2416954
   1.5255941  30.5794926  51.3708229   2.0111876  31.3433189  51.0593758
   0.9219344  30.9301376  52.0257072  75.4131622  64.8153229   5.6860828
  75.0134811  64.0284729   6.0566955  75.8320084  64.5141678   4.8797917
  76.3067932  20.1981163  75.6511688  76.6996078  19.3475132  75.8471527
  75.9478149  20.0987053  74.7694168  80.8101501  61.6866722  31.7692070
  80.7753296  61.4285622  32.6902924  81.4373856  61.0809975  31.3742886
  84.0851593  46.1641312   0.9465605  84.1075058  45.2446404   1.2116396
  84.7604828  46.5835724   1.4796960  11.7810535  68.1893616  35.9770241
  11.9635429  67.2589111  36.1081390  10.8282366  68.2379608  35.8995056
  16.7350674  42.2522354  28.6392899  16.1635704  41.4845238  28.6237831
  17.4743671  41.9894409  29.1875668  48.4444885  24.2365150  34.6185799
  49.3145752  24.6015453  34.7796021  48.1829262  24.6042824  33.7744446
  11.0822706  46.8819427  31.6108704  11.8857117  46.3797112  31.4749451
  10.4315243  46.4463921  31.0603657   7.5281935  48.5375786  10.8586969
   6.6699557  48.8043785  11.1880560   8.1394968  49.1615753  11.2500677
  46.5305138  23.6571827  82.1588058  46.4387741  22.7810364  81.7843933
  45.8061104  23.7290993  82.7803345  54.3616829  71.3017120  35.4982071
  53.5234375  70.9811783  35.1652908  54.4538918  72.1739426  35.1148796
  68.1852722  17.1928310   3.6258876  67.9251480  17.7392883   4.3674741
  69.0573578  17.5089264   3.3897164  57.9072075  26.7644958  85.1778412
  57.0689011  27.1885414  84.9943771  58.4889832  27.4822350  85.4280777
  40.7145004  10.3679733  10.4175692  40.4796410  11.1532211  10.9119949
  40.6307144  10.6284924   9.5003223  84.5322113  25.3193283  18.6806164
  84.4608688  24.3900356  18.8986950  84.0338745  25.7650414  19.3656254
  40.3897438   2.2937164  85.7035675  39.5727806   1.7979294  85.7583542
  40.3279266   2.7662702  84.8734512  38.8493652  32.5749359  14.4053421
  38.1778297  32.1075554  13.9085264  39.5298424  32.7719917  13.7616377
  61.6411209  46.5951462  52.3688087  61.2585258  46.3922310  53.2224350
  61.0687294  47.2701378  52.0041389  37.2669983  47.5478363  80.9351501
  36.4213409  47.2843628  81.2980194  37.2002754  48.4977074  80.8375473
  62.7441177  22.0248623  67.7396698  62.0116386  21.5079002  67.4043274
  62.7472534  21.8530693  68.6813202   5.8427749  57.8776054  32.0597801
   5.1675878  57.8129311  31.3843746   6.2419171  57.0079155  32.0834846
  77.8636703  63.4249725  56.7293930  77.1704941  64.0735779  56.8521004
  78.3981857  63.4930763  57.5205231  16.2949924  15.9300547  85.2051315
  16.4376316  15.2869644  84.5106354  16.9963646  15.7623720  85.8345642
   0.6447051  63.9764862  61.3509979  -0.1127288  63.7915916  61.9062843
   1.2429055  63.2465744  61.5110626   1.3862977  32.9064026  54.0973434
   0.4912516  32.9774246  53.7655602   1.4546096  33.6007347  54.7526817
  19.9325504   3.2463439  46.8986320  20.5147171   3.8404102  47.3723412
  19.0844173   3.3469512  47.3308105   1.8150647  17.1617107  36.0209618
   2.3334899  17.2810307  35.2252045   1.6304806  16.2228680  36.0480385
  13.2558260   4.5564914  81.9684601  13.0264416   3.7963171  82.5030136
  13.5286551   4.1856275  81.1292572  84.4601059  31.1675663  55.8417206
  84.2936554  31.9246464  55.2801514  84.0029297  30.4450397  55.4113922
  66.7265549  40.4683800  47.7536087  67.5478134  39.9875717  47.6507149
  66.8101425  40.9067612  48.6004066  68.7141190  37.0589981  61.0715752
  69.1055450  37.6766930  61.6892090  69.2167740  37.1754723  60.2653465
  37.7370491  44.2453613  85.7278519  38.0177498  44.6079979  84.8876572
  37.4412270  45.0048790  86.2297058  54.8329468  65.9570084  80.6078033
  55.6326408  65.9387131  81.1335297  54.2359161  65.3602524  81.0591125
  67.2299957  19.8581219   7.9177637  68.1175079  19.6798229   8.2288351
  67.0321808  20.7346649   8.2475719  64.1732407  20.0636940  64.2560425
  64.6682129  19.5791798  64.9167099  64.8406754  20.5198441  63.7435150
  68.5254669  54.6908417  42.1507492  68.4533844  54.0808411  41.4166298
  67.6195221  54.9002037  42.3780403   4.3967862  35.3047905  22.5934620
   4.5587206  35.3785515  23.5339775   4.2193933  36.2016525  22.3099079
  22.8073559  42.9275856  64.9099121  22.5498505  43.0289803  65.8262329
  22.1930161  43.4795303  64.4259949  55.7076797  68.6493835  28.3898392
  55.5456085  67.7611084  28.0721378  56.5167694  68.9159775  27.9533367
  62.1413345  16.0118237  47.8812103  62.7360878  15.7676153  48.5903358
  61.5196838  16.6158619  48.2873116   1.6443408   3.7396555  61.3269958
   1.4701009   4.4379916  61.9580269   2.0207324   4.1890488  60.5702896
  60.7961159   7.0686588  47.4370689  61.1685524   7.4155602  48.2477379
  61.3627739   7.4128308  46.7466507  75.9656677  23.6330204  22.6683388
  76.1713486  22.9761238  23.3334789  75.4539337  23.1584721  22.0132351
  80.0445862  41.5195427  12.6040182  80.0244827  40.5973358  12.3483667
  80.5589600  41.9468002  11.9191093  41.9676971  55.9276619  82.9310989
  41.4688644  55.4414902  82.2745667  42.8364449  56.0319710  82.5429840
  53.1340599  67.4524918  71.1616211  53.3992386  68.1885147  71.7131424
  52.3922043  67.0620804  71.6236343  27.2191544   3.1130042  40.0281372
  27.6535225   3.9533267  40.1744766  27.0196953   2.7902439  40.9069290
   0.2427473  63.0105896  47.5945549  -0.1270717  63.0186424  46.7117195
   1.1610988  62.7724991  47.4673729  73.3885269  22.8215618  25.3671570
  73.0379410  23.0424309  24.5042934  73.5507812  23.6680164  25.7835960
  58.9428329   9.7939711  25.0194302  58.4911156  10.3505182  25.6538086
  58.4077454   9.8501329  24.2277489  76.1728592  35.9639854  19.4220562
  75.7321396  35.2047691  19.0404930  77.1024170  35.7365189  19.4018421
  19.6790638  62.4726639  83.6800995  20.6052113  62.5671921  83.9026871
  19.5626144  63.0188446  82.9026947   9.8582449  64.4490967  78.5592804
   9.0734644  63.9145012  78.4386292  10.1786442  64.6079865  77.6714020
  52.6969261   9.3403072  10.3831558  53.4306793   8.8277607  10.7224741
  52.4227448   9.8840160  11.1216917  55.7187881  38.6425133  17.8578529
  55.8092003  37.8066788  17.4002056  55.0353088  39.1072350  17.3750267
  50.9885750  65.9926453  16.2452145  51.1844788  66.9269562  16.3153019
  50.2213631  65.8662567  16.8034687  82.0356369  16.5363979  35.0988922
  82.3678284  15.9505930  35.7791214  82.2779160  16.1103897  34.2766685
  76.5255737   5.0166807  77.7236710  76.6578674   5.8495922  77.2709198
  76.3618393   5.2623796  78.6342010  53.3269920  60.6217957  75.4405441
  53.2554855  60.9897270  76.3213043  53.4386368  61.3831596  74.8712540
   9.6362238  52.7568398  25.2707729  10.3462667  52.1458931  25.4677925
  10.0788441  53.5805092  25.0661125  61.6122360   9.3557386  24.9139175
  60.7227554   9.2980185  25.2628098  62.1041298   8.6950769  25.4015617
  84.5368729  55.9869957   7.8775716  84.3682556  55.0772781   7.6321936
  83.9572220  56.4986572   7.3132596  25.4610195  13.1141796  58.0546951
  25.3642712  13.0173044  59.0020523  24.9492455  12.3937988  57.6867638
  80.8947601  25.3666801  19.7992916  81.0032654  26.3141632  19.7172222
  80.5112000  25.2438545  20.6676407  52.0292549  71.5497284  69.1929016
  51.4454079  71.7860641  68.4721375  51.4988213  70.9857254  69.7557220
  76.2827835  68.3783340  42.8894730  77.0509949  68.5537796  42.3460655
  75.9904022  69.2431641  43.1772499  71.0021667  48.1866112  46.4699326
  70.3821335  48.9082832  46.5747185  70.4529343  47.4224968  46.2946930
  69.6309891   2.1308186  30.3308029  70.2776871   1.5609814  30.7470913
  69.8267136   2.0721178  29.3956680  72.2950058  25.2311764  62.9111557
  71.7627945  24.4375629  62.8549080  72.8133698  25.2294712  62.1064644
  36.4774170  16.2383118  68.5786591  36.1695747  15.3322382  68.6009827
  35.9381752  16.6580315  67.9083710  39.2378731  41.1534729  48.9830170
  39.8740387  41.5932274  49.5470581  38.6048203  40.7696686  49.5897903
   3.0653739  40.7297897  80.9562988   3.1596985  39.7772789  80.9637756
   3.6315839  41.0321236  81.6663971  13.6286793  36.8638191  89.1285400
  14.3473568  36.3752556  88.7272491  13.7355728  37.7576256  88.8030930
   5.4666119  22.3500404  22.6643238   6.2953668  22.8137512  22.7841969
   5.2039204  22.0963917  23.5491333  49.5595589  68.1624222  32.0269699
  50.3592453  68.4195938  31.5680580  49.4654884  67.2285309  31.8392830
   3.2672582  67.1042099  58.8295097   3.8539176  67.2399521  59.5735779
   3.4663196  66.2184906  58.5260277  11.1958590   6.5985403   7.8437572
  11.9356413   6.3212776   7.3033128  11.4693489   7.4390655   8.2111158
  81.2065659   2.0406034  84.0360031  81.1961594   2.5667691  83.2364502
  81.4779282   2.6514351  84.7211838  80.0033798  55.6033516  21.1653919
  80.7173157  54.9943695  21.3542461  79.6114960  55.2700691  20.3581829
   4.0722861  24.3050690  86.3656158   4.8479738  24.5453091  86.8723984
   3.3805132  24.2048893  87.0195618  66.8955917  56.2362251   6.6034613
  66.4562454  55.5615654   7.1211882  66.1824188  56.7564850   6.2333970
  17.5560303  54.3564491  51.9050407  17.4033337  53.9736137  51.0411224
  18.3304710  54.9070244  51.7895508  47.8448524  70.8722458  53.2877121
  47.9135971  70.6931152  52.3499413  48.7448235  70.8161774  53.6088715
  67.1700745  59.0082664  33.2938538  66.5470505  59.4924927  33.8356972
  68.0267258  59.2257576  33.6613731  66.9238663  44.6754837  71.8677444
  66.0655975  44.9320755  72.2050247  66.9033966  43.7185097  71.8639603
  67.3531494  62.6108131  21.1980038  67.9241180  62.5986252  20.4298382
  66.7885361  61.8456039  21.0889225  26.0127926  48.0812416  35.5495148
  25.0723534  48.0127487  35.7141762  26.0873890  48.7366104  34.8558578
  50.4830208  53.2320862  65.8398895  50.8102760  53.6294022  66.6469116
  50.9945869  53.6458359  65.1446609  80.1881866  54.9046631  80.5716171
  80.6013794  55.5599174  81.1338882  79.2622910  54.9315948  80.8129044
  39.0367241  12.0545835  76.4954987  39.1076660  11.1076269  76.3751907
  38.4957657  12.3492393  75.7628479  83.0617828  47.6176643  83.4600372
  82.7330017  46.7377625  83.6441879  83.8133469  47.7195969  84.0439835
  69.1935425  66.7278137   4.2546592  68.6661224  66.8298035   5.0469074
  69.8314209  66.0497208   4.4772234  76.0303421  27.4557915  57.4121704
  75.7527847  28.3147678  57.7305336  76.9586792  27.5652275  57.2061272
  54.6747055  68.4163513   9.8278522  54.3278122  69.2959061   9.9771175
  53.9232483  67.9123077   9.5156212  73.6444016   9.7257338  20.4388180
  72.8029633  10.1817636  20.4549770  73.6730194   9.2464685  21.2668991
  15.8930674  40.7920151  25.0331707  16.6134300  40.8821259  24.4093208
  16.3205185  40.5860825  25.8645000  41.4039497  50.4091339  56.0099487
  42.1369362  50.3763237  55.3952217  40.8557472  49.6623421  55.7690926
  60.0834846  42.3170242   6.0215759  60.3966522  41.5324974   5.5713792
  59.1360817  42.1953773   6.0837693  46.7360497  31.3176537  79.6543732
  47.3028069  31.9963951  80.0208817  46.5414314  30.7427292  80.3945236
  58.6148033  59.1504822  71.6587219  58.3022842  59.5095291  70.8282623
  57.8922386  59.2957153  72.2694931  32.2473373   1.1652585   1.4224459
  31.8709698   1.7677890   0.7809350  31.5966225   1.1244460   2.1232572
  29.9416752  48.1767693  79.9636917  30.8856831  48.0472984  79.8724899
  29.6654758  47.4990425  80.5806503  63.0533409  26.5345421  72.3288803
  63.7997360  26.9489079  71.8959579  62.3107224  27.1014996  72.1207581
  54.0299530  27.8883686  71.0813599  54.0667381  27.1907215  70.4270172
  54.8950348  28.2964840  71.0452347  47.9240608  67.1004181  24.3296814
  48.5565834  67.4390259  24.9633179  47.1526413  66.8841629  24.8534908
  79.6832047  66.9211121  59.3389168  79.8203201  66.6491470  58.4314651
  79.8199387  67.8684387  59.3283081  48.4367371  52.8055420  80.1518021
  48.9228210  53.5880585  80.4118423  47.9962196  52.5201988  80.9522781
  45.1989098  38.4010925  20.4062958  44.5121880  38.7710304  20.9610844
  45.4376678  37.5798645  20.8361931  65.5752029   5.5357304  42.5568237
  65.5495758   5.1425767  41.6844673  66.4889603   5.4535403  42.8298264
  51.1880798  70.8195114  56.9296265  51.4954071  71.2483292  57.7283096
  50.2779045  71.1022720  56.8409882  59.6986542  61.2003098  23.8118134
  60.5896721  61.5076523  23.9787292  59.7406845  60.2548027  23.9549084
   7.9874387  36.6656837  85.0052643   7.4096293  36.6900406  85.7680054
   8.6841650  37.2884331  85.2126007  86.1605759  25.6014519  11.3954573
  86.0139389  25.9373436  12.2797117  86.3728333  26.3773518  10.8766527
  72.5553665  30.1168346   1.8505934  71.6222839  29.9782047   2.0130019
  72.6029663  30.9874229   1.4555717   1.2910416  44.4425087  33.9014282
   0.5827523  43.8796616  33.5887604   1.0264550  44.6907272  34.7872124
  60.1860123  46.3970718  28.0303841  60.1945572  45.7169418  28.7038689
  60.0744858  47.2140884  28.5164642  22.5523891  25.7253647  76.7293167
  21.7707844  25.1754093  76.7829361  22.2167130  26.6002769  76.5341721
  37.0116920  46.0200233  55.7243576  37.3143654  45.2711029  55.2108040
  36.3818016  45.6481934  56.3417816  50.7683678   2.7009890  56.8209839
  50.2194252   3.2463517  57.3844299  51.4802399   2.4089150  57.3903351
  20.1435051  70.5325241  80.7692337  20.7052612  70.0701294  80.1472626
  19.3653545  69.9803543  80.8455353  83.6624298  64.2179031  78.4683075
  84.0305710  65.0198593  78.8392181  82.9102325  64.0193939  79.0260010
  14.8318577  49.2070923  37.1237717  14.9653893  49.2454720  36.1767120
  15.6713123  48.9066544  37.4720345  52.6115189  47.3781166  88.3584747
  53.4178963  46.9672089  88.6701431  52.5602379  48.2024231  88.8423386
  55.8949394  53.2392960  87.0168839  56.1166306  53.4665985  87.9198914
  55.6546745  54.0727921  86.6121826  76.2560654  40.7399368  48.6726646
  76.1294556  41.5975914  49.0784149  77.2051697  40.6561127  48.5809784
  79.1992493   1.1587564  25.1651402  80.1321640   1.0164270  25.0049934
  79.0194397   2.0186427  24.7850151  54.0264931  33.6010590  28.6927261
  54.7504807  33.9780273  28.1927586  53.4606056  34.3464203  28.8938274
  78.0928345   6.5117874  16.8495369  78.3494034   6.9199729  17.6764526
  77.8412323   7.2452364  16.2883072  54.9198723  38.4510918  11.0407877
  54.1146317  38.9245720  11.2496939  55.6170616  39.0928040  11.1762953
  71.0517349   5.3841968  88.9438400  70.1527328   5.1874623  89.2071152
  71.3195190   4.6276746  88.4221115  69.6826706  29.9472923   2.1184881
  68.7928925  29.6445236   2.2997663  69.6654129  30.8809948   2.3285680
  14.8021135  56.9100227  15.1616631  15.4968348  57.5223274  15.4038944
  15.2600212  56.1828728  14.7399960  72.6800461  59.0336990  22.4901638
  73.6241608  59.0733109  22.3374577  72.4516983  59.9077988  22.8064556
  18.9776440  61.6168976  86.1241760  18.0803471  61.6764297  86.4521179
  18.9083595  61.8378677  85.1954117  72.2727127  37.8832474  18.0882626
  71.9595261  38.7299194  18.4065208  72.6570053  37.4650040  18.8587322
  26.5388832  16.0355644  75.7973099  27.4129276  16.0528297  75.4074631
  26.1420059  16.8653259  75.5323181  81.2899170  40.8048096  86.5849304
  81.0710754  41.0486107  87.4843216  80.8813782  41.4828644  86.0468140
  49.7462463  70.5418549  24.4174709  49.5898399  69.8752060  25.0863132
  49.0390816  71.1751099  24.5405064  13.3755302   6.8898492  72.8031998
  14.2112875   7.1262646  72.4008942  13.5091314   7.0402827  73.7390137
  35.4613037  52.6459160  28.0763817  34.9751053  53.4603348  28.2050705
  35.0534935  52.0254936  28.6805325  59.8876686  36.5662422  37.3056183
  59.1711502  36.5170326  37.9383965  59.6869316  35.8857346  36.6630859
  26.7656097   9.1254082   8.2718382  27.6040668   9.4171820   8.6297340
  26.3693962   8.6134052   8.9768925  57.1048813  48.6386681  27.6536770
  57.1395912  48.9680672  28.5517426  56.6347809  47.8076134  27.7213821
  40.2936630  42.5331764  11.6369839  39.9689140  43.4111671  11.4372234
  41.2456741  42.6097069  11.5733452  44.6536026   6.8682485  46.9497375
  44.6177559   7.4588122  47.7021866  45.3017197   6.2076941  47.1943665
  56.1701622   0.7332854  62.9002075  56.1435089   1.4468876  62.2627945
  56.3611450   1.1635872  63.7336311  11.6425409  28.7624454  70.6031113
  11.9006100  27.9409504  70.1850433  11.2010164  28.4929485  71.4085007
  17.3794613  56.3436394  17.4496899  16.7837563  56.6058922  18.1515369
  17.7599258  57.1651840  17.1389828  30.6310081  51.6787987  72.6590195
  30.0000572  51.0709076  72.2735291  30.9740467  51.2153664  73.4230804
  61.1175728  13.6557436  25.4271126  61.6882286  12.9933558  25.0374641
  61.6559563  14.0684185  26.1024456  25.0148354  26.2606335  10.0223846
  24.4374218  27.0119629   9.8870029  25.5463181  26.2206841   9.2272968
  38.9637032  50.4577103  30.0308819  39.0629883  51.4083633  29.9795666
  38.6533890  50.2020683  29.1622143  34.5783119  43.6734505  22.1483994
  35.4792137  43.3822174  22.2890644  34.6201134  44.2065048  21.3544617
  65.8975601   9.7493200  57.5318794  66.4940414   9.8948002  58.2662315
  65.2169800   9.1768560  57.8858986  48.2258720  25.9846058  55.5847473
  48.3402824  26.8708801  55.2417336  48.1135368  25.4391251  54.8062477
   3.8560710  19.8932152  43.8715897   4.3326559  20.1385784  44.6646194
   2.9541724  20.1660023  44.0401077  10.5078049  37.8018265  34.5206451
   9.7237377  37.2834435  34.3396721  11.1319647  37.5357399  33.8454781
  38.5779190  59.0751190  73.9578323  38.1937218  58.7093811  73.1610565
  39.5143661  58.8940620  73.8771362  74.9395065  48.4568138  85.2193146
  75.8269577  48.2843094  84.9048462  74.8783646  49.4114952  85.2521286
  29.9980068  45.5489235   7.4513893  29.8936729  44.6089172   7.3039522
  29.1224880  45.9112701   7.3157344  71.1885910   2.2791600   3.6554532
  71.9844589   2.4630196   4.1544709  70.5168686   2.8229041   4.0669961
  70.1801529  16.1517715  71.2808228  70.8983307  15.5893698  70.9907303
  70.0380859  16.7544956  70.5509033  28.9429550   1.2784015  71.2006912
  29.7159138   1.0068771  71.6957092  28.3368759   1.6075150  71.8644562
   9.1834326  50.4143829  11.4881811   9.0608664  51.3573036  11.3781347
   9.9508657  50.2086983  10.9543533  85.8985977  20.3954296   1.1603584
  85.3455124  19.8767776   0.5761265  85.6076584  20.1564140   2.0403903
  53.2127151  53.7175560  65.9648209  53.7272758  53.7113838  65.1577148
  53.6977959  54.2956009  66.5537109   2.5055156   6.8806701  20.0395527
   2.5328698   6.4748349  20.9060287   1.6469188   6.6418881  19.6902294
  18.0723152   0.3875220  39.0792656  17.5042515   0.6738212  39.7945061
  18.7371311  -0.1547206  39.5037956  55.2845116  27.6048717   5.1800151
  55.5016327  27.4327717   6.0962420  55.3211136  28.5580311   5.1001554
  54.5123405  16.1358376  63.0265503  53.9492569  16.8023396  62.6329193
  55.2719421  16.0906467  62.4458656  53.3495255   7.0745511  24.2463379
  53.9963112   7.6948547  24.5826740  53.7985611   6.2293229  24.2600346
  59.1141663  43.1214828  19.1968746  59.8541145  42.7127571  18.7478142
  58.3538208  42.8936729  18.6618900  55.6623421  40.3969040  55.7779388
  55.7572899  39.5887985  55.2737732  54.7310524  40.6094437  55.7166176
   9.3642387  11.8797092   1.7047197   8.5189228  12.2347937   1.4297868
   9.1423693  11.1002054   2.2140119  48.7118073  71.6852188  35.0736275
  48.0610199  71.4011917  35.7155304  48.8476257  70.9196014  34.5153999
  62.1225243  11.8943920   4.5690804  61.6581764  11.1594200   4.1685443
  63.0487900  11.6962795   4.4311647  78.9904785  56.6142082   8.1735945
  79.0867996  55.7146530   8.4862537  79.2543793  57.1558418   8.9173813
   1.4366466  16.3080864   4.5053725   2.3921521  16.3520412   4.5415559
   1.2398671  16.1264114   3.5864034  20.5253944  36.5883331   2.8863940
  21.0919666  35.9556046   2.4449387  19.6389256  36.3394279   2.6247642
  40.5635910  41.9561844  35.0645638  40.4499702  41.6097031  34.1795387
  40.7458267  42.8870125  34.9357986  42.7930298  57.8698997  12.3110428
  42.0533714  57.5553017  12.8308163  42.9459496  57.1772423  11.6683350
   8.3118553   6.5708241  20.1032238   8.9662189   6.4162579  20.7845078
   8.8244553   6.7399802  19.3127422  42.4027557  59.7711601   5.1163573
  42.1969185  59.0674896   5.7317524  41.8238411  59.6139717   4.3704467
  74.5981216  41.2764587  30.1818695  74.9586639  40.4112892  30.3760948
  74.0217209  41.4673576  30.9218369  26.2473507  62.8755112  74.0549316
  26.6164494  63.4353294  74.7380142  25.8038826  62.1748772  74.5331268
  73.5566177  35.2251396  37.8844528  73.3298874  35.5995674  37.0331993
  74.4723358  35.4700203  38.0175896  66.2510986  16.0641727  32.9598999
  65.6815414  16.3941269  32.2649422  67.1255569  16.3690987  32.7178955
   5.9923854  20.3402424  77.4818115   6.5110354  20.0508270  76.7311630
   5.0860844  20.1648540  77.2286530  22.0398865  10.8331842  51.9971657
  22.0789299  10.5252180  52.9026299  21.7096024  11.7291842  52.0629578
  81.1152191   0.4894862  80.4707413  81.9768600   0.8767170  80.3162689
  80.5082169   1.2278645  80.4200134   3.0533178  69.0796814  23.7883263
   2.5957360  68.4089890  23.2813473   2.3838446  69.4374924  24.3714294
  18.1286354   0.3534777  64.4219513  18.5919399   1.0910445  64.8189087
  18.1804504   0.5169265  63.4802361  16.0079899  45.6803055  54.0231285
  16.6823463  46.1875954  54.4749413  16.3854523  44.8050995  53.9349937
  54.4720154  49.4230347  28.9896851  53.9523277  50.1508408  28.6484280
  55.2393112  49.8398018  29.3818588  56.2804108  29.2810402  70.3663788
  56.1262970  28.7829494  69.5636444  57.2322578  29.2839184  70.4674530
  26.3723087  63.8604050  85.2041397  27.3218727  63.9097404  85.3142624
  26.0182724  64.2920761  85.9816666  22.1211357  31.9971848   1.6801174
  22.9792709  31.5764503   1.7332060  21.4959240  31.2759018   1.7514795
  44.1201668  53.2208786  61.5038834  43.6394577  53.4254875  60.7018318
  43.4496994  52.9101868  62.1123047   1.1819943  40.9605179  87.4196167
   0.6976049  40.2501183  87.8402481   1.0835006  40.7952042  86.4819565
  66.1269302  47.1287498  28.4882469  65.8052063  46.8098106  27.6450348
  67.0794373  47.0606575  28.4224663  81.8892593  63.6899490  15.9324846
  81.8544159  64.4924698  16.4530468  82.0818481  63.9890594  15.0438480
  79.6116180  44.0009499  17.2595921  79.2175674  44.7779503  16.8630638
  79.8641739  44.2826843  18.1388378  46.3231773  49.0571404   9.1284637
  46.6016808  49.2115326   8.2257833  47.0951958  49.2625122   9.6557579
  52.5416031  50.7922783  41.6850281  52.1871452  49.9167366  41.8400002
  53.3667946  50.8058777  42.1698990  17.0045700  52.1494789  17.7894402
  16.2695713  52.6714821  18.1111889  17.7785625  52.5674286  18.1669121
  35.0855103  54.5430145  73.3068542  34.9207115  55.1819763  72.6134491
  34.5816460  53.7718849  73.0466461  45.4173012  58.7449265  35.2521782
  45.6922607  59.6306915  35.0154343  45.2382584  58.7926750  36.1912727
  62.2539253  60.6372032  12.5861006  61.8791351  59.7672081  12.4487162
  62.5712395  60.6214371  13.4890366  59.9938393  30.9934177  33.2035980
  59.2495270  31.4186535  33.6295166  60.3406219  31.6577454  32.6080780
  10.4545231  60.8891792  75.6912155  10.2341204  61.6232796  75.1178436
   9.6201553  60.6336288  76.0846024  45.4186821  14.5483446  63.3980446
  45.6317368  15.4664564  63.5651093  45.5578041  14.1132841  64.2392349
  20.2059879  58.8370056  32.2819481  19.8068657  58.1048203  31.8120193
  20.0620613  58.6351891  33.2064972  12.3940458  50.7209969  47.8366165
  12.3972073  50.7894783  46.8818741  11.4667568  50.6827431  48.0709305
  31.7370205   0.8736292  53.7409172  32.1994362   1.4086759  54.3859940
  31.6628380   0.0127400  54.1527405  15.6387625  45.9142494  17.8496418
  15.0916672  45.4837074  17.1927166  16.2370605  46.4619446  17.3414078
  84.3376083   6.2473211   8.9308681  84.5845108   5.8004498   9.7405443
  84.6987762   7.1288500   9.0241089  84.7047424  37.6437836  13.4381094
  84.3427658  37.3861389  14.2859459  85.6035919  37.9095421  13.6322155
  23.1741886  32.6061401  11.6878014  22.8266258  31.7429104  11.9120045
  22.4939766  33.0045815  11.1448565  50.6567116  12.8690081  50.5904579
  49.8069649  13.2805023  50.4328575  51.2251740  13.5897093  50.8618851
  51.3672867  34.1185989  21.5940189  52.1477127  33.6074142  21.3798714
  51.6950111  34.8456650  22.1233635  61.4733009  25.3909588   9.7089643
  61.1096268  24.9197426  10.4585829  61.7526131  26.2331467  10.0680399
  66.6058044  54.8810577  39.7514992  66.4890060  55.0738220  40.6817818
  67.2929153  54.2150040  39.7293396  71.8314056  11.4481449  10.6203632
  72.6447601  11.0286407  10.9008942  71.9624786  12.3768015  10.8117962
  49.2603912  28.8814335  14.0559568  48.8172417  28.5529613  14.8382349
  50.1874504  28.8952579  14.2938585   4.6043024  59.1572418  44.5523033
   5.4880166  58.7915382  44.5915642   4.6880536  59.9259567  43.9881248
  12.2349319  67.0434189  55.9659691  11.9945040  66.1497803  55.7213707
  13.0557623  66.9469604  56.4488411  84.4470062  58.8543015   3.9049549
  84.6160660  59.3519287   3.1049433  85.3161926  58.6126938   4.2249179
  76.9885025  44.2875366   8.9845037  76.4449844  44.2222557   8.1992941
  77.6273651  43.5806313   8.8930273  16.8624516  60.9160347  64.0872726
  17.1476078  60.1701241  64.6150360  17.5277004  60.9938774  63.4034462
  82.9862518   7.1551933  84.7170105  82.3631134   7.4158525  85.3952332
  83.7583313   6.8621192  85.2009888  82.8114548  43.9811668  34.8834496
  82.8935318  44.9017868  35.1323509  82.8310089  43.9891205  33.9264832
   7.1886840  57.9232330  19.4305630   6.8265357  57.2478943  18.8569794
   6.8048639  57.7401772  20.2881222  13.9012794  64.9769974  29.0314827
  14.6066704  64.5080719  29.4773121  13.8265371  64.5446472  28.1807632
  84.0791550   7.5756679   6.3662634  84.9813156   7.6653976   6.6733170
  83.5716248   7.4069338   7.1601009  74.9963608  62.4130478  53.9114647
  74.8121643  62.7440529  54.7905197  74.4001541  62.8998413  53.3424339
  78.3523788  26.0064659  23.3902073  77.9315872  26.8511486  23.2299480
  78.6507416  26.0559845  24.2983685  15.0687675  49.9052696   4.6357651
  15.3921547  49.8110428   5.5317416  15.1965551  49.0417862   4.2429543
  61.9881020   0.3812044  52.8533134  61.3972054  -0.1135065  52.2855682
  62.7964592   0.4603533  52.3468323  61.4655571  26.6423626  12.7228231
  60.6868210  26.3512096  13.1971989  61.1245270  27.1907043  12.0162468
  80.3100510  22.4193401  25.9595356  81.1884842  22.4278717  25.5793724
  80.2398682  23.2560081  26.4192009  62.7923546  66.2655334  83.3604126
  63.4206619  65.7503357  83.8664093  62.1416969  66.5481873  84.0030518
  23.9523354  56.6078186  64.1098022  24.1047726  56.0831490  64.8957520
  24.7603016  57.1081543  63.9954033  79.7910233  30.5153885  51.3530579
  80.6189117  30.9834862  51.4613304  79.4735489  30.3805885  52.2459564
  27.3895912   7.1733809   0.7370889  26.7744408   7.4104705   0.0431073
  27.3718891   6.2165365   0.7562426  26.6755657  21.8587761  81.6736603
  26.3832817  22.7267227  81.3953323  27.5446625  22.0068512  82.0464554
  69.4701157  26.7319813  62.7675018  70.0736923  26.5857639  63.4958954
  69.1770401  25.8551254  62.5195885  76.6030807  67.0997925  88.6100616
  76.7661667  66.5994034  89.4095917  75.6620560  67.2744293  88.6245728
  69.8619461  45.6195946  48.0184059  69.9655685  44.7915344  47.5495644
  70.7530060  45.8695297  48.2628975  62.7034416  21.9065590  80.0875244
  63.6391869  22.0187988  80.2548981  62.5774422  22.2394543  79.1989670
  16.5970001  36.3442116  14.7639446  16.1163750  36.1536255  15.5694923
  16.8311024  35.4839745  14.4154940   1.9727545  36.1213112  41.4666481
   1.1765705  36.2314148  40.9468384   2.4662774  35.4415207  41.0077858
   0.6094146  68.1163025  82.7470322  -0.2273037  68.3163376  83.1667023
   0.8757339  68.9402161  82.3390121  75.7274094  11.5282564   6.2034659
  75.4327240  11.9570360   5.4000115  76.5522232  11.1070967   5.9615254
  40.6546173  44.7205505  73.0183716  40.7301407  43.7682762  73.0792389
  41.3657379  45.0527191  73.5662766  37.3283844   9.0817099   9.8543253
  36.5434761   8.9476814   9.3231087  37.1178360   9.8342466  10.4071274
  32.2697716  40.3017693  88.1997528  31.5721455  40.7973175  88.6286850
  32.0537186  39.3854179  88.3725433  56.7393684  62.5018845  48.6276360
  57.0829086  63.3590317  48.8796577  56.7196732  62.0023117  49.4438896
  14.5983515  65.0692673  71.4136810  14.7718105  64.5650101  70.6187820
  15.2076960  64.7137222  72.0606079  69.7142105  28.6047401   8.1813421
  68.8037796  28.5413055   8.4699974  70.2167816  28.1862068   8.8802586
  26.7499371  62.3848190   8.3336239  27.6975060  62.2632294   8.3932981
  26.5335865  62.1424065   7.4332571  19.7625389  19.9802990  74.5210571
  20.4033375  19.9379349  73.8112640  19.0417538  20.4980698  74.1624298
   1.7393004   4.8046751  45.8650360   1.9970136   5.3225770  45.1024132
   2.4728062   4.8931551  46.4736176  11.9307861  24.1577396  26.4163055
  12.2016468  23.2943401  26.7284069  12.1027012  24.7436638  27.1534424
  18.1519489  71.1059647  27.9325600  17.7423363  70.2893982  28.2183418
  18.8438320  71.2644119  28.5747604  24.4230423  10.3708973   7.9351473
  25.2830334   9.9533548   7.9831448  24.5804958  11.2753963   8.2059250
  69.1695786  57.5917778  71.9671936  69.4557495  56.6874046  71.8389587
  69.3553696  58.0223885  71.1327515  10.3514595  66.9952240  64.4111557
  10.8471813  66.2717819  64.0275955  10.6644421  67.0477982  65.3142166
  21.9916611   6.9810028  13.4316454  22.8969688   6.9888000  13.1208582
  22.0222588   6.4786406  14.2458487  19.4063587  67.5988312  34.7670517
  19.2490578  68.5427628  34.7451248  20.2045918  67.4770355  34.2530251
  47.1544113  43.8730431  69.8816910  46.8853226  44.5772171  69.2918091
  46.3668709  43.3407211  69.9941406   7.5382247  46.6550369  67.0422745
   8.0712605  46.5303268  66.2570648   8.1354837  47.0511627  67.6767807
  25.0797615  53.4836311  17.9562626  24.2265072  53.2626114  17.5829773
  24.9175243  53.5590973  18.8965893  50.3397903  10.3343821  16.1349754
  51.1039429  10.9103985  16.1124840  50.5265274   9.6630201  15.4787483
  56.4329681  13.4655704  78.4602509  55.5353508  13.3396893  78.7679214
  56.9132767  13.7565355  79.2354126  74.4547577  17.0665207  27.4723530
  73.9098816  16.4108944  27.0370407  75.0120926  17.4150162  26.7765369
  64.8293228  25.5042362  47.2690773  65.7422791  25.7398624  47.1040993
  64.6202774  24.8645878  46.5883560  64.7416916   3.9677372  64.7320709
  65.1290283   3.6562114  65.5500870  64.9393539   4.9041486  64.7148285
   2.0450628  28.6877689  25.5713825   1.9822177  29.0688591  26.4471989
   1.6530672  27.8189735  25.6595211  37.4051781  21.2358303  84.4360123
  37.7942123  20.8676910  83.6426926  37.6036873  22.1710091  84.3883820
  43.7833405  34.6274109  14.0899725  43.0670128  35.1272202  13.6984444
  43.3889580  33.7874374  14.3248014  43.1858788  46.0222168  35.5208359
  42.9573135  46.5323067  34.7437935  42.3534088  45.6577682  35.8215065
  22.3412266  58.8720245  47.2874756  21.7105675  58.2185249  46.9850845
  21.8020363  59.5809937  47.6380005  58.7908783  51.0045357  61.1087837
  58.3652802  50.9180298  61.9617844  59.7274551  50.9910088  61.3059387
  66.6560135  66.6618805  61.2557983  66.1555099  66.7946091  62.0608482
  66.3555527  65.8159180  60.9236908  74.9187012   5.4975739  17.7410908
  74.7662430   6.3152881  18.2147274  74.3654175   4.8559947  18.1866112
  35.2410316  48.0601883  31.8157005  34.6839828  48.3368492  32.5432892
  35.7110558  48.8534851  31.5588150  19.0817242   1.9070582  30.9534950
  18.4331036   1.9517730  30.2509823  18.5658035   1.7649665  31.7471371
  65.9468842  38.7399673  35.9635239  65.0865707  38.5451012  35.5918732
  66.0189285  39.6931572  35.9138451  10.5681162  31.2060528  16.4960403
  10.2706928  32.0569115  16.1738434  10.3291245  30.5906162  15.8029661
  60.6653137  17.1684208  50.0334396  60.4752769  17.7499352  50.7696190
  61.4139709  16.6485977  50.3258896  47.7492256  25.2676582  88.2829056
  47.2692719  25.3844509  87.4630051  47.0796967  25.3334064  88.9638214
  67.4381256  53.9935036  19.1693478  67.3825989  53.8225250  20.1095161
  66.5395813  53.8949203  18.8544979  78.9868698  59.3763237  30.0411949
  78.0913773  59.3183365  29.7080765  79.2205582  58.4738350  30.2583046
  33.3278656   2.5284343  46.4200172  32.8605804   2.9632227  45.7066879
  32.6636925   2.3976278  47.0967712  78.2463379  45.6609306  14.7470217
  78.1116257  44.7231941  14.8838959  78.9637299  45.7101364  14.1152296
  54.7441101  58.0847054  69.8539276  55.1171036  57.8068390  70.6905289
  53.8094330  57.8941574  69.9333267  75.8187790  34.2195969   3.8011541
  76.1647720  33.8516045   4.6142368  76.0570221  33.5812149   3.1288865
  17.2861614  47.2836609  16.2272625  17.1656227  47.3323288  15.2789316
  18.0273209  46.6893425  16.3443089  73.0035095  69.2836609  48.4997368
  73.1234360  68.9240112  47.6208191  72.2721558  69.8947449  48.4107361
  64.3119125  36.8148537  44.8381386  64.7588272  37.3115540  45.5235519
  63.8510895  36.1197128  45.3078728   9.5586557  70.3892517  88.3995819
   9.3189058  69.7582321  89.0782394   8.7344713  70.8181763  88.1694260
   1.2444686  44.0311699  74.3931274   1.4220979  43.6876755  75.2687378
   2.0784049  43.9500656  73.9303055  73.2794037  46.8208389   9.2193632
  73.2845764  46.6016655   8.2876072  72.3549042  46.7959099   9.4661512
   4.0825539  14.7443151  76.3245468   4.3241978  15.6292639  76.0512238
   4.7339239  14.1791105  75.9092255  21.7028694  54.1556549  88.5413895
  21.8899002  55.0717010  88.7466125  21.0274944  54.1949768  87.8642273
  51.7487564  53.1742172  30.9255219  50.8663902  52.9503708  31.2214165
  51.8748131  54.0790672  31.2111607   9.6484919  47.8019104  42.6667061
   8.7192621  48.0239639  42.6079254   9.9653196  47.8566360  41.7651176
  19.0668526  30.0986214  83.9963837  18.9066029  29.1625805  84.1162872
  18.4782238  30.3532982  83.2858276  53.2473106  44.4961510  33.3068771
  53.9853249  44.0250854  33.6937408  53.6522408  45.1396446  32.7253418
  62.0719795  21.8658352  26.9437523  62.7615204  21.3758926  26.4957352
  61.3406792  21.8692837  26.3261623  55.7952232  19.8030148  38.2039413
  55.4997215  19.2037811  38.8893814  55.0541306  20.3928280  38.0656090
  77.4606323  68.7742538  53.2508240  77.3816147  69.3910141  52.5230904
  77.9735565  69.2441177  53.9083748  67.8108749  32.2391586  27.7283974
  68.0309753  32.5752945  28.5971909  67.1064987  31.6105156  27.8861828
  64.6192703  36.2390327  17.2356987  64.3216553  36.8437805  16.5560379
  64.8500443  35.4403343  16.7612972  71.9870682  63.6829758   0.2935181
  71.0349655  63.7408943   0.2136592  72.1862411  62.7625313   0.1222275
  23.6039829  61.6173019  12.4311590  23.2021313  60.7918510  12.7020416
  23.3177509  62.2504387  13.0895205   3.0957062  70.9144669  71.0298615
   3.9265873  70.5369263  71.3185425   2.7038825  70.2375031  70.4781113
  53.1937294  28.9181843  87.6160049  53.2421951  28.3463764  86.8498993
  52.6197472  28.4540348  88.2253799  79.5989075   0.8663526  53.7199135
  80.0319138   0.1287667  53.2901421  78.8138504   0.4864601  54.1143761
  48.4760857  41.6929245  12.3290682  48.8639107  41.9764442  11.5011559
  48.4433022  40.7385178  12.2637854  79.0138168  14.8010807  50.6110382
  79.0532608  15.6618986  50.1943016  78.1742020  14.7957335  51.0706558
  72.1692886  43.4301224  73.5137863  72.3303223  42.4933739  73.4006271
  71.7859192  43.7093964  72.6823654  72.3900681  37.4096909  32.2877350
  73.1900787  36.9040413  32.1443977  72.6849136  38.2026329  32.7355499
  76.8548889  33.9931068  35.8785133  76.7070541  34.4825706  36.6877098
  77.6339874  33.4661865  36.0562515  45.8520737  31.3341064   9.3762465
  45.7281952  30.8892059  10.2146673  46.3511772  32.1212540   9.5942411
  29.8006935  41.3538322  72.8265076  29.1461887  40.9802704  72.2363358
  30.1705608  40.5982056  73.2830734  81.8068771  68.5039673  49.5085716
  81.7149506  68.3095856  48.5758362  80.9227066  68.7349701  49.7933655
  28.5632267  62.1461906   4.2333703  29.2714024  61.5369873   4.0245876
  28.9862442  62.8416748   4.7369471  54.1121826  66.4069214  75.7076416
  54.7217484  66.9730835  76.1810532  54.6720390  65.7677841  75.2668533
  38.3530464  39.9511108  23.6343269  38.1246681  40.4200859  22.8317451
  37.5731812  40.0240631  24.1845264  69.1272812   6.6415496   8.0037251
  68.3529358   6.8079906   8.5412455  68.7813950   6.5018482   7.1222024
  50.1997108  33.9035912  32.6424751  49.4859314  34.2538910  32.1095238
  50.3199310  33.0090790  32.3236923  66.6909256  51.8773193  81.6606293
  66.1880875  52.0169868  80.8582077  66.1539993  51.2774391  82.1783981
   2.6421287  60.3720589  42.2130966   2.3991024  61.1215210  42.7566757
   2.1749020  60.5120125  41.3894806  54.3216934  63.6006165  68.5503311
  53.5806274  63.8949165  69.0798950  54.8087959  63.0115051  69.1264572
  81.7901459   1.7668263  45.5428467  81.9593964   2.6720560  45.8038902
  81.9072876   1.7656156  44.5928421  33.5971756  45.4426041  89.2853394
  33.6289444  45.3947639  88.3298569  34.5135231  45.3961678  89.5580673
   0.1261142  27.3475800  84.1338425   0.7859960  26.6781960  84.3146973
   0.3621876  28.0774784  84.7063370  78.5981445  52.8900681  63.6084137
  78.9727325  53.1048889  64.4626770  79.1613617  53.3413124  62.9796066
  70.5492706  46.3719444  54.0456123  70.7762527  46.4578476  53.1196899
  71.1433334  45.6981888  54.3763390  26.3316689  17.0788651  82.2495651
  25.8815308  17.7621746  81.7528839  26.5062790  17.4779243  83.1019135
  85.7587891  50.7124977  51.8309441  85.3248672  51.5595093  51.7284126
  85.0761566  50.1330757  52.1693382  58.3919716   7.5967627  26.8776875
  59.1327858   7.0676036  26.5820179  58.2132645   8.1882906  26.1466675
  72.0076523  45.6659241  84.6092224  72.6536026  45.8037987  83.9164200
  71.8745880  44.7181931  84.6274643   6.4518471  39.4444542  88.0071030
   5.9821997  38.8894577  88.6297073   7.2430615  39.7123299  88.4744949
  36.9019737  49.2175255  67.4898453  36.9316597  49.0086708  66.5561829
  37.2992325  50.0860519  67.5537415  28.9038677  59.6255951  28.6944523
  28.3576927  58.8942337  28.9826107  29.6713829  59.2107468  28.3006859
  51.3381844  58.8841019  78.0752716  51.1722755  58.0310860  77.6739273
  50.8029861  58.8835754  78.8688660   2.8946505  27.2515125  28.4749298
   3.7117782  26.9230461  28.0999050   2.9946318  28.2034664  28.4703255
  47.9474869  38.3858414  34.3698921  47.4231529  37.5864792  34.4180946
  47.4405823  39.0345840  34.8581657  63.3736610  70.8546524   0.5457796
  63.1386948  70.8274155  -0.3817332  62.7303047  71.4445648   0.9386189
  16.2835140  57.7710419  30.3801823  16.6960735  57.6337624  31.2329311
  17.0059967  58.0128670  29.8007259  73.5927734  49.5808067  31.7043133
  74.1001892  48.7733498  31.7866421  74.2398758  50.2480698  31.4757252
  59.8326721  69.7107086  15.3225584  59.5277367  69.3258820  14.5008783
  59.5711288  70.6298752  15.2681561  79.3963394  24.1315479  21.7117786
  78.9470749  23.2872257  21.7507458  78.8741531  24.7067394  22.2709827
  68.0671539  14.2187672  28.6132317  68.0168076  14.9454479  29.2342243
  68.6268768  14.5444374  27.9083347  10.1634550  67.8518906  83.6506348
   9.4185133  68.0149384  84.2291794  10.6382093  67.1332245  84.0681992
  23.5984383  44.7350464  54.8081512  24.3768120  45.2921524  54.8071709
  22.8669262  45.3454132  54.7155495  67.8012161  44.2312431  88.7797775
  67.6524582  43.4425316  88.2582092  68.4285812  44.7419624  88.2681046
  72.0911942  21.8808765  85.2160339  71.3573608  22.4532204  85.4399490
  72.6472397  22.4151230  84.6489105  13.6367750  65.4303665  13.6498766
  14.2751217  66.1245041  13.4857845  13.4822025  65.0389938  12.7901316
  49.2758484  24.6705608  10.8570404  48.5490379  24.3538685  10.3206768
  49.5666542  25.4700680  10.4183474  54.5899277  16.2449245  87.7881775
  54.9760399  16.6939487  87.0361557  55.3199654  16.1231995  88.3951797
  31.5034733  69.0607910  34.3334045  32.0061836  69.0112534  35.1464615
  30.6096115  69.2542877  34.6158905  64.0992737  27.9312344  75.4031372
  64.5385056  28.5121326  74.7819595  64.6593323  27.1560173  75.4432678
  45.3347321  39.7445908  65.7161484  45.9280815  39.3463249  65.0793228
  44.5370827  39.2182121  65.6621552   2.4466627  13.1696520  47.4355545
   2.7308035  14.0783701  47.3369179   1.6889200  13.2175636  48.0184441
  58.2620544  27.0298767  88.4712906  58.1501236  26.4734879  87.7004929
  57.8331871  27.8529034  88.2369156  77.0339737  28.0806122  75.9544220
  76.4597702  28.3096523  75.2236252  77.2637558  28.9209614  76.3509674
  23.0602932  13.7948122  74.1558151  23.0795345  14.0277624  73.2275925
  22.6431293  14.5434980  74.5820465  62.9238434   8.2416649  73.1690521
  63.3816261   8.9181728  72.6700516  62.4200478   7.7598467  72.5130997
   7.9124541  60.1799889  46.0483627   8.1853571  60.2281837  46.9645653
   7.6659665  61.0773697  45.8243446  78.8783264   7.6206746   9.7410755
  79.5533218   6.9596910   9.8950682  78.9382324   7.8105731   8.8048162
  71.2220612  35.9506378  49.9766045  72.0680466  36.0337334  50.4166412
  71.3371124  35.2166901  49.3730164  49.0341759   3.4184139  15.5827065
  49.5718651   4.2074742  15.6498260  48.7017059   3.4307644  14.6851854
  46.7842178  49.1297913  26.2953186  47.0136223  49.4167900  27.1791954
  46.1434364  48.4314003  26.4290180  85.4236374  46.8736115  37.4190979
  85.7204285  47.6348953  36.9205055  84.8221741  47.2337837  38.0708199
  80.6381226  49.6274948  80.3714218  80.5869522  50.5157013  80.0182953
  81.1922455  49.1544762  79.7505951  84.1743088  20.7476177  73.9440536
  84.0775070  21.6878128  74.0953598  85.1203156  20.6016846  73.9408493
  71.4891281  57.4715614  46.6156921  72.2101669  57.5062218  45.9870949
  71.1942749  58.3789940  46.6922340  45.0931320  50.7758141  21.9202995
  45.3046684  50.6387253  20.9968872  45.9358139  50.7165375  22.3704185
  21.5236187  15.4820042  86.2289124  21.7094364  16.0857620  85.5097580
  22.3859921  15.2319546  86.5606003  35.1866722  57.6309166   8.9258146
  34.9618645  57.2379303   8.0824547  36.0683250  57.9814987   8.7992792
  26.7080135  47.1792374  39.0017395  27.1272678  47.5586395  39.7740822
  25.7893982  47.0805664  39.2520294  47.5105057  41.9098969   5.4413261
  46.7407494  41.3445969   5.3769755  47.8255119  41.9890175   4.5409131
  39.0754623   5.2560325  88.8493118  39.0287895   5.8336139  89.6111908
  40.0123291   5.1620803  88.6770172  53.8185272  45.5068817  78.1318436
  54.5304909  45.6185341  78.7618256  53.0406876  45.3667908  78.6718140
  10.9443283  60.1011848  65.9505463  10.6810703  59.8308220  66.8302231
  11.9011393  60.0826759  65.9705811  49.2620354  50.4783974  44.6384811
  49.3527222  49.5255051  44.6397057  49.3638000  50.7274971  43.7198792
  53.1419067  64.7459106  43.1160316  53.8242683  65.2588348  43.5490685
  53.5920830  63.9586830  42.8096886  48.4276123  36.8032455   3.3187816
  48.3564148  37.6610031   3.7376080  48.5790405  36.9999313   2.3943264
   3.8923318  16.1849289  58.2734032   3.5177178  16.2592506  57.3956947
   3.1332490  16.1314030  58.8540573  68.4340363  39.3180428  71.5396957
  68.6319046  38.9444504  70.6809082  67.8644791  38.6715317  71.9566650
  25.7938232  70.8566971  29.7125664  26.0040016  69.9237747  29.7539787
  24.8618031  70.9019394  29.9259262  84.5252228  71.0701828  75.8453827
  84.9347382  70.9355087  76.7000122  83.9112320  70.3412476  75.7564697
  44.0908775  11.6948118  87.3410568  44.5682411  10.8713522  87.4423904
  44.7707291  12.3685579  87.3509598  38.0565262  28.2494183   2.9896266
  37.5585518  27.4476089   3.1488519  38.6594658  28.3080540   3.7307463
   2.1450164  39.7584114  57.1495590   2.1832428  39.3210640  58.0001450
   2.0550284  40.6874466  57.3617516  73.6005173  27.4595852  17.2668629
  73.0963593  27.1121140  18.0026035  74.5113678  27.2647667  17.4874039
  11.0716410  52.9387779   8.8803930  10.1967916  52.5623741   8.9762669
  11.5137243  52.7299576   9.7033081  75.2473526  10.3511438  66.6474686
  75.5914993  11.1040182  67.1280670  74.3094788  10.3531866  66.8388290
  33.2413330  66.5543213  82.2437668  33.9888229  66.1379089  81.8147125
  32.5084686  66.4047852  81.6464539  43.1466980  40.3789444   4.2152033
  43.8394165  39.7891541   4.5127244  42.8499794  40.0014458   3.3871446
   1.1065590  51.7974129  79.5460434   1.1363370  50.8610878  79.3494644
   1.2029674  52.2240791  78.6946335  62.1988602   0.2455883  55.4623642
  62.8911972  -0.3400557  55.7688332  62.3277397   0.2937088  54.5151024
  53.4120445  24.9811020  72.5307083  54.0902824  25.1543751  71.8778763
  53.5758476  25.6223240  73.2222595  37.4495392  66.5682068  44.7314377
  37.4067039  67.5108337  44.5706482  38.1023979  66.2484436  44.1087379
  31.5946770  48.6673584  76.5442123  32.4042854  48.8728333  77.0117035
  31.6605339  49.1571579  75.7244644  28.0720539  35.2952461   3.6131895
  28.9116859  35.4606094   4.0420284  27.9472103  36.0465088   3.0333197
  36.5161285  65.7841110  67.0884247  36.5646629  66.1880493  67.9548569
  37.4195900  65.5405579  66.8867569  81.4557419  24.0849648  88.4465179
  82.0174637  23.7117481  87.7672501  81.1534653  23.3287735  88.9495468
   2.9107542  53.5667648  29.2940445   3.7735906  53.4163208  29.6801929
   2.9125452  53.0435638  28.4924889  15.2623310  23.7660828   2.7640405
  15.2214308  24.3941841   3.4851842  16.1422615  23.8731289   2.4027979
   0.4636087  50.1861687  39.9640579  -0.3868492  49.7560196  40.0530815
   1.1007413  49.5019226  40.1692543  68.0714569   6.5078201   5.2519593
  67.4321213   7.0864549   5.6674886  67.8468094   6.5313735   4.3217912
  79.5072632  33.3877563  54.1826591  80.1810913  33.0504913  53.5923691
  79.8446045  33.2062111  55.0598526  38.7054482  67.2872925  27.3031731
  39.0051079  67.5075989  28.1851597  39.4302292  66.7928467  26.9204922
  73.3416901  43.7767220   6.9007130  72.4784317  43.8472710   7.3082018
  73.1797791  43.3227997   6.0736861  10.6168327  43.7731476  35.1905556
  10.0338440  44.0012016  34.4664383  10.3687010  42.8789711  35.4253197
  41.1565971  68.7925034  65.1773911  41.5574722  68.7376175  66.0448685
  40.2488251  68.5221176  65.3154984  35.7296066   9.5640850  77.4534302
  35.3554344   9.1467266  76.6775208  35.7029037  10.5007343  77.2579651
  74.5800323  11.8903923  43.9138718  74.1571732  11.1893663  43.4179115
  73.9029007  12.5606270  44.0061073  15.8681316  71.2025299  12.3712559
  15.9930067  71.7153473  11.5727196  15.2288647  71.7020950  12.8792019
   0.6293887  64.4079056  88.4264069   0.9804010  64.4064560  87.5358887
   1.0902050  65.1235199  88.8643265  58.7596130   7.5255203  51.0914650
  59.5904350   7.7586756  51.5057182  58.8895531   7.7260456  50.1645660
  58.6422195  42.8574104  13.3975830  57.7305870  42.8072319  13.1101170
  58.6073723  42.6773453  14.3370476  33.7028732  70.3322983  61.2366943
  33.9795914  70.0643921  62.1129837  34.0201569  69.6357346  60.6619186
  35.3932648  60.2538071  54.9384384  34.8311157  59.6166191  55.3791389
  34.8835258  61.0639877  54.9394112  85.9815369  54.8700600  11.0498095
  85.8873138  54.5430603  11.9444742  86.5968246  54.2641258  10.6368885
  76.7410660   8.5846195  63.8978195  75.9240036   8.2008848  64.2162476
  77.2889328   8.6635437  64.6787491   4.8588948   4.3911681  43.5675507
   4.2740273   5.1329079  43.7224197   5.7013578   4.6717410  43.9249954
  45.6836243  41.7804832  84.0410004  44.8217316  42.1612282  84.2095566
  46.1952515  41.9906845  84.8222122   6.9498153   0.6994855  56.4378929
   6.0534139   0.4158786  56.6175117   7.2049470   0.2072671  55.6575966
  73.5660706  33.9906006  16.8031635  73.1480331  33.3124847  16.2724724
  74.4939346  33.7554398  16.8047504  81.7605743  13.3921099   7.8430529
  81.2229462  13.5080528   7.0596347  81.7614441  12.4470854   7.9952364
  61.8666916  44.4108238  67.2410126  61.1620636  44.4033432  67.8888397
  62.3399277  43.5926781  67.3924026  32.1354370  50.3515434  57.8207130
  31.6036224  50.5032616  57.0394440  32.6402664  51.1578102  57.9270897
  56.5314941  50.3658829  71.8670959  56.4232826  49.9056969  72.6994095
  55.9461861  49.9090691  71.2629776  66.2685852  62.4420509  71.1040878
  66.1447525  63.3785896  70.9498291  67.1609039  62.2660980  70.8057022
  12.8444567   8.2422276  75.3004227  12.6998787   8.5075102  76.2086945
  11.9667263   8.1984539  74.9210739  21.2989578  40.2520599  11.9733095
  21.8080444  39.8200684  12.6592007  21.1048641  41.1191635  12.3292427
  65.4693451  43.2132187   6.0309677  64.9749374  42.5952187   5.4925737
  65.2086334  43.0101433   6.9293098  81.8340530  70.8789673  69.5729675
  82.7076797  70.8008347  69.1897049  81.8660202  70.3294220  70.3560486
  72.8824310  27.6071358  63.7682228  72.2396088  27.9742889  64.3750153
  72.5387650  26.7406712  63.5505943  50.9066124  22.8784199  51.4483643
  50.5655594  22.2268848  52.0610733  51.8575401  22.7832279  51.5022850
   4.9349108   7.1148295  75.5870667   5.3103256   7.6115355  74.8600311
   5.3911691   7.4427247  76.3620148  34.8944702   5.8131995  15.2240639
  34.9454842   4.8581319  15.2624693  35.0423775   6.0240746  14.3021708
  37.7354851  13.5577345  14.2057381  36.9972763  13.7499380  13.6275206
  38.1443520  12.7818184  13.8223133  44.6363602  71.0722504  82.1834946
  44.9753380  71.9638977  82.2627869  43.6871605  71.1811600  82.1252899
  26.6954422  19.0269661   4.3856268  27.2615452  18.9971066   3.6143498
  27.2598267  18.7509956   5.1078062  47.9183807  42.2276840  65.9703827
  48.6582489  42.4155235  66.5479202  48.2199936  41.5028419  65.4227829
  32.0175934  43.7917976  57.1107445  31.3832722  43.5070343  56.4528847
  32.2041054  43.0034752  57.6206360   4.9317489  52.6447105  79.6739120
   4.3372130  52.2518044  80.3129578   5.5002890  51.9245186  79.4012985
  72.8237915  33.2697449  66.1436691  73.0091705  32.3307991  66.1595612
  73.6221161  33.6772118  66.4796524  56.3360138  19.6295719  46.6006851
  56.9077988  18.9760780  46.1978912  55.9999084  20.1402740  45.8641739
  85.4786758  13.3582134  46.7638893  86.1387711  13.1145573  47.4128418
  84.6495972  13.0699825  47.1457062  70.9946289  65.9163742  22.4035606
  70.0974426  66.1155472  22.6711826  70.9166489  65.1201324  21.8780651
  41.2905312  17.3130455  11.5812187  40.6825752  18.0268402  11.7738895
  42.1200752  17.7502689  11.3890705  64.9528351  40.6747093  22.0494843
  64.7623978  39.9922104  21.4059315  64.5553207  40.3570633  22.8602333
  58.6677246  50.1847763   5.4416208  59.1266174  49.3459663   5.3964252
  57.7844543  49.9918175   5.1272411  64.6318665   8.6897268  46.0570717
  64.3768463   7.7863088  45.8698997  64.0527496   8.9592762  46.7699509
  33.8203545  68.0867920  55.6614113  34.0902100  67.7825012  56.5279121
  34.5941315  68.5278397  55.3107338  75.2740707  59.4098129  60.9576912
  74.7596741  58.6224670  61.1357841  76.1349869  59.0802269  60.6999321
  85.5564880  11.3224459  29.9106865  85.0110168  10.7522144  29.3689060
  86.3420486  10.8049297  30.0876312  59.0077591  34.3626938  57.6295776
  59.0372925  35.3049049  57.7957001  59.9240150  34.0866585  57.6522331
  45.7026520  59.7164154  77.1829758  45.4035835  58.9246368  76.7359009
  45.6163597  60.4086494  76.5275421  80.9583054  46.8449211  37.7807732
  80.4344330  47.2212143  38.4880180  81.1146317  47.5762444  37.1833115
   7.8797212  25.7424622  88.5390167   8.6769533  25.2822170  88.2766647
   7.4111691  25.1151237  89.0895920  28.6965084  58.4383621  85.3315887
  28.3498611  57.8494911  86.0018845  27.9225960  58.8661919  84.9651871
  36.0464134  26.6027431  84.6003494  36.3805618  27.2952347  85.1704636
  36.1769562  26.9387226  83.7136078  81.9842148  60.2355881  56.3917847
  81.7757034  59.6340370  55.6770172  81.6510391  61.0829773  56.0965614
  20.3169117  56.3231697  41.2681999  20.0258503  57.1871262  41.5599136
  19.8138695  55.7081184  41.8019524  83.7182846  25.3626633  16.2527237
  84.3740692  25.5530014  15.5819378  84.1898117  25.4522228  17.0808964
  44.3089066  42.2041092  53.6305313  44.1390610  42.7275620  54.4137192
  45.2634239  42.1704102  53.5673294  70.8904419  46.5968094   4.6453590
  70.0133057  46.4523430   4.2904086  71.4772720  46.1953773   4.0044904
  77.0261765  23.4561615  53.5588608  77.3444977  24.2999058  53.2379189
  76.1400757  23.3838177  53.2041435  18.8009987   6.3093486  69.5070496
  19.5434189   6.2190471  70.1044540  18.4646225   7.1897335  69.6743927
  28.5734749  60.5723801  25.0586491  28.8348484  59.6515579  25.0597687
  29.3172150  61.0329361  25.4472027  71.4775391  26.2316322  73.3051224
  72.3921051  26.1137505  73.5618286  71.5070190  26.8867474  72.6078491
  19.9285316  27.5212479  59.5255241  19.4651203  26.8246822  59.0604668
  20.7570343  27.1220131  59.7909012  18.9372959  45.7666397   4.1175785
  19.8735733  45.6210175   4.2532740  18.6827621  46.3616600   4.8228407
  64.5561371  64.8925705  11.6478405  64.1721878  64.6352768  12.4860620
  64.4425735  64.1253738  11.0868196   2.6466918   8.1129942  87.4805908
   2.5747097   9.0567017  87.3375320   2.0164137   7.9275117  88.1767120
  79.0983200  34.9666557  39.7182541  78.7274704  34.1804886  40.1190567
  80.0429840  34.8122520  39.7174530   0.7570610  28.5702095  54.7509499
   0.6328945  29.0282707  53.9196892   1.1630564  27.7382221  54.5076447
  60.4712868  40.6565399  35.0287437  59.9831314  40.0521851  35.5879288
  60.4776115  40.2354469  34.1691666  21.2731838  12.8478374  64.1663437
  21.5837879  13.3542032  63.4157791  20.5745525  13.3825741  64.5434418
  70.5077362  29.9340954  69.5859070  69.9533157  30.0504417  68.8143387
  70.3321228  29.0383854  69.8741684  49.9769974  28.1139565  77.4723816
  50.0703964  28.7232170  78.2047119  49.1624603  28.3773079  77.0441132
  32.8151894  13.3904743   4.3774757  32.2930794  12.9144621   3.7316854
  33.6632042  12.9465265   4.3741126  84.3142548  39.0005913  54.6585426
  84.7295609  39.6283226  55.2499046  84.6179657  38.1460342  54.9646759
  18.4635944  55.2862244  77.7073898  18.4862480  55.0665703  78.6387711
  18.8525352  56.1594315  77.6577148  70.8803635  35.0582085  65.0134964
  70.7558746  34.8947487  64.0786057  71.7511673  34.7093239  65.2037735
  29.0425453  49.0337601  65.4761810  28.3260937  49.4162407  64.9695816
  29.1882305  49.6537285  66.1907730  67.0995026  40.9633331  25.5633450
  66.5988388  41.7738380  25.4703598  67.8304596  41.1976128  26.1352234
  61.1039734  16.6552830   1.7100238  61.2738113  15.7645407   2.0165598
  61.7760925  16.8126125   1.0468972  57.4558487  43.3082771  86.6527863
  58.2817993  43.6786766  86.9639816  57.1814728  43.8939705  85.9471588
  23.4495831  57.7338562  37.2552681  23.9350929  57.0139236  37.6580200
  23.0787868  58.2157974  37.9945107  61.5643387  29.3860836  21.4661674
  61.9345970  29.7628307  22.2644157  60.6174545  29.4695244  21.5787830
  21.2313862  62.3627319  78.8103561  21.6959667  62.8597565  79.4836807
  21.2629166  62.9227524  78.0347214  72.0734482  51.7108345  88.7776871
  72.1315079  50.7933388  88.5111084  71.1692657  51.8176613  89.0731125
  24.3200169   1.4556791  46.4281273  23.3759995   1.2978424  46.4158020
  24.4210300   2.2648957  46.9293251  47.4518929   5.2502947  21.9256630
  48.3697739   5.4825268  21.7849693  47.2390900   5.6226301  22.7814159
   6.8661394  36.6832848  66.9682999   6.8131542  37.6384583  66.9356308
   5.9686046  36.3994102  67.1417313  22.0877247  45.4495430  37.4093552
  22.0200691  45.7910500  36.5177116  21.7143440  44.5696793  37.3578110
  30.7769680  60.2406921   4.1806326  31.0127354  59.9051399   3.3157334
  30.8685856  59.4867287   4.7631927  85.1317215  53.3859787  80.4395523
  84.7273941  52.8045197  79.7956161  85.0146942  54.2638397  80.0763779
  50.2116623  66.9488525  66.7276230  50.6969566  66.4192657  66.0949631
  50.1485558  66.3946457  67.5055084   7.0637207  31.0024986  55.0869255
   6.8029876  31.6029873  55.7852554   7.5306921  31.5537281  54.4589806
  15.8277121  53.4444580  61.8837662  14.8989153  53.2590599  62.0223198
  16.0600090  52.9363976  61.1064949  76.6809235  29.0487499   5.8603759
  76.6298981  28.2050915   6.3096733  76.7916870  28.8220577   4.9370265
  79.4566269  56.1555595  54.5982552  79.4439468  56.2564659  55.5500374
  78.6096420  56.4958076  54.3100243  23.9960308  67.5531082  69.3000565
  23.5729637  68.3099289  69.7056046  23.5081463  66.7995071  69.6321411
  69.2479095  36.5871964  52.1994553  69.6417542  37.3072891  52.6919823
  69.7983704  36.5000534  51.4212265  15.6855021  44.9612656  71.7129822
  16.3819561  44.7369499  71.0958405  15.8471537  44.3996124  72.4710388
  42.5389023  43.1634140  88.5033646  42.3549995  44.0909653  88.6518936
  41.7045097  42.7243729  88.6684875  48.2654266  29.0496330   4.4913301
  49.0928764  28.6251106   4.7179136  47.8612900  28.4614697   3.8533883
  81.3339081  69.6935349  41.1752281  81.9095993  69.9417038  41.8985672
  81.8643570  69.8281631  40.3899117  76.7722397  37.3534927  47.8392029
  77.6831055  37.3067703  47.5487404  76.4096832  38.1053009  47.3706169
  61.9235802  15.1108208  75.7216644  61.7942734  14.5541534  74.9537888
  61.0719337  15.5238781  75.8641968   0.7381509   7.3456345  89.0113602
   0.0246461   7.1241455  88.4129562   0.2992895   7.6100645  89.8198853
  34.1513481  64.2129211  86.3898239  34.9366531  64.6262894  86.0311356
  34.1763840  64.4211502  87.3237686  28.0266914  62.0292282  69.4383698
  27.3796101  62.0953522  68.7361221  27.5096378  61.8552704  70.2248917
  69.8647079  48.0675850  40.8442917  69.6484528  47.3118248  40.2981339
  69.0884933  48.1996956  41.3885994  62.0719185  67.7646713  40.8598900
  61.7777138  67.5055237  41.7331123  61.6431770  67.1454697  40.2691269
  29.5639820  22.0702114   9.1604786  29.6903019  22.8791924   8.6646729
  28.6372547  22.0782871   9.3999481  33.0012741  64.1528854  19.8363724
  33.6491776  63.4633980  19.6912575  33.4649353  64.8125153  20.3522663
  39.6320457  63.8976402  28.8704586  40.0488853  64.6913986  29.2057514
  39.5794106  63.3160744  29.6289062  22.2988873  44.5127449  27.7286701
  21.5673084  44.0080986  27.3731995  21.9023895  45.0702744  28.3981342
  23.7563210  50.8473206  53.5407867  23.3538952  50.9915733  54.3972206
  24.6978359  50.8858490  53.7090111  74.9707336  32.2083626   7.9864187
  75.1367264  31.7398567   8.8044538  74.0414810  32.0610046   7.8103213
   2.9789259  18.2168198   9.1683197   3.0482194  18.4076767   8.2329025
   3.3546798  18.9851952   9.5980177  41.4244308  59.4164276  44.7048416
  41.9059830  59.1815529  43.9116364  41.8062134  60.2503700  44.9787178
  14.3256836  45.4932251  89.4163818  14.5657816  45.8059998  88.5441666
  13.4552679  45.1115227  89.3027496  11.4667673  33.4011574  10.6676512
  10.8242817  32.8734856  10.1933022  11.9061308  32.7792587  11.2476797
  59.5092506  45.3083534  86.6767654  59.3042259  46.1809349  87.0126114
  60.3441200  45.0836716  87.0875397  32.6341629  39.4909897  13.0138254
  33.1447678  38.7587852  13.3593597  32.9449692  40.2521553  13.5039864
  40.1248245  67.8605804  41.3824615  39.9657135  68.3070450  40.5508423
  40.6194344  68.4933548  41.9032211  80.5404434  25.1091423  55.2833138
  81.2256241  24.6399860  55.7593956  79.7232132  24.8045406  55.6777496
  56.0816498  20.3670006  30.1960850  56.7308311  19.8298264  29.7419491
  55.7791367  20.9882240  29.5336647  77.1902161  58.3671951  58.1457481
  77.8620148  58.9317322  57.7633629  77.6079788  57.5084801  58.2114754
  56.5254822   6.5531502  38.2188454  57.2241669   6.8335671  38.8099785
  55.7192421   6.7047496  38.7120247   3.5558190  22.3316784  78.3906479
   3.6169677  22.3839226  77.4368362   4.2522435  22.9070377  78.7071686
  38.5334129  25.2374763   6.1867056  39.3329277  25.7068787   6.4247565
  38.6335106  24.3746338   6.5888443  84.1838303  28.8877201  18.4649563
  84.3533401  27.9597683  18.6274414  83.2398300  28.9843178  18.5904808
  25.8561325  58.7382660  54.4404411  25.3592491  59.5023079  54.7329750
  25.1996193  58.1598854  54.0522423  81.0566711  18.1441975   1.3928407
  80.2455292  18.6072025   1.1833001  80.8484879  17.2205868   1.2520007
  82.6218491  14.7735977  42.8464050  82.5712814  15.4876661  43.4818420
  83.4087906  14.2880754  43.0938416  78.2703857  50.3785744  11.2201309
  78.2029724  50.7670593  12.0923491  77.3949432  50.4770050  10.8457785
  25.4141083  59.9709969   8.8467817  24.4868469  60.2019768   8.9021616
  25.8752041  60.8018684   8.9619884  42.2960625  58.6786079  37.6125679
  42.4412537  59.6199913  37.5179634  41.3713455  58.6012955  37.8474159
  34.7060928  45.4061775  16.1708336  34.0926170  44.6765175  16.2572899
  35.5275002  44.9974365  15.8979712  61.2171440  50.5393677   7.8207817
  60.4238205  50.6385574   8.3471203  61.5813255  49.6970062   8.0928640
  69.9024963  70.6341095  27.3809853  69.8556137  70.7208557  26.4288788
  69.0156631  70.3868332  27.6429157   1.9153626   9.8816271  69.5132980
   1.6029627   8.9769211  69.5253372   1.1469603  10.3971071  69.2682037
  83.8119049   9.5564852  12.6449223  83.5930634  10.4150352  12.2826633
  83.0411682   9.0176649  12.4663992  37.0887794  11.1779661  86.7592239
  37.7348824  11.5011415  87.3871841  37.4314117  10.3294983  86.4782639
  81.5161209  52.0918427  38.2098770  81.0929108  52.9502487  38.2262573
  82.4398117  52.2832642  38.0474548  70.9093933  10.4932137  20.1941299
  71.3146744  10.6587286  19.3429050  70.0155182  10.2220249  19.9851398
  12.8662405  66.4572830  21.5206127  12.1493616  66.0704117  21.0179749
  13.5806799  65.8248062  21.4445801  32.3119164   1.9057126  21.9039249
  31.9279594   2.3470812  21.1462975  33.2096367   2.2354925  21.9436913
  51.6777077  11.2924213  12.3443270  51.5964470  12.2454767  12.3080711
  52.0830383  11.1187468  13.1939020  16.0775604  67.0157471  25.7759857
  15.2586927  66.8818283  25.2987499  16.3368568  66.1384354  26.0576420
  11.7303953  68.9221878  58.8009148  11.9157133  68.4087601  58.0146027
  12.1740770  69.7571487  58.6518517  10.1817217  12.3871117  14.8106966
   9.8938847  12.5354309  15.7114649   9.7401657  11.5794687  14.5480680
  72.1813965  28.2129421  60.3778534  72.3724060  28.9222851  60.9915161
  72.0413208  28.6528568  59.5393524  63.2736206  15.2662344  59.6637573
  63.9176826  14.9056025  60.2731514  63.5054474  16.1920357  59.5904121
  15.0465651  37.4728966  48.5505943  15.1583357  36.6074409  48.1572418
  15.4506521  37.3971100  49.4150047  65.7086029  68.6701126   7.5126333
  66.6314240  68.9103241   7.5959044  65.5237045  68.1540146   8.2972908
  49.8700409  48.6484070  12.5387068  50.3022232  49.0773735  13.2772436
  49.1796074  48.1200638  12.9391937  67.8797150  14.6276798   3.7109959
  68.7065201  14.4266624   4.1494222  67.8989563  15.5766010   3.5868621
   5.3122201  11.6304770   6.3661942   4.5151496  11.1370420   6.5596671
   5.7437963  11.7306414   7.2146878  12.0332966   6.0855455  83.7006912
  12.5109653   5.5339332  83.0811844  11.8975554   5.5253611  84.4648895
  44.3086472  23.3379116  86.3510666  44.3117752  22.3813076  86.3847275
  43.4627419  23.5878887  86.7228012  60.8844185  14.2663145  82.7259598
  61.5743065  14.1594639  82.0710831  60.3040009  13.5180178  82.5866852
  66.7625351  38.7985344  23.9917717  66.5332870  38.4748154  24.8629093
  67.0882645  39.6856461  24.1439724  69.8056183  35.3971062  82.0085754
  69.5131073  36.0933304  82.5967407  69.6717529  34.5907631  82.5066986
  21.7972450  69.2377625   4.9111805  22.0805607  69.8468933   5.5930371
  20.8413868  69.2513123   4.9600124   4.1989417  51.0318718   0.6779884
   4.9481468  51.5759697   0.4353406   3.9802055  51.3085442   1.5678412
  78.0073395  54.0989952  18.9442329  77.7120514  54.4018135  18.0855484
  78.4998169  53.2991905  18.7598190  24.7560406   7.2787843  59.7007751
  25.2231579   6.4517283  59.5824013  25.0307159   7.8173375  58.9586525
   6.6974869  39.4459648  53.9953156   6.1442900  39.9796600  54.5657310
   6.1286230  38.7305374  53.7110748  25.3655357  51.7409706  36.7211761
  25.1915417  50.8716927  37.0821686  26.0145760  52.1207390  37.3134193
  25.9361591  59.0420876  27.1693821  26.7830296  59.1845055  26.7465858
  25.6757603  59.9085426  27.4819164   0.2174307  13.4078455  25.9078846
   1.0560093  13.7734871  25.6262398   0.0827788  13.7656136  26.7854385
  68.7035446  67.4480820  21.7352467  68.3769455  67.0425110  20.9320831
  69.5710449  67.7781372  21.5012627  63.2039871  56.7710915  40.9880219
  63.1719360  56.2774277  41.8074722  63.8159752  57.4860229  41.1628876
  10.4387712  13.5730925  84.2784271  10.1585598  14.0648623  85.0503540
  11.3656788  13.7905025  84.1793976  71.2296753  63.0688362  29.7331829
  71.4475327  62.1523857  29.9031467  70.2793884  63.1127739  29.8392735
  64.8913193  36.3512154  40.9342728  64.2428284  35.6533661  41.0275230
  65.3751373  36.1240349  40.1402054  84.3908920  55.1086159  38.5951996
  84.6282043  54.3378563  38.0795975  83.8732071  54.7608986  39.3213692
  51.1367645  31.9097443   4.9260511  51.2520905  32.8599625   4.9301386
  50.2119827  31.7816181   4.7148767  14.8027668  19.8350086   9.7666445
  15.5519934  20.1761875   9.2782917  15.1918430  19.3557625  10.4982004
  55.5014763  60.0029564  33.7328682  55.5111771  59.0563393  33.8744774
  56.3024063  60.1795197  33.2393379  77.7402344  37.5914841  33.3620415
  78.6412735  37.8329124  33.5766869  77.6913986  37.6710892  32.4094086
  11.8955011  42.4054947  70.1589432  11.1223974  41.8679123  69.9870529
  12.3294697  41.9727592  70.8942261  17.3581276  54.3287849  15.6908216
  17.2594337  55.1666641  16.1429825  17.2509823  53.6715050  16.3783779
   9.8440619  43.2895203  66.8568115  10.5055304  43.3168564  66.1654816
   9.0093851  43.3503647  66.3922195  58.2260513  28.8041401  53.9739723
  59.0980072  29.1987171  53.9587479  57.9230003  28.8578320  53.0676003
  73.9942398   6.8226962  31.9252605  73.7477341   5.8978148  31.9329872
  74.5343094   6.9331689  32.7077942  48.5756950  55.4703903  29.4089737
  47.9421616  55.3772316  30.1204433  49.4225121  55.5394745  29.8498363
   3.3309088  54.5323067  60.4607773   2.7021050  53.8109856  60.4375992
   3.5481844  54.6902542  59.5420418  35.5370522  54.8743286  78.5841599
  35.8689766  55.7709160  78.6309280  35.4563713  54.6973763  77.6469269
   2.4078045  48.1063728  83.4289398   2.3915961  47.2282333  83.0483627
   2.5675893  47.9603996  84.3613510  54.2266922  70.0320129  84.8776779
  54.4766808  70.0410767  85.8016129  53.9612198  69.1277313  84.7102432
  27.8154488   1.0713197  68.8379974  28.2258072   1.3534245  69.6554642
  27.3608532   0.2602965  69.0656281  18.5943489  43.7570038  33.5098801
  18.6625462  43.8665810  32.5614243  19.3086433  43.1605415  33.7340508
  64.2249908  54.0495682  48.8632126  63.8497162  54.6903114  48.2591820
  63.9831314  53.2007904  48.4926529  34.9396095  66.5425262  24.9019165
  35.0718575  65.8606262  25.5605183  35.6944122  67.1224747  25.0027142
  60.8997345   4.1473408  79.6330566  61.7059250   4.4129000  79.1906052
  60.2513390   4.7960038  79.3591080  30.4277859  67.1020050  36.5801544
  30.5977116  67.4645844  37.4495773  31.1094856  66.4411011  36.4588470
   6.9235229  24.9672718  28.0739059   7.5414286  25.4066200  28.6581993
   6.8104801  24.0967865  28.4556236  49.9242325   5.7369442  16.8549538
  49.0146484   5.8620491  16.5843372  50.0045128   6.2404289  17.6650696
  43.3313370  44.6697121  71.3664398  43.3351631  44.2733917  70.4951477
  43.3481026  43.9254799  71.9681625  42.7501640  70.1621933  75.6721268
  43.4995956  70.2551575  76.2602997  42.0738373  70.7203522  76.0558853
  65.3910522  26.2202663  12.1890202  65.1516342  26.0810604  13.1052799
  66.2220383  25.7566147  12.0855007  80.4479523  52.1187134  76.3991547
  80.8756638  52.5465088  75.6573410  80.9584503  51.3218918  76.5430298
   3.3106310   7.0079675  63.4867134   3.8269877   7.4360900  64.1695862
   3.9139833   6.3809958  63.0878334  66.2239151  64.8768768  32.1375656
  66.2216034  64.9191513  31.1813030  66.0153580  65.7682419  32.4172173
  67.8268051  55.2994728  61.6191368  67.6094742  55.8390732  60.8589821
  66.9805222  54.9940491  61.9458771  72.5494385  57.6805077  52.6123848
  71.9541092  58.3231735  52.2266502  72.3122711  57.6605453  53.5395203
  33.6312523  65.4223175  34.2070694  32.9458847  65.9746780  33.8310318
  34.3719673  66.0145798  34.3366776  39.2632751  60.4950256  40.8022461
  40.2186737  60.5527916  40.8126106  39.0733223  59.7760239  40.1995964
  57.7545700  35.9117775  34.1338806  57.3856812  36.6371880  34.6377983
  57.7117767  35.1618385  34.7271652  54.3353844   5.0714931  81.4569321
  54.6887169   5.9425836  81.6374588  55.0965576   4.5540342  81.1940842
  59.3392258  32.8512650  48.7257309  59.0647507  32.8035088  47.8099747
  58.5563736  33.1384163  49.1957512  63.7588081  63.8123207  79.9913101
  63.3213882  62.9615898  80.0252838  63.0440292  64.4477463  79.9518967
   4.3303638   1.2644174  58.4917908   3.4657731   1.6156592  58.7047310
   4.7971787   2.0005531  58.0962906  73.7777405   2.7306340  72.8708344
  73.4926529   3.0906069  73.7107086  73.5110321   3.3861837  72.2263565
  27.0897903  23.3600216  10.7786388  27.3127003  22.4923954  11.1159344
  26.1765270  23.4891300  11.0345945   2.5855968  62.1670265  25.3230705
   3.1754642  62.5445671  25.9755669   3.1668315  61.8296738  24.6414623
  46.1378937  54.5099373  33.5493279  46.3893013  53.6237869  33.2890091
  46.8629875  54.8139992  34.0952377  32.6968117  26.8223648  84.1952591
  32.1379356  27.5622616  84.4328308  33.4054565  26.8412609  84.8384552
  17.2068653  48.3930244  38.2942734  17.7675304  47.9922600  37.6299858
  17.7137966  48.3322182  39.1039352  25.0974655  32.2284317  30.9115601
  25.8803577  31.6838074  30.8297176  24.5563946  31.9844437  30.1605968
  38.7538719  25.8817520  18.1755199  37.8092918  26.0019245  18.0777607
  38.9192657  26.0312729  19.1063900  12.6725464  46.5855179  11.6667204
  11.8749638  46.6322098  12.1938963  13.0614691  45.7412186  11.8950291
  81.4941406  28.1999054  19.0874825  80.7015305  28.6798973  18.8474693
  81.6627045  28.4542866  19.9947357  44.7561073  30.3369789  63.5392952
  44.8354836  30.1617737  64.4769669  43.8854790  30.7223053  63.4404945
  65.5655975  43.9757690  47.0973701  65.9366913  43.2477112  46.5989189
  65.3876419  43.6074753  47.9627724  54.7540932  16.1708851  50.3664207
  55.3544426  16.5497475  49.7243309  55.0007057  16.5804176  51.1956978
  38.4796944  22.3702049  11.1055841  39.3846779  22.0824223  10.9855108
  38.5242233  23.0106468  11.8155727   8.4284992  26.7936554  71.0429382
   9.0473614  27.1611767  71.6739426   8.8774920  26.8606606  70.2002335
  12.1886415  37.9497986  64.2035446  12.1582441  38.7864571  63.7395248
  11.6501122  38.0883179  64.9826660   6.1837053  68.9173737  28.7086067
   6.2830496  69.1898880  29.6208019   5.8628139  68.0170975  28.7611809
  43.9327126  42.7148438  58.9484406  43.9832649  42.4952354  58.0181465
  43.5901604  41.9230804  59.3631706  54.2946968  12.2794151  51.9777679
  54.7182541  12.4492779  52.8191795  53.4657211  11.8595104  52.2073631
  68.1737671  54.9016380  68.3105164  67.4514008  54.4571075  67.8668823
  68.4624634  54.2807312  68.9793625   6.8314695  39.0634422  49.6993179
   6.2129383  39.1843567  50.4197578   7.0154343  38.1240921  49.6966934
   1.9637394  54.9227448  37.3399353   1.3584427  55.6223145  37.5858040
   2.2695887  54.5664978  38.1740646  10.2872877   9.6661339   3.8192770
  10.6535559   9.2773876   4.6136045   9.6386957   9.0297670   3.5182838
  59.5740509  36.1075516   7.9444170  59.9793472  36.8585243   7.5108204
  58.8939095  35.8181763   7.3362203  73.2361908  45.5711403  74.6518173
  72.4569778  46.1106720  74.7858887  72.9151535  44.7978363  74.1879578
  76.7626343  31.9822464   2.4978108  76.4743881  31.0838966   2.3362119
  77.7148438  31.9186153   2.5717673  20.0886364  65.0856094  16.9036350
  19.6273346  65.8329163  16.5228958  19.5119820  64.3393860  16.7397766
  42.8315125  11.6500635  84.9500046  41.9225922  11.7289257  85.2396164
  43.3077965  11.3665018  85.7303772   0.7779697  45.1761513  40.6994820
   1.3751727  45.4958229  40.0231781   0.4155338  44.3680191  40.3364449
   5.7850680  11.4153996  25.9619102   5.6606822  11.9644985  26.7360229
   5.8823743  12.0369549  25.2404995  65.2175903   7.0247502  12.6089592
  65.3733826   7.8743963  13.0213442  64.4316177   6.6896172  13.0404339
  58.6537819  62.3818703  67.5363617  58.4201355  62.9131393  68.2975388
  57.8317108  62.2741966  67.0579834  53.9017677  11.2830896  33.3094444
  53.6983871  11.3102083  34.2443924  54.3882332  10.4668837  33.1937256
  51.1339149  10.1495085   3.5438683  51.5606155  10.5892076   4.2792749
  51.8000679   9.5530624   3.2022183  33.4848175  59.0286865  56.5101662
  34.1301231  58.5596504  57.0391426  33.2998428  59.8248253  57.0083466
   2.1803610  29.3557129  69.8697433   1.7643598  28.5000515  69.9747162
   1.6721255  29.9397888  70.4325790  -0.2486310   4.1325245  44.1713943
   0.4030828   4.2157979  44.8675003   0.0638951   3.4026387  43.6367645
  62.8506966  41.3016396  62.8747711  62.4821739  40.4212379  62.8018608
  62.4197540  41.7999382  62.1803513  25.5177479   0.1580222  21.6528149
  26.1054325   0.2181947  20.8996620  26.0965633  -0.0166056  22.3949127
  30.7459106  58.1723289  24.7740440  31.4326057  58.5844879  24.2498245
  30.8660126  58.5332031  25.6524391  85.8840561  37.9874649   7.4272289
  85.9329681  37.2166405   7.9926181  84.9696121  38.2654152   7.4797926
  41.8833466  47.6009521  57.8085175  40.9864922  47.8893242  57.6390190
  42.0478134  46.9287453  57.1472168  57.1825218  45.7949982  88.7548828
  57.4919739  46.3329849  88.0261612  56.6194801  45.1380730  88.3454132
  70.1512146  20.2470531  22.9599991  69.9752502  19.3382778  23.2037163
  69.6925964  20.7654457  23.6211872  51.9191475  57.0756149  66.8973999
  52.5186958  57.7965431  66.7049561  51.8516312  56.5937157  66.0731201
  13.3956318  69.6522369  44.5510597  13.1312761  69.6945724  43.6320648
  13.9772396  68.8934708  44.5982742  84.5125122  22.3838425  22.8820515
  83.6871796  22.4556503  22.4025612  84.2548447  22.1123409  23.7630329
  64.0919113  66.3022614   5.5690346  64.7136078  66.4102325   4.8492680
  63.7337761  67.1787262   5.7096958  52.1526375  52.3178825  82.4071960
  51.2539291  52.3388596  82.0783844  52.0683594  52.0309143  83.3164673
  35.2371407  56.4686584  44.2322350  34.9553070  55.5548210  44.2734833
  35.0046577  56.7513084  43.3477592  35.3114586  44.6106873  26.3745728
  34.5412827  44.3123131  25.8907986  36.0336266  44.0936737  26.0176411
  48.6477165  70.6849136  84.6116791  49.5077705  70.7484436  85.0270081
  48.8364296  70.6528168  83.6738129  51.0556831  15.8880444  53.2916832
  50.1032829  15.9096966  53.1984329  51.2780609  16.7360649  53.6759262
  81.9197235  34.0012741  70.6384277  81.3486481  33.2340431  70.6765976
  82.1265335  34.1916695  71.5534210  81.6940079  21.5344105  37.4095039
  81.0552750  22.0116863  36.8799210  81.6307068  21.9326229  38.2776337
  28.1933079   0.7068186  86.8892899  27.8225708   1.1326723  86.1163559
  28.9666176   1.2290109  87.1026917  86.0758820   2.0320573  57.8451233
  86.2058029   1.4430577  57.1018639  86.4107971   1.5450591  58.5980453
   9.1374550  69.5382309  66.7726517   8.9099855  69.7008972  67.6880875
   9.9892578  69.1032791  66.8111572  45.9594040  23.5650959  17.7117805
  45.3945007  23.4976788  16.9419956  46.1253548  22.6576786  17.9672947
  64.4605331  47.7242012  23.6016293  63.8821220  48.4343262  23.3234386
  63.9838181  46.9251022  23.3771057  19.9175568  59.7145653  45.8430176
  20.4231339  59.2643318  45.1663246  19.1666870  59.1424484  46.0014725
  53.5368156  33.9273262  85.7943802  53.2636719  33.0457191  86.0481339
  52.7868195  34.4817276  86.0097504  75.9536743  49.4347153  74.6639175
  75.7219849  48.9553261  73.8684692  76.6588058  50.0224152  74.3925705
  81.4916382  30.9596443  87.5701370  81.1028748  30.7502460  88.4194031
  82.4293823  30.8121223  87.6930771  11.0126953  18.8789406  29.5745010
  11.7791672  18.6131039  29.0664806  10.3314791  19.0296154  28.9191589
  65.3773880  18.3922520  66.3968353  65.6166534  17.5238934  66.0728989
  64.6534271  18.2310638  67.0019226  69.5560532  59.7601395  26.8515320
  70.3087387  60.3082466  26.6295681  69.9401169  58.9550934  27.1988449
  83.2147293  44.6734505  42.7316971  82.5754395  44.0579414  43.0904274
  83.5920105  44.2160912  41.9802246  54.1179695  18.7202053  58.2210236
  53.3191452  18.3697033  58.6150513  54.1859741  19.6096230  58.5682220
   2.0513587   2.8941972   2.2758336   2.8310132   2.9631791   1.7248236
   1.8674697   3.7943561   2.5444047  46.3201256  40.2671814  51.9753113
  47.1418915  39.8443451  51.7260246  46.4869766  41.2024727  51.8585739
  10.0552473  57.0389099  45.8387756  10.9341354  57.3636360  45.6429634
   9.9363689  57.2172012  46.7716827  63.8890915  45.0410004  71.8099594
  64.3233109  45.6687202  72.3875809  64.0019989  45.4054718  70.9320908
  81.3915482  15.2974739   3.0175555  81.5686493  15.4795399   2.0946689
  80.4438858  15.4004917   3.1044414  84.4981918  53.2549934   7.4214416
  84.3813095  53.2898254   6.4720435  83.6562576  52.9451904   7.7552090
  56.2683678  60.4554100  43.6333046  56.1540871  60.3108139  44.5725937
  56.9258614  59.8114738  43.3700905  61.4511299  26.7552338  25.4536324
  60.9014168  26.8405743  24.6746807  60.8910942  27.0427799  26.1746769
   9.4781952  23.9238529  70.0650558   8.5243788  23.8570747  70.0202713
   9.6881294  24.7033653  69.5507431  49.9211922  48.3031044  65.9967651
  49.3167992  48.5407562  65.2935867  49.8860092  47.3471260  66.0299530
  42.3519974   6.8851504   2.4071486  42.4098854   5.9297071   2.4100738
  42.2721863   7.1174345   1.4819964  17.2157784  65.3213577  45.3149719
  16.5273838  65.1523972  44.6717033  17.3969688  64.4650269  45.7023964
  47.8026161  63.9228935  61.5057526  48.2371712  64.3151932  62.2630463
  48.1825256  64.3735580  60.7515602  22.4850826  60.8069878  67.0790863
  23.2930183  60.3173714  67.2331924  21.8560772  60.1461372  66.7894974
   6.7648516  51.5476952  75.9973145   6.7960663  51.4624062  75.0444336
   6.0114317  52.1145363  76.1624908  10.6284752   0.5188864  64.6704865
  11.1789722   1.2604001  64.4188080  10.5215445   0.6104434  65.6172791
  26.9564705  71.2577972  58.4290810  26.8717480  72.1273117  58.8202438
  27.7217693  71.3255463  57.8581505  79.0072174  69.2136841  49.5233879
  78.2447510  69.5591125  49.9876671  78.7702637  68.3106079  49.3123550
  82.0097733  31.9425392  39.8880653  81.4336624  32.5110550  40.3990631
  82.8467026  32.4065628  39.8667336  32.6988258   8.8560925  35.3829613
  32.3351593   9.3088942  34.6220741  33.5300331   8.4965496  35.0730324
  75.1797256  67.4453659  54.6572990  76.0101547  67.2706680  54.2144775
  74.6931610  67.9971237  54.0448837  51.5685768  38.3977318  53.8377075
  51.9576607  38.1583405  52.9965553  52.1482620  39.0753822  54.1855431
  40.8518257  70.3415756   8.7936478  41.4781761  70.6395111   9.4533081
  40.3561058  71.1269760   8.5620632  48.4336433  42.5054474  38.3561058
  48.7977486  43.3211250  38.7000923  48.4635201  41.8989906  39.0960732
  85.6120529  25.6043663  59.5981140  85.7802353  26.4844055  59.9349785
  84.7858734  25.3454838  60.0063286  27.5094280  65.7632828   3.8619564
  28.0172157  65.1758652   4.4217129  27.4577618  65.3080444   3.0215256
   2.2913580  41.4038963  23.3162155   2.3724599  41.6569061  22.3966274
   1.3987663  41.0670891  23.3941345   0.7741095  16.5370045   1.9568530
  -0.0708144  16.1321030   1.7609205   0.8208501  17.2904625   1.3683405
  37.6720886  53.7162247  45.0334129  37.3200912  54.3661804  44.4252281
  37.6847076  54.1625824  45.8800774  12.9055538  69.2269363  33.2454720
  13.4823256  69.8271332  32.7728920  13.4281778  68.9289398  33.9899826
  45.3159828  57.8583069  84.5244598  44.9916954  58.3905029  85.2509842
  44.9375420  58.2626877  83.7437592  71.8051453  23.8575077   6.9775491
  72.2964325  24.4191952   7.5770273  71.4368286  24.4605885   6.3318977
  82.0631409  13.2649088  46.8060532  82.4074860  13.3879395  47.6906548
  81.1209869  13.1496143  46.9296684  63.8627319  20.8804836  75.6275482
  64.2928619  20.7997513  76.4788437  62.9272499  20.8503075  75.8280487
  60.1069603  68.0901413  52.6860771  60.7997665  68.3787766  53.2801666
  60.3594398  68.4446030  51.8335266   5.3054795  39.3203354  73.2421188
   4.6861844  39.9635849  73.5869904   5.7357831  39.7685776  72.5140076
  55.6630592   7.4085455  67.7119141  54.8687248   6.8808641  67.6293488
  56.0543098   7.1247792  68.5381317   5.2908382   0.5854854   8.5977201
   5.0179663  -0.1821414   8.0952044   5.5094194   1.2404341   7.9347749
  61.4065666  66.6600494  33.4898682  61.8091164  66.9831924  32.6837921
  60.5049171  66.9791412  33.4519272  65.4917755  30.2661552  73.9702530
  65.7083511  30.7015152  73.1457596  65.1499786  30.9652233  74.5276642
  40.6837463  55.4587517  48.8060646  40.1665840  55.3648911  49.6060410
  40.0458336  55.3753510  48.0973015  13.1050215  29.7309303  54.5668564
  12.4620514  30.2015591  54.0364494  12.7199907  29.7049942  55.4428177
  80.5633316  33.8077393  33.2451553  81.0467682  34.5124855  33.6762581
  80.8756714  33.0086021  33.6694756  77.5715179  48.5781288  72.4969559
  77.4936981  47.6240997  72.4942169  76.7198257  48.8887939  72.1898193
  21.6558418   2.2989156   5.5342941  21.3594933   3.0350013   4.9989552
  21.8426075   1.6037631   4.9033318  78.7549667  11.9703884  30.5151653
  78.6053467  12.8980827  30.6974545  78.1153793  11.5128689  31.0609112
   4.1700759   8.4785910  22.8250866   3.8671432   7.9987154  23.5959206
   5.0237660   8.8280277  23.0807018  50.1886063  62.2864494  62.6957932
  49.3833733  62.7629433  62.4938354  50.8737373  62.7655563  62.2296562
  42.2492561  38.7659492  71.8195801  41.3202591  38.5606689  71.7144470
  42.4642944  38.4586143  72.7002182  86.9742813  22.3149185  88.4229965
  86.6499252  21.9584007  87.5960007  86.5170441  21.8114929  89.0965805
  54.0944672  42.2049866  44.7881508  54.6504936  41.6518211  45.3368530
  53.8062439  41.6280823  44.0808029  68.6795578   6.3758297  85.6566391
  68.3950729   6.4776564  84.7483826  68.7125626   5.4289041  85.7925568
  60.0050583  10.9838657  87.8475342  60.0188866  11.4921503  87.0365524
  59.0977669  11.0368261  88.1479492  23.5144081  26.8762493  28.7149086
  22.6444473  27.2273026  28.5247440  24.0562954  27.1691875  27.9822578
  74.4018555  25.9114265  41.7474747  74.8212891  25.6610413  42.5706482
  73.5891724  25.4060154  41.7293243  67.6052551  58.2533684  62.9723358
  66.7542343  58.6644554  62.8206902  67.4529953  57.3218231  62.8133736
  49.4698906  52.2072525  73.1848450  49.8838272  51.3479614  73.2654724
  48.6768684  52.0441284  72.6742172  26.4074078  22.9935589  76.3599701
  25.7584515  23.4783611  75.8500137  26.5079308  22.1640491  75.8930206
  13.2784882  15.3213415   3.4693255  13.4618807  16.0664177   2.8970840
  12.3872290  15.0574532   3.2407391  69.0120087  40.6495705  11.2536297
  69.7528915  40.6426430  11.8596668  68.2917709  40.2626572  11.7514057
  26.9889240   0.2602353  19.2261181  26.9374332  -0.6940045  19.2809525
  26.3241577   0.4992441  18.5802116  76.1569366  67.8326187  46.4373932
  76.2629471  68.6283035  46.9588203  75.2676163  67.5361633  46.6309090
  59.3817139  56.4875793  88.6176682  60.0850639  57.1167030  88.4572449
  59.8335991  55.6600838  88.7828445  56.5033875  15.2943373   0.5923914
  56.0636101  15.7508135   1.3096489  56.7990990  14.4699888   0.9786997
  84.1030807   6.6101403  34.1675301  84.9354019   7.0646944  34.2973328
  83.4448166   7.3047023  34.1899719  31.6740742  45.3205681  63.2607880
  31.6583824  46.0563965  63.8727875  32.0124893  44.5880089  63.7756348
  66.6049118  12.1382313  67.4233704  66.0864258  12.7698774  67.9217987
  67.4483719  12.1111517  67.8751221  36.0868340  36.1268425   1.9995784
  36.3180504  35.1980171   1.9920689  36.9281731  36.5829620   2.0176849
  50.4351654  17.3419800  10.0643587  50.9389877  17.4384880   9.2562237
  51.0117569  16.8497696  10.6487398  25.8856888  55.3780899  85.4263458
  26.4065018  55.9966583  85.9385605  24.9972534  55.4706154  85.7703781
  67.4713058  62.6994934  85.8949814  67.4642715  62.6842728  84.9379272
  68.3986588  62.6573753  86.1283875  67.8776855  46.6650848  49.9976959
  68.4643097  46.4408607  49.2753181  67.0287018  46.3085213  49.7363052
  64.4067078  55.2098732  34.1992760  64.3933182  55.6706696  33.3603935
  65.3232651  54.9628105  34.3222275  75.5139542  47.5330734  87.8136520
  74.9095612  47.9026299  87.1699295  76.2798615  48.1061974  87.7797165
  20.6707344  51.6321869  18.0332336  20.6523266  52.5822487  17.9180069
  20.6149406  51.5046539  18.9802570  66.3987732  39.4016228  67.7245483
  67.2396698  39.7670250  67.4495773  66.2793427  39.7218704  68.6186447
  59.9666100  22.3480225  60.5162010  60.0297089  22.0711689  59.6020889
  60.2891388  23.2492466  60.5163155  62.7600212  30.9049435  71.9103699
  62.6317673  30.5439739  72.7875748  63.7066116  30.8693810  71.7727814
  50.1395073  28.6872959  88.1166153  50.3903732  27.7649860  88.1679993
  49.4945717  28.7993622  88.8149872  78.1965103  15.5531864  78.9920120
  78.7632141  16.2914848  79.2156219  77.6110992  15.4642344  79.7440872
  36.3041382  39.9460564  65.5857391  36.1965828  40.8971252  65.5974197
  35.5406189  39.6245461  65.1062622  18.9017906  56.8393555  37.7484474
  18.3225517  56.4992371  38.4303818  19.3387852  57.5869598  38.1563110
   9.5665636  53.9488373  87.1201477  10.4743929  53.7223473  86.9182053
   9.4959469  53.8331604  88.0677032  36.3323364  39.4321671  21.7118988
  36.1917572  39.5142670  22.6551533  35.4520569  39.3517036  21.3446560
  33.2502861  44.7210197   7.6866107  32.9535255  45.5588913   7.3314528
  32.8064232  44.6483459   8.5315580  28.3775349  70.3786163  44.0258675
  28.6272507  70.7791138  44.8586197  28.7951412  70.9269257  43.3616371
  40.4451180   0.4729904  44.3549805  40.1997299  -0.1249741  45.0609970
  39.6132812   0.7225239  43.9524803  12.9716005  17.2618065  88.1136551
  12.6454792  16.3807392  87.9303589  13.1446676  17.6375313  87.2504578
  57.5862312  67.4258347  13.0722351  56.9667664  67.4042969  12.3428316
  58.4449959  67.4952087  12.6551685  31.6339607  54.0664139  63.4803963
  31.4840527  53.1474953  63.7025414  30.9553547  54.5423470  63.9591560
   5.8178968  24.3837910  52.8233948   6.6469188  24.8110905  53.0387306
   6.0687509  23.5068226  52.5331726   7.2419872  28.7337112  11.3605013
   7.3795681  29.6533985  11.1336098   6.2988563  28.6617393  11.5073195
  17.2849178   9.3120031  26.3726215  17.2080383  10.2533159  26.2168903
  18.2094860   9.1784983  26.5813789  73.6021729  59.3730469  48.3927574
  73.4809570  58.4356766  48.5439987  73.6230774  59.7563972  49.2695923
  34.5224571  46.7826996  61.7208786  33.8158302  47.1902161  61.2200394
  34.0744972  46.2243652  62.3563499  56.0152969  32.4251633  25.3262196
  56.0645180  31.6418037  25.8740845  56.3880920  33.1204033  25.8683453
   5.1426163  32.5864525  71.8275757   4.9805579  32.5440254  72.7700043
   4.9268389  31.7104435  71.5077667  43.6525955  31.5852242  75.0492859
  44.1454430  31.6942425  75.8625793  44.2984009  31.2664585  74.4187698
  57.3107948  22.7350941  67.4231567  56.7123680  23.0431824  66.7425613
  58.0190392  23.3789806  67.4287415   8.4947233  40.2428055  11.8363543
   8.4640360  41.1416893  11.5087891   9.1330767  39.8044968  11.2736635
  67.6279297  53.5342827   3.8507104  66.7416992  53.8198853   3.6287737
  68.1482391  54.3376465   3.8398414  12.2160273  40.9927406  29.4690228
  12.0685759  41.1944771  28.5450134  12.8977385  40.3208427  29.4616585
  62.3346748  12.2094784  88.5465775  62.2594986  12.7453585  87.7570114
  61.4421883  11.9089003  88.7179108  32.2799416   0.5763097  15.6543980
  31.8164310   1.3576241  15.9559603  31.5991821   0.0314203  15.2595606
  16.2246361  24.7075520   9.0261955  15.7867050  25.4795570   8.6677876
  15.6483459  23.9779739   8.7985153  66.5947876  48.3052177  32.5591888
  66.9378510  49.1162796  32.9343071  65.9709244  48.5944023  31.8933105
  81.9592285   8.6972675  26.0017929  82.6701965   9.0397081  26.5435410
  81.4742432   9.4743128  25.7239132  15.2260704   4.1021771  53.3855286
  16.1026058   3.7358007  53.2685432  15.3222628   4.7291746  54.1023636
  31.2540512  43.6546440  88.0513153  31.5198498  43.3673630  88.9248428
  32.0235710  44.1047058  87.7027283  67.2175293  66.5882339  56.2117462
  67.4815369  65.7922058  55.7503586  66.5142288  66.3044815  56.7957649
  11.9946899   8.7054033  32.1483650  12.7031498   8.8620157  32.7726974
  11.2192011   8.5744638  32.6939888  47.3891373  58.6948318   4.4959335
  47.0813675  57.8017006   4.3415875  48.2273560  58.7421341   4.0361729
  60.2306557  12.5554752  40.6692924  59.8403664  12.5541697  39.7952728
  61.1451950  12.7971449  40.5228539  41.3757629  56.1607323  44.4110909
  41.4544601  56.9370880  44.9654427  40.4625359  56.1627769  44.1243057
  77.4975052  43.7354813  65.8791122  76.9943695  44.3826141  65.3848495
  77.0776367  43.7115021  66.7389755  43.6582756  13.0127392  58.5537910
  44.4637566  13.5298347  58.5607033  43.3534050  13.0563898  57.6474915
  75.5295258  35.7355270  45.5582695  75.5182571  36.0604095  44.6579590
  75.5876007  36.5246315  46.0969467  73.3656235   0.4020078  77.7255859
  72.6860886  -0.1671254  78.0869064  74.0762558  -0.1939608  77.4888229
  56.6948700   1.1643039  75.1615601  57.3549156   0.9997939  74.4881287
  57.1747475   1.6000347  75.8658981  14.6659031  36.5909653  63.7135468
  13.7876186  36.8674355  63.9751053  14.7997942  36.9971886  62.8572273
  42.2833023  47.2290115  71.2651062  42.5630455  46.3141975  71.2320480
  43.0646706  47.7272224  71.0253525  42.9589996  49.6398430  64.0095215
  42.1544342  49.4593468  64.4956589  43.4891586  48.8509102  64.1224365
   9.2495365  61.0823860   4.3843017   9.7875595  60.5269737   4.9484630
   8.8749180  60.4797363   3.7418811   7.9916716  34.2556992  19.4537907
   8.3620844  35.0331154  19.8717041   7.7086797  33.7037315  20.1828175
  58.7937889  50.4399757  87.1270142  59.6806412  50.7230530  87.3497086
  58.2266235  51.1178322  87.4945297  74.8896179  52.3878479  78.6913910
  75.6715164  52.1879807  78.1766815  74.5011520  51.5332718  78.8785248
  43.7593460  24.4036293  60.4391479  43.3316193  24.7296581  61.2309685
  43.1316109  24.5792770  59.7381973   9.4201984  37.3662453   0.2429399
  10.1018209  36.7998848   0.6046811   8.8094664  36.7643318  -0.1824267
  47.3429337  20.9006023  87.0321274  46.7233620  20.6177883  86.3595352
  48.1224747  20.3665199  86.8794785  61.3687592  66.2439270  56.3829231
  60.4941292  66.5508652  56.1440773  61.9631729  66.8747482  55.9767609
  14.9529476  55.7528191  68.6752472  15.1731653  54.9795189  69.1946106
  14.3374348  56.2411804  69.2219467  34.3519440  43.2542839  37.3201904
  34.2933311  42.5466461  36.6782799  35.2911568  43.4090576  37.4209671
  36.7722473  64.4785767  35.9393501  37.5388756  63.9713821  35.6723900
  36.5661163  64.1570511  36.8170547  26.6902790  36.3274193  66.0588531
  26.4587727  36.6361504  66.9348221  25.8567944  36.0612564  65.6706619
  73.5547638  24.1463776  38.4716110  73.0391159  24.8997478  38.7593155
  74.4645691  24.4239883  38.5784340  52.1686134   3.7014298  35.3763809
  52.8572083   3.2570438  35.8709412  51.4953728   3.0329351  35.2495193
  86.5340500  16.8932915  11.5670977  86.9157791  16.0676899  11.2689419
  86.6787415  16.8961754  12.5132942  22.5539227  68.7370377   8.4767637
  21.6867752  68.9221115   8.1161623  22.3965645  68.0775986   9.1524916
  29.8128147  61.1873169  86.3686752  29.4468327  60.8977547  85.5329437
  30.7605972  61.1285400  86.2483063  18.2892475   8.7754517  70.6394958
  17.7828808   9.4437943  70.1778183  19.1779137   9.1294632  70.6738739
  74.5919113  20.1697807  34.1334229  74.6982727  20.5814877  34.9909859
  75.4630051  20.2100525  33.7387085  19.9405346  61.3923073  11.5068216
  20.3588734  61.0059052  10.7374611  20.1222687  62.3292007  11.4330826
  79.3175430  21.9849243  72.6758347  78.7948303  22.6624241  73.1047897
  80.1550293  21.9993420  73.1391373   3.8496280  58.8049927  85.2435913
   4.3283591  58.8419342  84.4155350   4.2421613  58.0699425  85.7145996
   4.3004136  71.8083801  87.8855362   4.0307946  71.4684906  87.0322952
   4.2831621  71.0455933  88.4635391  65.1223221  29.7908001  64.4250412
  64.2786407  29.3462029  64.5073090  65.0139313  30.6035366  64.9189453
  45.2547188  40.7592201  23.5190525  44.6042404  40.3565102  22.9437809
  45.3041840  41.6687698  23.2249317  46.5457802  36.1097603  76.8995819
  46.8316803  36.8307610  77.4605179  46.3655701  35.3914375  77.5060196
  65.9299316  27.3488369  56.7089005  65.2810135  27.4828606  57.3996849
  66.6507874  27.9344387  56.9405632  47.2727280  39.4095955  59.3122368
  47.8151741  38.8353920  58.7716064  47.8968811  39.9961739  59.7395401
   3.5250268  31.6792908  39.2839775   3.3063552  31.1752300  38.5001831
   3.1839428  31.1551857  40.0086899  40.4820175  23.9911041  72.0247421
  40.7698021  23.3474312  72.6721268  40.9860497  23.7817478  71.2383881
   9.9575195  54.6685638  48.9502792   9.7335653  54.3495712  49.8245316
   9.5067854  54.0703354  48.3543015  54.4281273  29.3919315  75.7384644
  53.7772408  29.0266266  76.3377380  53.9679718  29.4681797  74.9025955
  69.2832260  58.0867691   4.7109599  68.5778961  57.9351463   5.3400483
  69.6497574  57.2176666   4.5480142  23.6847725  67.3140411  17.0637264
  23.7456722  66.6892395  16.3411331  24.5721359  67.3551178  17.4202766
  26.9548149   0.7368178  36.0799904  26.3735828   0.7127895  35.3198433
  27.6167965   1.3904853  35.8547592  65.7269516  69.7200928   0.7028166
  65.8476410  69.2392273  -0.1159838  64.8810501  70.1565323   0.6018168
  85.7782516  42.8147163  80.8664169  86.0422821  43.4803619  80.2312546
  86.0368118  43.1765366  81.7140427   4.3815470  71.2826538  55.4621849
   4.5869689  70.4695435  55.0007973   3.7067544  71.0353699  56.0944328
  52.0250435  51.2590904  76.3181229  52.9071732  50.8890343  76.2843933
  51.4478111  50.5201492  76.1257629  46.2481117  28.9940147  61.2507286
  45.4510956  28.6601543  61.6624718  46.7450142  29.3824558  61.9707527
  43.1007042  47.1454506  83.8008499  43.2015686  46.8656120  82.8910446
  42.2214584  47.5218315  83.8395920   9.5739994  39.0090942  85.5494537
   8.9607725  39.7436829  85.5732346  10.2789307  39.2662354  86.1437454
  57.6080170   2.0616319  37.3220863  57.6054916   1.4491286  38.0576553
  58.3691597   1.8066220  36.8006783  64.4492493  17.7854462  11.1131401
  64.5065765  18.1599064  10.2340918  65.0508728  17.0411415  11.0961170
  14.9661942   3.0197337   0.9289987  15.4267311   3.5200660   1.6026493
  14.4941587   2.3428938   1.4140782  40.1622086  10.7321415  70.4203339
  39.6019402   9.9772053  70.6003418  40.3081131  10.7020960  69.4748001
   3.0220819  41.7488403  67.8617249   2.9703412  42.6777916  67.6367798
   3.8473809  41.6635971  68.3390579  81.7199631  22.9293995  67.4761200
  81.2267609  22.2560101  67.9446564  81.8703690  22.5555801  66.6078644
  27.7958965  52.9247589  17.9868889  26.8883820  53.1789131  17.8193932
  27.7913151  51.9692268  17.9305573  80.0559769  16.5350266  60.7653694
  79.9525223  15.5872698  60.8507156  80.8422012  16.7367859  61.2727013
  73.6694870   6.6275840   8.6134100  72.9526215   6.0012999   8.7139530
  74.2739868   6.4159179   9.3247509  26.0592422  48.8962975  79.9412842
  25.6269073  48.5943184  79.1424561  25.3613739  48.9229927  80.5958862
  35.6359711  40.0649490  24.3773003  34.8153267  40.5057678  24.5974121
  35.8317261  39.5264359  25.1440582  21.9561291  13.8367796  14.4470110
  21.2919540  13.4332237  15.0057993  22.6824894  13.2133799  14.4498625
  48.8066826  67.1194382  74.2568588  49.7445602  67.1291580  74.4479752
  48.4981956  66.2864456  74.6135025  24.8241673   1.5392703  49.8123932
  25.6475563   1.5164323  49.3248100  24.6531734   0.6245619  50.0366745
  35.0643311  31.3040237  78.3603287  35.6880608  32.0290337  78.3209000
  34.6578522  31.3844261  79.2231979  63.1000748  23.1905251  55.6386452
  63.6438560  23.9778843  55.6142197  63.6982231  22.4791431  55.4097633
  46.1547890  41.4338264  76.3584595  45.7220497  40.8147774  75.7704544
  45.4519119  41.7638779  76.9181595   9.6360264   0.8232417  40.0255775
  10.0556517   0.4326503  39.2590370   8.7201710   0.5524959  39.9612541
  49.3367729   3.9552376  44.2004890  49.3855171   4.1300783  45.1403236
  49.0650139   3.0393534  44.1410332  13.5945063  43.1965828  75.6111679
  13.2257309  44.0406647  75.8714828  12.9032154  42.5633430  75.8044510
  27.2513790  28.2570038  81.2153931  27.4076500  29.1913548  81.0782776
  28.1247444  27.8652611  81.2133408  61.6560249  67.4951172  75.3125153
  62.3072548  67.6635742  75.9935074  61.3104057  66.6271973  75.5210724
  81.4270554  70.6217880  52.5726089  82.0211105  70.8346405  51.8528671
  81.9950180  70.2602081  53.2529869  85.7758255  37.5503654  33.8464928
  85.9555359  38.4904060  33.8626213  86.6221085  37.1480446  33.6511383
  25.2212772  47.1677399  54.4724426  24.7535686  47.5677910  55.2055473
  26.0994339  47.5464211  54.5133247  83.3237152  35.6601830  43.4802933
  83.9745407  35.6898499  42.7790222  82.8393478  36.4810982  43.3924179
   5.9349222  47.5991287  50.8101540   5.2548642  47.7768974  51.4598846
   5.4891329  47.0967484  50.1281586  23.6363163  70.4656754  59.8435249
  24.5496864  70.1799393  59.8250198  23.5411568  71.0142746  59.0649261
  55.3774261  49.0833702  34.0869713  54.6817055  48.5363808  34.4516716
  54.9977760  49.9613190  34.0508804   1.4095062  34.8053093   6.8412519
   1.7368509  35.6447639   7.1643467   1.8968892  34.6538200   6.0314732
  28.1671486  57.8431816  75.7358398  27.3475018  58.0920525  75.3086700
  27.9322186  57.0985107  76.2894669  19.2190151  49.1194229  48.4921417
  19.8133888  48.3735886  48.5738907  18.7776718  48.9832001  47.6537590
  84.2468338  70.5943756  65.9622955  84.8698502  71.0607224  65.4049683
  83.4280090  71.0804977  65.8650818   7.2646189  18.1186161  72.6957321
   7.5592861  18.9802303  72.4007263   6.3122416  18.1971321  72.7509003
  77.5227890  27.8814812  39.1568069  78.0511780  27.4793205  39.8462334
  77.0249786  28.5654068  39.6047554  61.6774483  46.9256554  73.3757401
  61.3223419  46.4556694  74.1302261  62.6243706  46.8015327  73.4402390
  72.6399841  60.8455429  66.7643356  72.2241440  60.6517982  65.9242401
  72.2132721  60.2545700  67.3847427  19.0227184  37.5673294  87.1922531
  18.3842144  37.3586006  86.5103607  19.0918846  38.5218010  87.1715393
  15.9431353  66.4880981  85.8358231  15.5649767  66.6340942  86.7029495
  16.3327484  65.6153564  85.8882828  67.3119202  13.3219690  80.3050766
  68.0013504  13.3891878  80.9656830  66.6555252  12.7489748  80.7013626
  50.2753754  47.8739014  45.0033112  49.6925926  47.1851921  45.3231087
  50.4101410  48.4441910  45.7601700   6.5756445  48.8604012  34.1027489
   7.4207149  49.3091469  34.1294479   6.0280275  49.4138985  33.5459824
  34.6230698  62.5147285  49.0221329  35.1833115  61.7390366  48.9963837
  35.1878624  63.2280731  48.7248383  68.3422928   5.1913939  43.1666794
  68.5363388   5.0334077  42.2427673  68.1647568   6.1306434  43.2169266
  50.7852554  50.7047958  79.4532471  51.2313919  51.4305000  79.0167313
  50.3312416  51.1118202  80.1911011  66.9017181  64.8972244  29.3053474
  67.0312805  65.8420715  29.3872662  67.6545486  64.5954208  28.7970200
  71.8588181   0.7024772  64.0689468  71.6654434  -0.1002345  63.5847054
  72.6185760   1.0749952  63.6214752  13.3102884  71.0041580  66.3884888
  12.8504953  70.1846542  66.5708084  12.8087053  71.4077454  65.6801376
  36.9534340  57.7835121  66.5703430  36.2616959  57.9531288  65.9308395
  36.7913971  58.4146500  67.2715073  18.6737957  66.3842239  70.3987579
  17.8646145  66.8611298  70.5831985  18.6939640  65.6850204  71.0521622
  73.1487122  32.6533012  43.0654259  73.1404800  33.2397385  42.3089485
  72.4112778  32.9440994  43.6019478  37.1661911  39.1362152  52.8975906
  37.8573151  39.5649452  52.3928413  36.3620110  39.5792999  52.6270294
   4.1899385  30.9709549   4.8667932   3.5338924  31.6672935   4.8360314
   3.6845584  30.1620293   4.7864003  43.6789742  17.8976288  87.8401718
  43.2110176  17.4560337  87.1314774  43.1361771  17.7493000  88.6145096
  57.7224503   0.1641080  80.6809769  57.9780350   1.0738040  80.8338242
  57.3010750  -0.1065802  81.4966965  61.5331459  11.4311161  48.5237083
  61.5399437  11.5036325  47.5692825  61.9926491  12.2142458  48.8266907
  33.6308899  41.7937279  24.5623245  33.5783424  42.2024765  23.6983833
  32.8758698  42.1404724  25.0376644  87.0348816   6.5621982  12.5500393
  86.5239792   6.1019197  11.8841877  86.4205399   6.6988683  13.2712488
  84.6581039  17.0535831  69.9516525  84.4530487  16.9480705  70.8806534
  84.3229294  16.2568626  69.5403976  60.3393326  17.5369053  36.0737801
  61.0793114  18.0435944  36.4083328  60.7354431  16.8951683  35.4842873
  66.8559570  10.4421415  70.7422791  66.6919785  11.3759928  70.8736725
  67.2587738  10.1522150  71.5607681  73.5742340  46.9193573  82.6699753
  74.2681198  47.2135811  82.0799026  73.8387833  47.2431297  83.5310287
  19.7079277  46.1276131  39.2062569  19.8013515  46.7407379  39.9353523
  20.5131588  46.2334137  38.6996613  73.0946960  21.3742619  17.7350826
  72.3442154  21.9587250  17.6282463  72.8992386  20.6275444  17.1690102
  26.8789635  67.4197311  55.2150154  27.8059177  67.3432236  55.4411392
  26.5836716  68.2042770  55.6771049  44.8336258  36.7655182   9.3418198
  44.5617752  36.9994850   8.4543581  45.5615196  37.3569679   9.5331078
  21.1540947  27.9571419  79.7567749  21.6544838  27.4032631  80.3559875
  20.5353584  27.3588810  79.3378677  53.1379471  44.6932449  11.0553465
  52.2557526  44.3688965  11.2363577  53.0287590  45.2789726  10.3061934
  51.6798592  53.3064537   9.1835852  51.0018616  53.5909653   9.7964497
  52.4339104  53.1043968   9.7374945  21.8418293  54.8438034  12.6969357
  20.9946709  54.4330711  12.8697214  22.3344440  54.7277145  13.5093918
  73.3489609  14.7784214   4.2992067  72.7368698  15.1053371   3.6398821
  72.9434662  15.0055628   5.1359940  71.2793961  28.5553436  28.9084988
  70.4927979  28.2889233  29.3844357  71.2015533  29.5061703  28.8303928
  28.8267269   2.9971483  17.6950111  29.6715374   2.8414874  17.2727566
  28.2548542   3.2904627  16.9856739   6.5077853  40.9005890  47.6310272
   5.8141489  41.5335960  47.8165092   6.4510269  40.2667084  48.3460121
  33.1940765   1.6546260  60.8879662  32.8203545   0.8500081  61.2473450
  32.4639130   2.0763569  60.4349365  69.7577438  16.6250477  51.2737579
  69.7081223  17.5809536  51.2701988  70.3395233  16.4181347  52.0051651
  82.7555847  68.9403458  75.9099045  82.3580322  69.5292892  76.5512543
  82.0566177  68.3273315  75.6820984  28.1173649  15.6564217  64.4942932
  28.4190254  14.8460960  64.0836792  28.7705631  15.8404427  65.1693497
  74.2056427   2.7923462  83.0683289  74.7671280   2.3155491  83.6795883
  73.5251923   2.1635561  82.8278351   1.0725201   2.9431043  79.3593140
   1.7677474   2.3553009  79.6549072   0.6979440   3.2959795  80.1664047
  52.5284195  31.5644798  86.5424423  52.0893898  31.8929844  87.3270264
  52.9239120  30.7374458  86.8178253  74.1022034  57.0677338  84.2006836
  73.1871338  56.8998604  84.4258194  74.1329727  58.0043907  84.0058441
  80.2652054  15.0580769  83.3610535  79.7284393  15.3649645  84.0917587
  80.5230331  15.8569880  82.9011688   8.0714397  34.0210571   8.9846516
   8.2244282  34.1313438   9.9230890   8.4005766  34.8294411   8.5916920
  52.5021858   1.7292987  50.1560516  52.6950188   2.0976210  51.0182495
  52.1664009   0.8520086  50.3400192  22.1391773  36.1754417  16.8481750
  21.6200695  36.8210983  17.3276348  23.0471706  36.4374466  17.0002613
  69.6789322   7.3661885  27.1189098  69.6781693   6.8819671  26.2932205
  69.1489410   8.1432476  26.9413567  77.1710052  64.2590714  83.6801910
  76.5980606  64.9345474  84.0430908  76.7076569  63.9434738  82.9043427
  10.0366526  32.8828773  69.4658508   9.3782616  32.8270149  70.1584015
   9.5555820  33.2046165  68.7034225  18.7106400  59.0114288  21.5611973
  19.6200008  59.1644745  21.3045444  18.5826626  59.5653000  22.3313141
  71.4212723  19.2243366  53.8574333  71.2627640  18.2987309  53.6720695
  71.1436310  19.3375263  54.7664604  13.6900482  25.3720798   5.9452548
  14.3831902  24.7569847   6.1849298  13.2884521  25.6170769   6.7788792
  14.4737368  66.0957565  57.5941048  14.8738871  66.2597656  56.7401657
  13.9939098  65.2753830  57.4801712  80.2275085  58.9148903  87.9829483
  80.2149353  59.8629875  88.1140442  80.3559036  58.8050575  87.0407791
  77.2450562  11.1438093  85.8485870  77.4003525  11.7896910  86.5377502
  78.1136093  10.7963257  85.6458588  57.1517220  52.4111671  73.4425888
  56.7651291  51.7676735  72.8487091  57.9198914  52.7380981  72.9743347
  15.1413116  40.8506584  31.3235397  14.7212315  40.9062157  30.4652405
  15.0876808  39.9238930  31.5569096   0.4324259  29.3638153  40.1536522
   1.3293015  29.1916504  40.4403687   0.2050727  28.6083584  39.6115952
  31.0443344  32.0284081  79.8899231  30.8201294  31.1412106  79.6091309
  30.2872944  32.5576096  79.6387939  73.9688797   4.4172759  63.0070229
  73.8327255   3.5265296  62.6841240  74.4406128   4.3034554  63.8320999
  79.0593948  39.3217506  59.6148834  79.3777695  39.9001389  60.3079491
  79.8468628  39.0700417  59.1324196  78.4788055  27.1719742  26.0096340
  79.2080994  27.7313824  26.2768879  77.7203522  27.7558231  25.9993896
  37.2951508  57.5078354  61.0036926  38.1326408  57.1589546  61.3088570
  36.9403725  56.8203125  60.4400635  63.5326195  30.8354244   3.8098509
  64.0105820  30.6897774   4.6262865  62.7613983  30.2728348   3.8801763
   6.2976227  30.8588333  40.1533127   5.8127832  31.6416111  40.4148827
   6.9207859  30.7140141  40.8652992   2.1548195  11.4019413   5.0875053
   2.1502280  10.4797316   5.3439035   1.5617849  11.8259506   5.7077942
  85.9820786  50.7067337   9.0632057  85.8781281  51.5186729   8.5670376
  85.2001419  50.1960526   8.8534021  84.4714661  20.1691303  48.7183876
  83.6574173  20.6725178  48.7061844  84.6702576  20.0577030  49.6480675
  45.1232338  23.6731625  77.7989426  45.7558212  24.2482738  78.2294235
  45.6515656  23.1337833  77.2105865   8.5357771  71.2115326  18.8230782
   8.5110979  71.2305832  17.8663845   8.1197081  72.0312805  19.0897751
  57.2642937  53.4832268  29.5753555  57.0816650  52.9586105  28.7958317
  56.5173035  54.0777702  29.6443424  31.9814320   9.8789358  20.2759800
  32.7337151  10.1255331  19.7379379  31.9052315   8.9316797  20.1613884
  66.0186768  46.3436012  56.6891098  65.4688110  46.0567932  55.9599838
  65.5993042  47.1439667  57.0049782  72.1413269  25.6973209  19.0294418
  72.3786163  24.7738285  19.1136227  71.1881027  25.6927090  18.9424229
  62.8279266  29.9643898  48.5820084  62.6826363  30.1175728  49.5156326
  62.0181694  29.5546284  48.2776680  80.7102127  33.2898102  41.7081299
  80.5048294  32.9267616  42.5696678  80.7136230  34.2375641  41.8422203
  51.2273827   5.2782340  29.7930908  51.1334229   6.1041608  30.2676945
  52.1707535   5.1168361  29.7776718  42.2625847  23.7482433  40.6266594
  42.0536499  22.8175259  40.7062874  43.1830406  23.7655163  40.3645744
  68.0377426  66.1410828  19.4910965  68.7485657  66.1011124  18.8512859
  67.8670959  65.2266998  19.7169628  69.2327423  48.3995857  71.2454071
  69.5633774  49.2928123  71.1502609  68.4569397  48.3704453  70.6854935
  26.0203133  38.3132973  60.1132698  26.4894981  39.1047974  59.8494072
  25.0991230  38.5731659  60.1236496  65.3638992  32.4785080  60.4021072
  64.9281082  33.0072289  61.0705147  64.7494965  31.7671585  60.2212181
  12.2273512  60.1873512  88.2147522  11.9090366  60.8892555  87.6470871
  11.4844885  59.5891304  88.2954865  53.5732117  13.9111586  86.3674850
  53.3713112  13.0211983  86.6563416  53.6274910  14.4191761  87.1769333
  76.0677795   2.6453979  46.8566704  75.6124191   1.8164241  47.0039101
  75.9536591   3.1298645  47.6742897  38.9386978  11.9998865  81.8640747
  39.3737183  12.8524847  81.8721924  39.6095085  11.3858776  82.1627960
  56.8268013  69.1349106  73.7977600  57.2608566  69.0304871  74.6444702
  57.2385216  68.4791031  73.2350540  68.6425476  53.4389915  76.3425980
  68.9186172  52.8286705  77.0263596  67.7388229  53.6590500  76.5686111
  72.1061554  30.9362659  84.6151733  72.8991547  31.3836517  84.9105148
  71.9994507  31.2136269  83.7052765   7.9135027  58.7608795  16.0699730
   6.9632926  58.6697464  15.9990683   8.0642519  59.7061348  16.0681858
  72.3995361  37.2174835  71.9722672  71.6482544  37.4668770  72.5104218
  72.1035843  36.4446678  71.4912338  10.8548403  15.9461565  61.9386940
  10.8875694  15.3884983  61.1614037  11.7441530  15.9175787  62.2915916
  57.8155441  33.9994011  18.4723129  57.6096802  34.3595581  19.3349476
  58.7646217  34.0952835  18.3930092  83.5327530   2.9665618  57.2422638
  83.2438278   2.6951649  58.1135292  84.3741913   2.5266414  57.1211281
   8.2391329  69.0688934  46.8936157   8.7326422  68.2969284  46.6165695
   7.8525419  68.8176804  47.7324677   5.2253604  36.6473541  24.8181515
   4.5311403  37.3061638  24.8343544   5.9569206  37.0589294  25.2782154
  12.2092943  45.9096870  28.8686218  12.9096069  45.2571602  28.8694859
  12.3261814  46.3853836  28.0462589  55.3693352  13.5343132   3.9136031
  54.6953201  14.1286831   4.2432451  54.8811722  12.8434019   3.4657509
  85.9566956  57.0077629  74.7046967  86.6232376  56.9395180  75.3882904
  86.4543686  57.1305466  73.8963165  17.3281002  26.9630527  15.0049934
  17.0554752  27.4060478  14.2014618  18.0757008  27.4725819  15.3175716
  80.7103195   4.6732044  19.5233936  80.8680191   5.3779793  18.8951778
  80.0023651   4.1596313  19.1344566  22.8609371   4.9361739  69.6138153
  23.1880245   5.5655799  68.9710922  23.1069183   5.3087254  70.4605331
  23.5224361  49.2480888  32.9441223  23.0382843  48.6917343  32.3339577
  23.3198051  48.8890686  33.8079948  45.8821602  46.8104553  51.2836189
  45.1736603  47.4276199  51.1009598  45.4469566  46.0579834  51.6843910
  51.5800552  38.1272812   8.2057943  51.0759392  37.4774513   7.7160821
  52.2982788  37.6289978   8.5958004  69.7035370   9.7412186  65.8083878
  68.7620010   9.6362963  65.9452362  69.7724380  10.3629580  65.0838699
   3.7763937  15.0661774   2.3682635   3.7546923  15.8857126   1.8741758
   4.6930709  14.9653091   2.6247003  58.6135902  20.2045441  19.7883129
  57.9936104  20.6939144  19.2475967  58.9509010  19.5221615  19.2079639
  25.9476700  69.8179398  47.6799469  26.4074116  70.6435547  47.5275421
  25.8807602  69.4175034  46.8131104  34.9564171  54.8987885  29.6441689
  34.6710663  55.0085564  30.5512295  34.1897888  54.5452614  29.1930275
  62.3331032   0.6069399  13.3896360  63.0362320   0.1247356  12.9545279
  61.6237984   0.6277701  12.7472296   5.7411809   6.5347190  33.1318359
   6.4369392   6.6899271  33.7706337   6.1320319   6.7694826  32.2901993
  71.7775574  56.3535728  74.0849533  71.5646439  57.1549683  73.6067657
  72.7338791  56.3455658  74.1251602  58.4027596  56.8833580  36.2781982
  59.1729393  56.3152924  36.2971420  58.0611572  56.8535957  37.1718712
  70.5337067  57.2642479  28.8378391  70.7716217  56.3478279  28.9785767
  69.6064606  57.2374420  28.6017799   1.9457258  50.2475128  10.3381195
   1.0610685  50.3306656   9.9821720   2.1737211  49.3280678  10.2007589
  75.8987579  66.1633301  85.4009094  75.2085037  65.6204147  85.7817307
  75.6366196  67.0612717  85.6039124  19.8888779  54.5311737  54.3450317
  19.7490253  53.7966843  53.7473755  19.2467289  55.1868591  54.0730896
  54.4987946   5.3316097  71.6661148  54.2453232   4.4292951  71.4716644
  54.7553291   5.3149261  72.5881500  72.4783630  67.5792389  27.1914845
  71.6133728  67.2481308  27.4331207  73.0857239  66.9015503  27.4882679
  27.3108253  20.6541672  11.5893869  26.8435040  20.1954842  10.8912096
  27.6785603  19.9555321  12.1306009   4.7439203  63.2481003  83.8970947
   3.9683523  63.2296906  83.3363953   4.7147474  64.1072311  84.3181305
  43.5169106  29.2329597  80.9547806  43.2717819  30.0336933  80.4911270
  42.9241257  28.5653362  80.6096420  41.5939598  34.1416054  24.6595764
  41.2250023  34.0564575  23.7804565  40.9188576  33.7868805  25.2380543
  31.0994129  66.4506531  33.2636337  31.1379089  67.3545227  33.5763054
  30.2743397  66.1119385  33.6111374  82.6176834  19.0988808  46.0223923
  82.6319275  18.1954403  46.3383369  83.5340652  19.3746033  46.0438766
  72.5545273  13.0176935  25.6345901  73.0754547  12.9343901  26.4332924
  71.9035797  12.3188868  25.6992207  13.6954679  46.3485565  33.3824272
  13.3967085  45.4595680  33.5739212  14.5655155  46.2318497  33.0008125
   3.6554885  44.3060989  41.1566048   3.1690183  44.0008316  40.3908424
   3.0697224  44.1386108  41.8948860  16.8141136  25.7820530  88.0835648
  16.6038208  24.8748894  88.3050690  16.5874634  26.2792168  88.8694992
  70.9992523   1.2544518   1.2174488  71.5050888   1.5476846   1.9753245
  70.0860596   1.3404762   1.4911594  61.0277863   0.8902895  57.9990654
  60.5267754   1.7028544  57.9286461  61.3218193   0.7120240  57.1057587
  17.9010735   2.6964939  56.6444092  17.1267014   2.4838140  57.1653214
  18.3867226   1.8734277  56.5902023  13.8766670   5.0021777  12.0755367
  14.4232979   4.3794780  12.5547771  13.0541029   5.0246096  12.5645332
  16.0786438  44.2740250  82.2894287  15.5724792  43.5668716  81.8894730
  15.5145416  44.6073341  82.9872284  13.5536957  57.6557198  30.6068325
  14.4950199  57.7443810  30.4575653  13.4579058  56.8038254  31.0326614
  44.2271461  45.7165985  30.4053764  44.6954155  45.7077599  31.2401676
  44.6366997  45.0190315  29.8936195   6.6976557  70.4909973  85.4923096
   5.9835625  70.3060150  84.8823242   7.3300476  69.7885971  85.3408432
  72.5858078   5.7731175  75.6667175  72.9502792   6.6391234  75.8495483
  72.2290421   5.8454328  74.7814407  47.0721512  41.7602043  32.9513702
  46.7254181  41.0496407  32.4118271  46.3837013  41.9306946  33.5941811
  20.6390572  41.1210709  73.3738022  20.3100491  41.4568024  72.5399704
  21.5174141  41.4933510  73.4520645  76.0834351  70.8209534  44.2884293
  75.4973831  70.8906860  45.0420341  75.8927689  71.5986633  43.7639771
  58.1877861   6.5032020  48.1700554  58.1183167   7.2073812  47.5254326
  59.1211967   6.2926030  48.1950607  81.5989304  19.5473652  10.0328588
  81.8660889  20.4420319   9.8220787  81.9648819  19.0153599   9.3262615
  45.1661224  51.2187004  10.5659876  45.7542801  50.4726944  10.4486151
  45.3371696  51.7798729   9.8096399  46.0860939  48.8940010  44.0384140
  46.8732185  48.6389351  43.5571594  46.4113617  49.4250488  44.7653389
  41.0285721  45.5598259  85.8265381  40.6469345  44.6965523  85.9857330
  41.9297676  45.3778648  85.5601349  18.2272339  13.3195086  76.9148407
  19.1656971  13.4809771  77.0120239  17.9260120  13.1172476  77.8006058
  83.3865585  57.0556564  19.8597183  82.7043381  56.9675140  20.5253277
  83.6524277  57.9738503  19.9093800  73.2021790   5.3495722  57.6699829
  73.3889389   5.4535365  58.6030121  72.2754211   5.1124701  57.6361961
  60.3661346  12.7663002  34.7652054  60.3574677  13.3083982  33.9763527
  60.3183746  11.8677206  34.4388542  86.5013123  43.8573875  15.2531548
  87.3957214  43.7927246  14.9183588  86.2767715  44.7831306  15.1592569
  23.2364559  43.1290703   3.3946338  22.3600388  43.4343300   3.6290240
  23.8182354  43.8381844   3.6683452  22.5257759  69.3978653  62.1949501
  22.7601910  69.5287399  61.2761726  23.2234688  68.8428726  62.5434303
  85.5001068  48.9409256  64.9407959  86.2278519  49.3206291  65.4331818
  84.9471130  48.5329475  65.6071167  81.9706650  47.3023109  12.3248358
  81.6823273  47.5977058  13.1884556  81.2122116  47.4428749  11.7580709
  64.1481018   1.4016809  59.2672501  63.9046173   1.5766517  58.3582230
  64.9924850   0.9548664  59.2072868  84.5829544  13.7540436  53.5955963
  84.8013763  12.8372602  53.4281807  83.7853622  13.9066248  53.0888443
  50.1861916  52.0709229   3.3534274  51.1076775  51.9388351   3.5762510
  49.9662743  52.9197922   3.7372096  11.9204273  45.8298874  52.0577621
  12.7781305  45.4049530  52.0549545  11.2968712  45.1101608  52.1547165
  29.5451946  67.3655548  63.1504974  29.3407040  68.1263428  63.6942062
  28.7325363  67.1828308  62.6788750  34.8848534   8.5160313   8.7340908
  35.0088120   7.6106873   9.0190783  34.0749016   8.4978924   8.2243042
  50.2986794  17.7377644  14.8754377  51.1091461  17.8915768  14.3899326
  49.7092209  17.3368778  14.2366419  64.9959183  43.8615952  68.8091202
  65.9404678  43.9802971  68.7092361  64.6697998  44.7284966  69.0506973
  72.9034500  63.7730446  42.0608292  73.4040222  62.9894218  41.8336906
  73.5492783  64.3674927  42.4426346  37.5114212  70.1501617  41.7885170
  37.6841125  71.0187302  42.1518288  37.5073166  69.5689163  42.5490227
  78.8468933  18.5421104   9.9060802  78.9936829  18.6899414  10.8403339
  79.7192688  18.5934200   9.5154963  23.0931168  68.3460388  88.4817581
  23.7969837  68.3967056  89.1284637  23.4378166  68.8055725  87.7160873
  34.5217285  34.2384338  81.8467865  35.0086708  33.5162277  82.2437057
  35.0342369  35.0183678  82.0595551  17.1856041  29.5535393  18.8466702
  17.9426079  29.2946644  19.3721809  16.7984276  28.7262077  18.5605793
  71.1640320  18.2026615  43.6704597  71.8590012  18.7155228  44.0830307
  71.6107788  17.6955490  42.9926071  76.7768326  60.3226852  50.5106773
  76.2058868  60.2706032  51.2771912  77.2465973  59.4887085  50.5048218
  76.5009918  31.2198830  28.9141846  76.4489670  31.5895882  29.7955723
  75.8077774  30.5602627  28.8898411   0.6771045  55.8861465  67.0862808
   1.2727787  55.8172951  66.3401871   1.1269048  55.4262886  67.7951126
   9.9768162  37.6696815  37.4727325  10.0442905  38.3783493  36.8328362
   9.2980375  37.0934868  37.1213188  19.2568359  41.6013794  70.8532715
  18.6827126  42.0979919  71.4363556  18.8122997  41.6208649  70.0057831
  38.1978798  62.1673050  59.7908363  37.6601486  62.8431015  60.2036018
  38.7749405  61.8601570  60.4900475  83.1666107  14.6251316  37.1978836
  83.2798615  14.0002594  36.4816818  84.0197067  14.6498737  37.6312981
   1.5996614  61.9406357  17.0356007   1.6058419  62.2089348  16.1167908
   0.7799819  62.2928429  17.3824539   5.7488942  35.1984749  86.5738144
   6.1337671  34.3228226  86.5372543   5.3192887  35.3068886  85.7253342
  36.1789551  71.4359894  84.1855087  36.0919724  70.4903336  84.3055115
  35.3652306  71.7978058  84.5364609  59.0525703  53.1515694  13.1452923
  59.1175156  52.3897133  12.5694542  59.9553566  53.3307800  13.4081459
  13.8597775  56.8815346  84.4244232  12.9031620  56.8481064  84.4235840
  14.0673485  57.7948151  84.6220627  35.2667313  62.0379181  28.9092579
  34.7840500  61.2304535  28.7324677  36.0702896  61.9538765  28.3959694
   9.8969460  59.1579781  12.3574619  10.3463125  59.6612015  11.6784420
  10.5023756  59.1621552  13.0988579  43.5231781  49.8309517  54.3142967
  44.2294769  49.3279114  53.9089241  43.7255859  50.7420731  54.1018753
  57.4626617  44.1241875  26.5430851  56.8036232  44.7780380  26.3098888
  57.1079140  43.2984734  26.2135677  76.3171844  25.7907352  79.6150665
  76.2955780  24.8340206  79.6365662  76.8962402  26.0335293  80.3375473
  36.5928345   2.9424202  85.8628769  35.9045525   2.2824926  85.7792511
  36.6708794   3.3194828  84.9865417  80.6195679  11.6125898   5.4390564
  79.8401031  11.0585938   5.3972216  81.3505020  10.9954681   5.4726224
  86.8418961  35.8114128  61.2304764  87.1068726  36.7228699  61.3540497
  85.9309235  35.7850304  61.5231514  18.2358437  41.7688942  58.0234909
  18.8737106  41.1927986  57.6022186  18.7522316  42.2874031  58.6405220
  40.8561783  29.8793793  85.1107941  40.7010651  30.2089424  84.2256012
  40.2065125  30.3291149  85.6510696  60.1545181  59.2059631   1.6073817
  59.2025909  59.2161407   1.5075697  60.4886589  59.1519547   0.7120245
  83.1928558  53.6186142   0.3168074  83.9817886  53.9136467   0.7715262
  83.4868927  53.4282112  -0.5739901  38.0352097  31.0686111   1.6176744
  37.1106987  30.8221779   1.5896976  38.2108650  31.2347984   2.5438271
  45.9884186  63.5782928  71.5769806  45.7179031  64.1314621  72.3098221
  45.3239937  63.7295074  70.9047470  79.1526184  54.1384125   9.2068911
  78.7268829  54.0691147  10.0613937  78.6881256  53.5082779   8.6560669
  51.4681244   1.8399094  28.3862438  50.5219002   1.9278136  28.5009689
  51.7555046   2.7052786  28.0950699  53.8334503   3.6065040  33.2243309
  53.6985855   4.1211638  32.4286118  52.9821968   3.6146233  33.6619759
  53.4658585  32.2525711  21.2177715  53.8066864  31.9549217  22.0612621
  54.0967941  32.9091530  20.9227276  80.0712585  21.3808517  63.0119781
  79.2670593  21.1572552  63.4804878  80.4854202  20.5371094  62.8308754
  63.1913414  49.5641632  34.5006294  62.7672806  50.4021378  34.6855659
  64.0384903  49.8023911  34.1240387  71.3836517   5.3825626   8.6207933
  70.9829025   4.5956922   8.9902058  70.6488113   5.8790874   8.2606392
  62.8532829  17.8262138  63.0751305  62.9029312  17.3839455  63.9225769
  63.3008347  18.6608696  63.2139740  14.5210676  51.2394257  79.4910355
  15.1417284  50.5142746  79.4191208  13.7054567  50.8289986  79.7783661
  20.0422096  24.7662983  18.2782497  19.4044762  24.2269573  17.8106613
  20.8910217  24.3913937  18.0433121  24.0585632  45.8431435  47.7042351
  23.8596516  45.4884796  48.5707664  23.6012573  46.6836510  47.6786995
  63.0112839   2.3962624   2.3659511  62.2555466   2.9733081   2.2559087
  62.6317368   1.5298704   2.5127201  35.2656136   1.8099624   4.1039786
  36.1895676   1.9492249   3.8962586  34.7943649   2.1684821   3.3519003
  34.2773399  58.8667450  45.5232506  33.7859573  58.0547905  45.3987274
  34.1592445  59.0785637  46.4492188  83.2628860   5.0906491  80.8003006
  83.5343933   5.5482702  80.0046234  83.1506805   5.7850332  81.4495087
   0.3184232  62.9455185  26.1398277   1.2022098  62.6960449  25.8697968
   0.4520905  63.6408920  26.7838917  21.3488407   5.3482509  48.8535347
  22.1626186   5.8474479  48.9228134  20.6669025   6.0135326  48.7608337
  65.9179459  52.0209618  36.4657440  65.1857834  51.8445854  37.0565605
  66.2540665  52.8715477  36.7481537  34.2429047  50.6871185  70.5671463
  34.3322906  51.4548836  70.0025406  34.3131142  49.9417381  69.9707336
  30.9089222  62.4447021  35.1906013  31.5554256  62.4021721  34.4860039
  31.0564785  63.2972984  35.5999069  84.7581329  49.3353043  48.9103546
  85.0450821  48.5762749  49.4180603  84.8862076  49.0755234  47.9980278
  42.0437088  69.8307724  59.6086006  42.4430885  69.3409729  58.8896980
  42.5389938  69.5653305  60.3834991   6.5167065  57.5200768  57.8468094
   7.3334770  57.7093964  57.3849907   6.7758455  57.4275055  58.7636032
  53.4584007  40.8031158  83.6568298  53.4826355  40.1047630  83.0026550
  52.8050041  41.4191437  83.3254471  65.0089645  61.8962097  38.5426750
  65.7387772  62.1079636  37.9606361  65.2235413  61.0307388  38.8907433
  72.6519165  70.2705460  70.1476974  72.3211288  70.0789566  69.2701416
  73.4967880  70.6947708  69.9978638  56.0725822  43.6837654  43.6328697
  55.3026390  43.4434853  44.1483154  55.8561859  44.5401421  43.2640572
  46.1589279  55.0891647  61.8008461  45.4865570  54.4243889  61.6517715
  46.6575890  55.1128159  60.9841385  72.8109055  56.5289040  80.2800293
  73.7100220  56.2364578  80.1307144  72.2774048  55.9513512  79.7341003
  50.4486732  24.9127502  87.8690186  49.5438576  25.1795158  88.0314331
  50.4051666  24.3953342  87.0648956  47.6128807  40.3208809  55.0548058
  48.0713615  39.8594398  54.3525963  48.2266960  40.9993019  55.3362465
  52.2697639  36.1544647  22.9980507  53.1894188  36.0612984  23.2466221
  51.7994308  36.1942787  23.8307781   5.4228864  59.8901558  19.8656960
   4.5502863  59.6474686  20.1753788   5.7509737  59.1022301  19.4323788
  51.2045517  34.4563446  41.7478447  50.7899895  35.1431351  41.2256508
  50.4741592  33.9954491  42.1605568  26.1833439  52.2049294  66.2196808
  26.4031887  53.1203423  66.3926620  26.7382622  51.9612160  65.4788055
  29.4372787  35.7260590  80.1497192  29.1437855  35.1484718  80.8543396
  30.0782909  36.3033333  80.5645523   6.5533442  43.9888000  18.9370213
   5.7125020  44.2996254  19.2725868   7.0088606  44.7834778  18.6591320
  23.5082188  21.5592442  15.3333511  22.6648846  21.5522060  15.7860870
  23.3910789  22.1849251  14.6184855  29.2471962   2.6646700  27.7674160
  29.0796661   3.5209708  28.1610088  28.9333076   2.0365303  28.4179134
   5.8500485  48.3013535  36.8662720   5.9898562  48.0854340  35.9442825
   6.3234973  49.1233673  36.9942169  80.6395645  48.5773697  41.7786102
  80.7420807  49.5150604  41.6159630  79.9781952  48.2955627  41.1466179
   7.5385365  30.1694355  58.1115608   6.6133623  29.9726181  57.9647713
   7.5731559  31.1238708  58.1754799  33.8571053  71.7562103  30.6549473
  33.6681366  71.9027252  31.5818005  33.5843582  70.8527756  30.4948006
  55.7884178  23.0712585  21.5294189  56.6996040  23.3421650  21.4172497
  55.2922592  23.6570740  20.9576855  80.3625107  50.3424263  60.5493469
  80.6208115  51.2514725  60.7014847  81.0939789  49.8258018  60.8873901
  73.5363388  26.5170860  85.8993073  72.8457794  26.8851223  85.3480377
  73.6354065  27.1480083  86.6122971  38.8891220  45.9134369  71.1503677
  39.0570984  46.8551750  71.1841507  39.5071869  45.5372696  71.7770462
  28.8478718  44.5757370  88.8427811  28.4192009  43.7916412  89.1858063
  29.6273003  44.2462730  88.3953705  14.5570803   3.6230946  67.4194489
  15.5064917   3.7175145  67.4964828  14.3616495   2.7978992  67.8633957
  55.1858025   9.2202358  25.1602573  54.9309387   9.8157406  24.4555225
  55.4117126   9.7962456  25.8906059  16.5017509  44.1042557   5.7664938
  16.0955791  43.5995827   5.0618229  17.4062634  43.7922630   5.7939191
  34.6228981  44.5746498  74.6297607  34.1664619  45.0424538  73.9304352
  35.5435410  44.5920219  74.3683243  81.7398300  56.5236778  56.7194748
  81.6241837  57.0713272  55.9429855  80.8536835  56.4002953  57.0596886
  36.8619232  48.4872017  73.0793228  36.0233040  48.8899536  73.3045883
  37.1992111  49.0221558  72.3607864  55.8836403   9.0326929  33.5047531
  56.5533829   8.6119528  34.0438766  55.3181152   8.3142796  33.2213860
   0.9603580  47.1043243  18.2409077   1.5440757  47.6280594  18.7897282
   0.8301202  47.6351662  17.4551125  83.4908524  49.6954880  30.7178192
  83.0847626  50.5525780  30.8471146  82.7904587  49.1501846  30.3596039
  12.4660225  54.3962364  63.1060486  11.9244080  53.6166039  62.9833221
  12.3775692  54.8809319  62.2853928  15.8797121  15.2736731  69.3851166
  14.9313078  15.3827152  69.4549103  16.0027008  14.3361511  69.2362595
  82.9779816  39.8471947   1.4443625  82.9330063  39.3914185   0.6038423
  82.1000595  40.2078323   1.5685368  35.0870857  57.4042091  86.0188217
  34.5944290  56.6471024  86.3355408  34.9822350  57.3773918  85.0677643
  59.6003227   7.6892157  62.0619812  60.0496979   6.9523649  62.4759178
  58.9686470   7.9837079  62.7181015  58.8953590  24.2197514  63.4418945
  59.0209160  23.8100719  64.2978287  59.0315857  25.1537361  63.6010971
  72.9568253  30.8570576  20.5432930  72.2666168  31.4153919  20.9012127
  73.7503815  31.3889389  20.6033382  23.0436115  62.9724922  43.9914780
  22.8513966  63.9082375  43.9309273  23.9168034  62.8821640  43.6098900
  53.4187584  59.1613235  65.8263855  52.7896004  59.1797905  65.1052399
  53.4855499  60.0732918  66.1093826  51.3598442  32.3483124  88.8574295
  51.0627136  31.7075710  89.5034943  50.7130013  33.0523834  88.9033585
  63.7048683  36.5891991  47.6652451  62.9291115  37.0524483  47.9812012
  64.3213348  37.2841034  47.4343681   1.6868457  29.2448368  44.8619881
   2.2703221  30.0031166  44.8902359   2.1277153  28.6248989  44.2810020
  13.7196732  37.5830574   8.5390339  13.7886572  36.7960434   9.0794792
  12.8006058  37.6111374   8.2730303  34.0709190  49.3436852   8.0744305
  33.4403648  49.7200851   8.6884012  33.6275520  49.3746986   7.2266707
  11.1965418  23.9935684   2.1101787  11.2877407  23.0426579   2.0495052
  10.6143837  24.1311531   2.8574367  81.5341949   3.1590440  81.5565262
  82.2698059   3.7277277  81.3291397  80.7686920   3.7327304  81.5230713
  27.8051929   5.9217024  40.5330620  27.3144150   6.1512547  41.3221588
  27.7646637   6.7079296  39.9886017  64.9292831   8.6758986  17.7011795
  64.3087082   8.0559244  18.0842495  64.9567413   9.4027052  18.3234558
  53.1650124  10.6156321  73.9431458  52.4343033  10.8185062  73.3590775
  53.6475029  11.4389372  74.0180130  74.9129868  40.9477997  13.4528847
  74.2336884  40.4041367  13.8518972  74.4591827  41.7523689  13.2019653
   2.2552686  62.4271049  43.8299294   2.6810994  62.4267273  44.6871910
   1.3247222  62.5382309  44.0247765  34.9881439  48.3834839  47.2625084
  35.4071236  48.6651993  46.4492874  35.6645622  48.4930038  47.9308624
  56.8221092  52.6511154   8.1220922  56.5063629  53.4568787   7.7130904
  56.4543076  52.6709213   9.0055857  28.0157928  38.4181252  62.3889198
  27.7370796  38.1235008  61.5218849  27.1998520  38.6183853  62.8475761
  72.9348755  39.7582474  14.9392500  72.6064072  40.0420647  15.7923565
  72.9390411  38.8024063  14.9901152  65.0007095  50.6739998   3.8691370
  65.4868927  51.0397415   4.6081190  64.3417969  50.1086617   4.2722001
  61.9691315  12.9722319   9.4422512  62.0134811  13.8883324   9.1683464
  62.8515549  12.7727375   9.7549191  50.3514481  34.8275795  81.6392212
  50.6500969  35.1660347  82.4833069  51.0840950  34.3010216  81.3195267
  31.0358505   3.2251956  37.5746994  31.1699009   4.0683441  38.0075531
  30.3099709   2.8235500  38.0522041  23.3892536  39.5472336  79.7852020
  24.0375252  39.1465225  79.2060623  23.7729340  40.3900681  80.0273819
  84.3494415  13.9103556  34.7885590  84.8176880  13.0900307  34.6334991
  83.6829758  13.9391651  34.1021004  86.2509995  10.7694988  73.1820984
  86.2317429   9.8128996  73.1541748  85.4220123  11.0138369  73.5935669
  34.9564133  49.9572411  55.9458160  34.7076492  50.6797142  56.5223427
  34.3528824  50.0226707  55.2057495  17.2318497  44.4341354  19.8922062
  16.6032887  43.8767090  20.3509216  16.8202190  45.2981949  19.8783741
  55.6324196  28.9891186  55.1002960  56.5463333  29.0878277  54.8333588
  55.6302719  29.2070007  56.0323639  62.0986671  67.4289246  59.9630280
  62.3397026  67.8397217  60.7933159  62.5516968  67.9480286  59.2985535
  55.4592171  44.9314728  71.1698303  54.6745110  44.3845215  71.1336136
  55.2251778  45.7189445  70.6785583   6.1510658   0.7931326  41.1048279
   5.9256907   1.5527911  40.5678368   5.3163195   0.5044746  41.4737549
  24.0225544  40.7906761  20.0466843  23.3822098  41.0917664  20.6913033
  23.5627956  40.8451157  19.2088947  59.9677734  50.0583763  37.3006516
  59.2025070  49.6047897  36.9472961  60.4840317  49.3683128  37.7172127
  54.4808006  29.6489906  37.5859985  53.9527054  29.8349457  36.8096161
  53.8601151  29.6907387  38.3134842  61.5359154  50.1399384  54.5357132
  61.9046097  49.4782867  55.1209602  62.2953300  50.6277885  54.2170982
  79.4910202  33.6136093   5.9879994  78.5869827  33.3393478   6.1420388
  79.6066360  33.5365067   5.0409417  69.0962677  39.3011780  53.6506119
  68.1703033  39.4689903  53.8257332  69.3005753  39.8514061  52.8944740
  73.2725983  62.4703674  75.5232315  73.3484726  63.0095596  74.7359924
  72.7625122  61.7098961  75.2444305  57.0627289   3.9532318  87.8018570
  56.5045242   4.1811719  87.0584335  57.8153763   4.5395989  87.7248993
  47.0720291   3.3584387   0.4212613  47.7881203   3.1586320   1.0241879
  47.3682671   4.1350389  -0.0534660  38.3796692  41.7183914  17.9143600
  38.2335472  40.8697395  18.3322926  37.5036621  42.0920181  17.8182087
  49.1829185  19.8499451  10.5692978  49.7414436  20.4672642  10.0968571
  49.5781860  18.9940739  10.4035234  78.4829941  68.3584366  85.1674652
  78.3306046  67.4471893  84.9171829  77.8959732  68.8628769  84.6042786
  58.6635780  56.4786186  70.2986069  59.4069176  56.5183220  70.9003601
  58.9300880  57.0163460  69.5529175  14.7263451  59.5000305  88.5832138
  13.7726040  59.5663910  88.6301727  15.0417614  60.1004524  89.2586670
  25.0152626  22.9553699   1.9165624  25.4763298  23.7941933   1.9214898
  25.5322056  22.4013500   1.3316995  37.3731575   2.7374017  20.2524052
  36.7734146   2.4799416  20.9525871  36.8572273   2.6499708  19.4509048
  68.1391373  25.0390835  29.5749626  67.7305756  25.8859615  29.3957729
  68.8519592  25.2405319  30.1812019  27.4780865  62.7621384  14.5469427
  26.9226246  63.1471519  13.8691072  27.3100471  63.2938957  15.3249073
  40.9516640  45.2300301   6.6075802  41.5377235  45.7469330   6.0547876
  40.9343910  44.3659821   6.1960511  75.1429291  12.6366949  35.8021202
  75.5600204  13.4919281  35.6979942  74.2823868  12.7388105  35.3955803
  29.9911671  50.4381065  82.2658997  29.2038898  50.9345131  82.4895248
  29.6645660  49.6676025  81.8012619  76.9222107  40.7305641  87.6335983
  76.3512039  40.8077164  88.3979568  77.6274185  41.3567619  87.7972717
   0.1412817  58.4053230   5.1378388  -0.4140212  58.8423347   5.7835093
   1.0201433  58.4393959   5.5155597  36.2946167  52.2342682  88.5192795
  36.9428749  52.0049477  87.8533936  36.3555489  53.1865234  88.5949554
  11.8096676  26.2805786  74.3187561  12.2413721  25.5562916  73.8656921
  11.9317770  26.0883236  75.2484665  65.8636017  38.0986862  46.5873070
  66.5783463  37.9076157  45.9799614  66.0827255  38.9556885  46.9530449
  43.1320763  60.9001160  60.3132286  42.4137573  61.5307350  60.3638763
  43.8962326  61.4259605  60.0770378  55.5090828  13.4822121  14.2814064
  55.7178383  14.3720169  13.9969788  56.1740875  13.2787886  14.9391432
  37.2307968  49.2586250  28.0722637  36.6354256  49.4969292  27.3616467
  36.7707214  48.5674706  28.5485725  21.7093582  24.5973816  88.6250458
  22.5322514  24.9613781  88.2985764  21.7208900  23.6842327  88.3382339
  37.2505035  68.3803558  52.3778458  37.0098343  67.4617004  52.2579384
  37.6531906  68.4111481  53.2456741  77.6971817   7.9491601  14.6402349
  78.0911484   8.3384600  13.8595524  77.5811920   7.0260816  14.4150591
  59.8014145  37.1305885  58.4286995  60.1195488  37.6354637  59.1771126
  59.0762901  37.6494675  58.0805702  19.5118141  33.8671608  63.0918427
  18.7803593  34.2735825  62.6270561  20.2751255  34.0504532  62.5441246
  67.8013916  32.8598022  62.5671997  67.4568253  33.7474899  62.6647377
  67.8928833  32.5384865  63.4642067  26.7193565  69.0586777  19.9137993
  26.7327995  68.8753891  20.8531914  27.3847084  68.4766541  19.5466671
  83.9735947  69.2106705   5.2117462  83.0558472  69.4607620   5.3186846
  84.0456009  68.3671875   5.6584940  21.6218834  44.6292534   5.2346916
  22.1767292  45.3907356   5.0658164  21.7703438  44.4247551   6.1579323
  71.5486298  56.9267426   7.5828376  72.0996933  56.7759209   6.8148427
  72.1281281  56.7688980   8.3281593  20.0041904  12.1640978  18.9151077
  19.7530670  13.0716381  19.0869770  19.4431019  11.6468048  19.4928799
  57.7415543  70.1216888  18.3162041  57.3905716  70.9378891  18.6723766
  57.7200241  70.2456207  17.3673058  66.4746170  16.1250668  10.6822863
  66.2152023  15.2423325  10.9463272  66.5790482  16.0699654   9.7323971
  57.9767189  30.8305206  67.8321686  57.3704605  31.5070858  67.5306015
  58.1395607  31.0468063  68.7502823  15.4040823  54.3917580  13.7598667
  15.7731686  54.6204643  12.9068127  16.1360550  54.4832535  14.3698483
   8.3150501   2.4973116  45.6568871   8.1966362   1.7296904  45.0974541
   9.2282419   2.7517374  45.5242958  53.2769890  32.4952164  61.7510986
  52.3463783  32.6708069  61.8902473  53.2942352  31.8122196  61.0806923
   0.3422007  59.5584946  22.7311115   1.1713090  59.9463577  22.4511623
  -0.2669989  59.7562180  22.0197659  20.7002411   2.1518700  77.7404099
  20.1315765   2.2888668  78.4980927  21.1755543   2.9772594  77.6453247
  33.0039062  49.6922874  53.9258995  33.1072388  48.7885132  54.2237930
  32.7373314  49.6135750  53.0099449  62.9032669  71.1794128  16.2564182
  62.5731049  71.5980377  15.4614506  63.0809708  70.2758560  15.9951916
  36.3328209  50.8739510   8.6502848  35.9660034  51.7029572   8.3429899
  35.7174416  50.2099075   8.3394985  43.0806313   3.5767913  83.8553085
  43.0545769   2.9624467  84.5888824  42.1943016   3.5566139  83.4944077
  42.9041367  64.8599625  43.4817047  43.3873558  65.5047684  43.9983864
  42.3035278  64.4537659  44.1066170  65.8574905  65.1963959  47.7812614
  66.3885193  64.7078552  47.1523170  64.9994812  65.2708435  47.3635216
  27.3626347   3.8650227  14.9902067  26.4940872   4.0144262  14.6166630
  27.8780670   3.5127912  14.2646084  16.0994358  45.9408989  32.2544479
  15.5457935  46.2373848  31.5320854  16.0610981  44.9855423  32.2090874
  82.3300705   5.0346580  41.9593887  82.1116257   5.4405732  41.1204910
  81.4907761   4.7286186  42.3031387   1.8561355  10.4249144  81.2617569
   2.1835768  10.7010775  82.1177597   1.2487725  11.1178989  81.0026932
   3.2655320  12.1055737  64.1457520   4.1807852  12.3814421  64.0963516
   2.8406334  12.7792807  64.6766129  27.7413673  25.5880737  76.0209274
  27.1032581  24.9368076  75.7295456  27.5149536  26.3800678  75.5333633
  83.8624344  16.8274860  72.5350876  84.2611465  17.1944504  73.3241425
  83.0252686  16.4716587  72.8330460  32.0063782  55.7858849  83.0775146
  31.0545845  55.8669701  83.1387177  32.1466484  54.9791069  82.5818634
  72.8280945  40.5481491  74.2407608  72.5850906  40.0926666  75.0468140
  72.0254517  40.5568962  73.7192993   7.3125291  54.8445053  47.0550880
   6.4067793  54.5532646  46.9500694   7.5888920  55.0905418  46.1722984
  83.8502808  34.9418411  48.0978851  84.7701035  35.0946198  47.8815269
  83.8757019  34.3298759  48.8334656  37.9290085   6.9161248  14.4419937
  37.9677582   6.3016543  15.1749029  37.0120163   6.9042792  14.1677380
   6.5036330  60.4738045  24.9675713   5.5520229  60.3706779  24.9735451
   6.8193045  59.8201408  25.5915203  47.7043686  64.4993286  58.5868378
  47.7156754  65.1886826  57.9228325  46.7795258  64.3991623  58.8123665
  81.5072250  37.0151939  30.9274616  82.3887863  37.1513138  31.2746677
  81.6175613  36.3504562  30.2476215   5.3440804  13.8496199  85.1891022
   4.6638913  14.4512310  84.8863831   5.2130694  13.0578852  84.6673508
  62.0744972  37.7614059  49.5064926  61.3843803  38.4235497  49.5456810
  61.7044945  37.0028038  49.9579964   8.8529577   7.0899882  48.8074532
   8.8680019   7.6381645  49.5919952   8.0235329   6.6154046  48.8627357
   0.3615717  44.2030334  63.0851402  -0.4309556  43.7236824  63.3267059
   0.1637582  44.5752831  62.2257614  67.8218155  59.3512383  14.6675425
  67.5550995  58.6047897  15.2041140  67.0440826  59.9078369  14.6279907
  16.4271755   4.0505457  77.6343536  16.7127666   4.4451222  78.4583588
  16.1503983   3.1665025  77.8753815  55.1139336  12.0987959  11.9824657
  55.8516388  11.4938984  12.0607052  55.2532768  12.7381048  12.6811075
  73.4711075  31.0013142  73.4141541  72.9963303  31.4235001  74.1300964
  73.0781555  31.3632565  72.6199112  79.4605865  44.3979721  37.1854172
  80.1603775  44.9163437  37.5826797  78.6879272  44.9608116  37.2349472
  20.0449333  50.4479561  40.9221344  20.1586113  49.5100937  40.7681122
  20.8543835  50.8436050  40.5988922   3.0407784  22.4703712  84.1816635
   3.5191443  22.8310490  84.9281998   3.3674107  22.9616718  83.4278946
  27.8991508  63.2366104  42.0415001  28.1425209  62.4813461  42.5768318
  28.6278591  63.8485298  42.1452789  45.4320526  28.2787704  26.2515736
  44.8431816  28.2645798  25.4970798  45.0111160  28.8730145  26.8727951
  74.6612320  54.5636444  61.9116211  75.3338776  54.2759819  61.2943459
  74.5688477  55.5017242  61.7451897   9.3602419  25.6599274  13.5492716
   9.5919619  24.9674873  14.1681957   9.2015724  26.4281788  14.0977640
   3.5805340   1.5670955  20.2619152   3.6169934   1.3819804  19.3234940
   4.1347771   2.3392079  20.3754444  33.6477203  31.9212723  80.7469025
  33.8220024  32.7256966  81.2355347  32.7997475  32.0733910  80.3297272
  29.8167515  41.3512955  60.5098457  29.5291672  41.6333504  59.6415291
  30.1835670  42.1403465  60.9086914  78.8540344  28.8500881  66.7288818
  79.3218536  28.1608963  67.2004700  79.4907379  29.1816826  66.0957260
   9.1007509  24.9820499  21.5802670   8.4795694  25.6118622  21.2146130
   9.6349707  24.7114067  20.8335457  78.1797104   4.9956660  49.3125000
  78.3627548   4.2148228  48.7899971  78.5280991   4.7903948  50.1800919
  55.8521919   8.7498760  50.2647858  56.3990211   8.6315374  51.0414505
  56.3912354   9.2706470  49.6694183  66.9412308  37.1079178  76.0441818
  66.4572449  36.7958565  75.2795868  66.8704453  38.0614548  75.9996567
  38.4553375  70.5197678   0.4556566  37.9509544  69.9216537   1.0070980
  37.9724274  70.5488205  -0.3702878   6.6190233  34.8418503  78.1906433
   7.0832381  34.2996559  77.5528641   7.2947011  35.4124832  78.5567932
  63.6784019  20.5873146  57.6172943  63.7500534  21.3809547  58.1476097
  64.0425873  20.8336926  56.7670631   5.3844967  69.7081985  71.7166367
   5.9398937  69.7409439  70.9377365   5.9997721  69.6422272  72.4469223
  14.1598043   7.7677665  16.8052883  14.1266937   8.0064125  17.7316704
  14.6282539   8.4908733  16.3882713   2.6267154  47.1483116  88.4960175
   1.8493083  46.6705170  88.7851257   2.4333653  48.0640793  88.6965637
  82.3811722  11.7748985  17.6618347  82.3289490  12.6581621  17.2966633
  82.9232788  11.2900915  17.0394917  86.0435104  20.4798775  42.9088554
  85.3673706  20.0148563  42.4160881  86.7672577  19.8563805  42.9694138
  57.3134995  48.1785698  14.8781891  56.6514511  48.7909241  14.5573368
  58.1430740  48.5339241  14.5591860   7.9621191  49.3881531  45.6020088
   7.5546756  48.8513222  44.9222755   7.4158063  49.2501144  46.3757782
  33.0217667  70.2951889   4.3104887  32.7276688  69.4638367   3.9382095
  32.3665810  70.5046616   4.9761329  18.4927063  39.4097824  73.6391983
  19.1731281  40.0410957  73.4053192  18.8164120  38.9937363  74.4381714
   6.4296637  37.6249008   3.9467454   6.9981146  38.3791962   3.7914062
   6.0658154  37.7748566   4.8193045  59.5241089  51.5679169  83.6051178
  59.2966423  51.9982719  84.4293060  58.7810402  50.9929543  83.4220963
  68.6041336  14.5223732  72.7565765  69.2724304  15.0181694  72.2835007
  67.9249573  15.1664753  72.9567871  56.1515770  16.3182831  79.2662888
  56.4825172  15.5142794  78.8659286  55.5393257  16.0171261  79.9376221
   0.9296772  51.2953720  34.6117859   0.5930613  51.5111389  35.4814796
   0.4716683  51.8944778  34.0222664   1.1169733  64.1083145  38.6376228
   0.8417596  64.6911697  37.9299698   2.0734153  64.1386795  38.6146355
  44.0027199  57.0506439  58.4654465  44.7878914  56.5779953  58.1891518
  43.2775764  56.4805145  58.2098122  71.0557327  65.4515228  48.3760567
  71.0244141  65.9116516  49.2148209  71.3187561  64.5593262  48.6019897
  84.3686905  63.1693192  26.3249035  85.2875519  63.1237259  26.0606270
  84.2842560  62.5090370  27.0127487  70.3885574  63.9213791  20.8328381
  70.3354263  63.0402565  20.4626541  70.6596222  64.4733963  20.0993252
  27.4067459  29.3183308  76.7453766  26.9785290  30.0783978  77.1392746
  26.6850853  28.7562828  76.4633408  23.6568127  43.5685196  70.9488068
  23.7826271  44.3328476  71.5111237  24.5018883  43.4481010  70.5157013
  21.3873787  31.1554470  87.7524033  22.3404751  31.1159000  87.6732025
  21.1606064  30.4002991  88.2951355  31.1471786  11.4789848   3.3556287
  31.4703007  10.9609356   4.0928187  31.1802845  10.8803587   2.6094499
  76.9336700  40.9722137  25.1096554  76.3151474  41.0883865  25.8308830
  77.7409439  40.6779404  25.5314903  58.6026230  43.0036507  44.4352188
  58.7364769  42.0700645  44.2717323  57.6813049  43.1541710  44.2236748
  53.0672073  24.0134945  17.1824722  52.6475143  23.3053780  16.6939468
  52.3907814  24.6866207  17.2571907   6.0333104  67.9109802  25.7220783
   6.9556141  67.6609344  25.6667042   6.0005088  68.5490189  26.4348583
  73.4856110  71.4941025   2.6528194  73.1704102  71.7289810   1.7800559
  73.2543869  70.5703964   2.7504241  50.3607445  36.5292015  75.5257111
  51.2315254  36.8776360  75.7169189  49.7996368  37.3028488  75.4722290
  77.9082184  46.3544197  32.0070686  77.7506790  46.0374680  32.8964272
  77.9611130  45.5600967  31.4755764  77.9832993  15.8872833  10.2362547
  78.8805008  15.7252598   9.9446774  77.8980103  16.8406582  10.2303200
  38.1299133   6.7685070  45.9207687  37.4566650   6.2979145  45.4293327
  37.8942947   6.6341419  46.8387337  53.6784515  68.5086365  81.9039841
  53.3551140  67.7875290  81.3638916  54.2170029  68.0846481  82.5721359
  73.6168137  39.7380562   7.4065709  74.2967453  39.1292076   7.6950674
  73.6089554  40.4227524   8.0754204  13.4677896  50.0187874  13.7404385
  13.4318705  49.1944733  14.2256680  12.6744614  50.4858170  14.0026312
  69.0954895  33.6672516  52.2261581  68.5554199  33.4022789  51.4816093
  69.0599976  34.6237679  52.2194138  44.9698143  52.9784889  23.7851849
  45.7271347  53.3511696  24.2366352  45.2989464  52.1698265  23.3927937
  72.4828110  41.2460175  38.2867393  73.0997696  41.4015808  37.5716248
  71.8424301  40.6352005  37.9219742  21.6274395  53.5109406  35.2589836
  22.1097546  52.9054565  34.6959610  22.1329994  53.5368805  36.0713692
  61.5742416  39.8501930   4.5198145  61.3508720  39.4272575   3.6906796
  61.2607307  39.2432976   5.1903520  22.8547344   4.6240559  85.4923630
  22.2267780   5.1403337  84.9870300  22.3145695   4.0108891  85.9908371
  10.2247000   5.2400551  35.6617126  10.7203474   4.4259958  35.5729828
  10.3806772   5.5182796  36.5642052  68.6464157  31.7360401  70.6864243
  69.0319595  30.9850235  70.2352448  68.4034042  32.3387566  69.9836426
  23.5423870   5.9811578   0.7238658  23.1853752   6.3421502   1.5353209
  23.5610027   5.0354028   0.8702650   3.4026654  42.5548439  46.5506516
   3.1046538  41.6917343  46.8378143   4.0427265  42.8193092  47.2114220
  15.1347952  13.2710028  64.5562134  15.9291573  13.3397980  64.0266037
  15.2469769  13.9284906  65.2427673  50.9569397  41.6044121  21.5184383
  50.8401794  42.4667587  21.1197433  50.1859093  41.4911308  22.0742359
  57.9580956   4.6850467  57.8477516  57.4068909   4.2739248  57.1818810
  58.7347221   4.9757676  57.3696671   3.9316440  19.2040100  56.6764870
   3.7377114  18.3760433  56.2370644   3.1689610  19.3646526  57.2321320
  77.9394302  60.5925903  56.3379860  77.3913040  61.3600693  56.5015640
  78.7363663  60.9470749  55.9436836  80.7381058  50.5748367   9.9239035
  80.9756241  51.4832611  10.1098680  79.8010330  50.5286369  10.1136274
  56.0776787  17.1645756  47.9518166  55.9334373  18.0495815  47.6168671
  57.0155144  17.0137005  47.8337784  80.4897156  55.0139999  68.5330048
  79.5506439  54.9057007  68.6834946  80.8409576  55.2702560  69.3857574
  65.7143097  29.9131107   5.9626040  65.6840134  30.7287235   6.4626923
  66.5467987  29.9516563   5.4917421  54.2357521  62.0644951  42.9045258
  54.2748032  62.0676193  41.9481277  54.9168053  61.4465103  43.1700287
  29.9422703  45.6269035  70.7906494  29.2231960  45.0391197  71.0223312
  29.7644176  45.8771667  69.8840256  10.6685705  21.1242008  26.4652901
  10.6352148  21.7825165  27.1593647  10.1689215  20.3850479  26.8120384
   0.3445480   7.2958388  18.2334270   0.7666709   8.1541719  18.2695999
  -0.4333555   7.4340792  17.6930695  79.3782806  41.0201492  37.6099091
  79.2950287  41.9730492  37.6457481  78.5033264  40.7119904  37.3738480
  15.5262918  46.8560600  12.3917246  15.1910982  46.0293274  12.0447521
  14.7661791  47.2699738  12.8005466  32.7442818  43.3630180  16.2308617
  32.5398598  43.1557198  17.1427116  31.8994846  43.3282852  15.7821503
  28.3546448  68.0619202  16.1483631  27.8953857  68.4211349  15.3892326
  29.2826519  68.1684036  15.9393282  12.1591492  28.2490578  27.9066334
  12.5503845  27.4053268  28.1330929  11.8117399  28.5818024  28.7341728
   6.5766692   8.0523062  13.5332556   6.5007010   8.6441879  14.2816792
   7.2419252   7.4166718  13.7971411  70.2677612  55.4462471   4.6049051
  69.8611679  55.1954269   5.4343634  70.4669952  54.6147003   4.1747127
  58.2088814  70.9684982  52.8732071  58.8871765  70.3991089  53.2364426
  57.6954994  71.2440414  53.6326485  61.3441277  42.4249954  84.7237701
  61.9283066  43.1832542  84.7202301  60.5469551  42.7347984  84.2939148
  36.7666740  61.4407005  39.9044228  37.6913986  61.3226051  40.1216087
  36.5455246  60.6751137  39.3741379   8.5959272  45.9781342  86.6276627
   7.8824329  46.5534325  86.3516388   8.2744703  45.0946503  86.4477921
  71.8127060  11.3808708  17.8676796  71.6923370  12.1092453  17.2584095
  72.7615433  11.3107853  17.9727173  67.0383987  45.4278564  36.2818260
  67.6484375  45.9552193  35.7661057  66.3230743  45.2295914  35.6774788
  33.4534645  21.1907806  12.1355448  33.6754684  21.1559830  11.2050953
  32.8481102  21.9285107  12.2099161  53.3773575   9.0285187  29.1432629
  53.0156403   9.0298672  30.0294857  52.6547012   8.7319183  28.5900650
  76.3179550  22.1706734  33.0965233  76.0145874  22.9493809  33.5632286
  76.2311020  22.3973541  32.1706161  69.1347580  62.6065559  70.9187622
  69.3348923  63.5423546  70.8974533  69.5835571  62.2833748  71.7000275
  60.2539825   1.9878368   6.8924847  60.1840782   2.9192607   7.1017556
  60.0458641   1.5416446   7.7133570  49.8148193  68.6872406   2.4111376
  49.3386574  67.9655380   2.8218024  49.1470184  69.3537903   2.2499590
  31.8484898  30.1107197  69.0170746  31.7974396  29.1558208  68.9747314
  32.4741516  30.3477135  68.3325195  74.2105789  47.8224678  39.4638290
  73.4690933  48.3090363  39.8239517  73.8389282  47.3231277  38.7366638
  45.6097488  43.8513680  66.1780090  46.1054230  44.5424805  65.7388077
  46.2282639  43.1248970  66.2548981  13.8421688  62.6568985  66.4713974
  14.0895643  61.7696877  66.7319565  14.5173769  62.9199104  65.8459778
   3.4524789  41.3041878  17.1089687   2.9563148  41.9073448  17.6623707
   2.9647295  41.2781487  16.2857704  29.3095493  16.5458889  79.0831070
  28.5900745  17.1747303  79.0270386  29.0827522  15.9881773  79.8272552
  66.2387466   3.7762060   4.7919111  67.0905228   3.8126028   5.2271008
  65.7976303   4.5819225   5.0611033  42.4346390  33.1753922  63.9445801
  42.2260208  33.0562668  63.0180168  42.9288902  33.9945374  63.9754181
  56.3409958  23.4550247  37.1106987  55.5797386  23.7704716  37.5977364
  56.9322586  23.1168060  37.7831955  64.5152817  39.7946854  10.2523193
  65.1827698  40.4807510  10.2510920  64.8880310  39.0968971   9.7134466
  30.3136845  70.9984818  79.2370453  29.5862427  70.5464706  78.8095551
  30.5355244  70.4423599  79.9838715   2.5836477  23.6067085  64.5980606
   1.8222847  23.0269432  64.6188126   3.1779463  23.2452335  65.2556152
  75.9414597  42.8748398  46.2812347  76.5724030  42.2714691  45.8886909
  76.4336777  43.6855812  46.4102592   8.4493542  49.7982788  30.0016670
   8.9181318  50.4075317  29.4313259   8.0434065  50.3557510  30.6654892
   6.0906034  19.1818619  58.6138039   5.3326430  18.9790249  58.0655479
   5.7213955  19.6214180  59.3797722  23.0352440  50.9494667  25.1417294
  22.5830612  51.6306953  25.6394119  23.0994987  50.2121315  25.7487221
  47.9632072  43.1805077  74.4096298  48.6679077  42.5491753  74.5546951
  47.2578506  42.6661148  74.0170670  63.0360489  55.3767128  57.2781448
  62.4380341  54.6419563  57.1412430  62.4634705  56.1180305  57.4752159
   9.3285351  38.7148476  57.7295570   9.3317299  37.7963409  57.4601746
   8.5513105  38.7997894  58.2817688  13.6896257  43.8039513  27.7858086
  13.5616808  43.6884613  26.8442535  14.2838774  43.0962601  28.0353527
  59.0513115   1.5959818  43.7614708  58.2294502   2.0860019  43.7359238
  58.8034286   0.7004014  43.5318604  48.2118301  10.3084879  57.5194016
  48.1035995  11.2507849  57.3905792  47.5024414   9.9143181  57.0118332
  67.5889893  57.6698532  21.1724873  67.5491486  58.1745796  21.9848251
  68.2857819  57.0307159  21.3215504  17.0465565  46.4720078  78.6216354
  16.5155258  46.0993881  79.3254776  16.9788609  45.8369675  77.9086380
  66.9897690  43.7830620  38.5848770  66.3500061  43.0912590  38.7532310
  66.7430801  44.1343956  37.7293396  62.3011093  30.5321712  24.0796127
  62.0087891  29.7668266  24.5746174  61.5007133  31.0303650  23.9140720
  59.8939896  58.8997574  86.0837097  60.0484581  58.1607323  85.4953079
  60.4773064  58.7410164  86.8258514  54.6829758  48.7335739  46.7386208
  54.1134033  49.0916824  46.0577583  55.3818893  48.2904396  46.2575951
  76.3553619  58.4654922   9.8915815  76.4245071  57.5196075  10.0210180
  76.9452057  58.8404770  10.5455761  82.8235703  24.8913574  59.7730942
  82.1299591  25.4852982  59.4860992  82.6897507  24.8051586  60.7169647
  20.3465309  30.1547375  81.2708206  19.6884975  30.5185890  80.6785049
  20.5215816  29.2792778  80.9256210  47.2010689  45.6874466  48.7181625
  47.5541306  46.5770416  48.7323837  46.9822884  45.5019608  49.6313820
  50.8643341  48.1197929  59.7211571  50.6208382  48.1283875  60.6468277
  50.8937569  49.0437050  59.4726486  13.2529869  31.6667328  75.9022675
  13.8425903  31.3836498  76.6011734  13.4868517  31.1170864  75.1543198
  71.3129120   6.9885197  13.9539490  71.4498672   6.9508743  13.0073462
  72.1933899   6.9353142  14.3256474  79.6345215  56.8702927  30.6152973
  80.1251678  56.5454330  29.8603363  78.7821808  56.4395676  30.5503788
  30.5304451  47.5157928  85.2038193  30.9404736  47.4398689  86.0654144
  29.9527950  48.2752762  85.2795563  71.7645645  11.4118690  43.3131866
  71.2355576  11.6761179  42.5604935  71.1868210  11.5336647  44.0665855
  67.5328751  62.9739304  52.0757675  67.1480789  62.3063393  51.5078850
  67.6537476  63.7329712  51.5052643  70.5474319  43.7061806  31.3630409
  70.4174194  44.1250114  32.2138710  70.0790176  44.2678604  30.7455177
  20.2422657  11.8042669  61.5006752  20.4376621  11.8848953  62.4342422
  20.4766521  12.6561584  61.1324692  19.4551067  27.2952766  19.5007629
  19.5082073  26.4410400  19.0721664  19.7977352  27.9103260  18.8522644
  53.3460655  49.6989670  44.7836418  52.8300247  50.2825012  45.3398972
  52.7103386  49.3261414  44.1728325  75.4555969  25.3472939  44.4816704
  75.7632523  24.5391636  44.8921700  74.8767319  25.7419224  45.1339035
  83.4336166  59.7208176  33.3385963  83.9117126  60.5488205  33.3840790
  82.5414429  59.9445267  33.6035728  63.5893059   1.6716424   6.6531277
  62.9843826   2.2819805   6.2314801  64.0005035   2.1843321   7.3490415
  59.3689728   6.6142292  66.5137939  59.2896538   5.7746196  66.9665604
  58.6651497   6.6039824  65.8651352   2.5331659  70.3101273   1.0205312
   2.4257481  70.9633865   1.7118696   1.6714861  69.9008102   0.9417985
   4.9115243  42.2058029  63.7517357   4.2068496  41.9432793  64.3439713
   5.5735354  41.5213089  63.8488998   0.7025520  59.0250015   0.0525505
   1.3358390  58.6351204   0.6551871   1.0900997  59.8655777  -0.1913176
  62.5839806   7.0272398  77.9140625  61.7803650   7.3964677  78.2802658
  62.6736374   6.1761675  78.3428650  71.6659546  29.3456993  57.5791512
  71.0425262  29.4690838  56.8633728  72.4905319  29.1291542  57.1439285
  74.1106949  54.9646988  22.2032928  73.8099976  54.0655136  22.0718288
  73.8709717  55.1676292  23.1074963  35.1925735  23.6367092  81.4328842
  34.4618416  23.3970737  80.8629379  34.8794327  23.4455566  82.3169861
   8.4382677  53.3355408  17.0200996   9.1325111  53.1321068  16.3933048
   7.7052011  53.6285515  16.4788151  36.7398682  36.5421181   5.3365088
  37.0422974  35.6566010   5.1349359  36.8442459  36.6208153   6.2847404
  67.0689926   2.9627099  29.3982182  67.9358444   2.8596649  29.7908745
  66.6816711   2.0883725  29.4399796  83.3306885  42.2645874  70.8868408
  83.3138199  43.2215767  70.8760605  83.8027725  42.0423813  71.6893311
  15.0908747  48.9872360   8.1768637  14.9204712  49.8346672   8.5880327
  14.3909636  48.4194832   8.4993706  78.9165573  42.0847702  71.7826538
  79.3722076  42.3564339  70.9859085  77.9888306  42.2085266  71.5820465
   0.9585221   0.4239913  60.6886826   1.3795336   0.5402298  61.5404282
   1.0278499  -0.5144505  60.5133171  53.5382462   8.0111170  51.1943054
  53.8515511   7.4553761  51.9079056  54.3316154   8.4049759  50.8314400
  23.0869045  66.9161148  51.5342979  22.3709412  66.2815475  51.5651894
  23.4877834  66.8673477  52.4021378  50.9724312  26.4968948   9.7837019
  51.5484390  26.2490788   9.0604925  51.0880852  27.4432869   9.8685303
  84.0804977  69.1156693  26.2266636  83.2349930  69.4732437  25.9555550
  84.5631180  69.8707504  26.5630589  81.2375565  64.3735886  31.7434998
  81.5843048  64.5205078  30.8634930  80.7692795  63.5411301  31.6805267
  39.4618988   3.6736534  72.3553085  38.9443016   3.3549395  71.6158829
  39.0358963   3.2976685  73.1256256  34.6193428   4.1774011  61.5151787
  34.4538574   4.7658439  60.7785759  34.0582504   3.4202199  61.3475876
  59.3217545  14.1562395  43.0603333  59.2853317  13.3395023  42.5624924
  60.2558136  14.3543854  43.1274338  37.7555161   5.2333536  55.1726494
  37.3528786   5.8033900  55.8277626  37.0209923   4.7566767  54.7860222
  11.3430614  23.4743328  17.6803436  11.4637585  23.5190926  18.6288471
  10.9847040  22.6003590  17.5254784  18.3812847  53.3833313  72.8975754
  17.5232239  53.3247795  73.3177414  18.1988487  53.2747078  71.9642258
  65.8317032   4.5987945  27.4232845  66.3060837   4.1205821  28.1033649
  66.4517136   4.6597862  26.6965828  72.5172501  20.3019123  38.2337570
  73.0769043  20.5963306  37.5151901  71.6658096  20.1451912  37.8254547
  11.9000015  69.0146179  79.6079559  11.1479177  68.9284439  80.1937714
  12.0641279  68.1245575  79.2963791  17.2799129   1.9053271  14.3900404
  17.7540474   1.1988159  14.8285255  17.7820282   2.6940424  14.5950737
  55.9374809  30.1393776   4.5591431  56.3304024  30.2542477   3.6938982
  55.3663521  30.9000893   4.6657419  53.3291855  62.2482262  33.1518517
  54.1547775  62.7303696  33.1053009  53.5897484  61.3271980  33.1584740
  84.2331314  68.1026230  82.9008331  83.7307663  68.6338654  82.2830582
  83.7887421  67.2548370  82.9042816  74.4119568  21.9603844  59.3707314
  75.1146469  22.1912880  58.7631569  74.4968948  21.0140324  59.4866486
  20.8006763  64.9963455  26.8301125  21.2201958  64.6799469  26.0300331
  20.9376373  64.2942352  27.4661293  69.1442490  26.8767395  77.6567688
  68.1979599  26.9027748  77.5150681  69.3184662  27.6106243  78.2460861
  64.8436050   0.7212651   9.8813505  64.2508698   0.0108013   9.6361237
  65.7145844   0.3248268   9.8595657  78.9063721  38.7439842  73.6633606
  78.5042801  39.1414452  74.4357452  79.4048920  38.0028305  74.0074463
  25.0805302  32.3672485  15.2527151  25.0627022  33.2196884  14.8176785
  24.5959663  32.5036545  16.0668545  84.2125702  43.9593849  51.2967567
  84.3763580  44.8214874  50.9144249  84.9771729  43.4389076  51.0503502
  72.0274963  34.9114113  58.0545120  71.3205338  34.3505821  57.7352867
  72.7730179  34.7003212  57.4924850  49.4212532  39.1718025   4.6217680
  49.7670364  39.3751411   5.4908586  50.0844498  38.6059723   4.2264948
  31.9374924  46.7177086  12.9767036  32.6424217  46.4267387  12.3982210
  31.3168144  45.9890442  12.9831715  66.1632690  19.4072285  32.5231400
  66.1860733  20.0181160  33.2597046  66.9953384  18.9370289  32.5760956
  12.4524593  55.5442047  49.6247864  12.2752628  55.8476448  50.5151558
  11.7256985  54.9546585  49.4235802   8.8208303  54.5393829  67.9034195
   9.2774019  54.0634346  67.2097015   9.1051941  55.4472847  67.7981644
  55.6428757  32.5313950  82.3255997  54.8409309  32.9854698  82.0668793
  55.4265823  31.6019478  82.2509079  81.8340149  35.1208191  86.0058136
  81.7360153  35.4887581  85.1276016  81.1914520  34.4122581  86.0417023
  66.8589249  37.4267311  26.4346161  66.6846390  36.4873161  26.4925766
  67.7650833  37.4839706  26.1315804  30.3697529   0.9252268  42.3311157
  31.2787800   0.6253999  42.3292198  30.1196747   0.9375142  41.4072418
  14.8921175  63.5071907  80.9252701  15.6805992  63.6826859  80.4117279
  14.9073820  64.1654129  81.6200638  86.1234436  56.4752350  32.0002441
  85.3235321  57.0009155  32.0060463  86.6750107  56.8857765  31.3343163
  76.8993835   4.3422389   2.6124947  77.8105164   4.0574942   2.5418503
  76.4281540   3.7955225   1.9837830  43.4516220  59.1305428  20.4316387
  43.5616951  59.7122231  21.1838131  43.2567177  58.2759552  20.8162422
  43.1077309  42.3099976  12.2363873  43.8310089  41.6928787  12.3471422
  43.3563499  42.8365364  11.4766645  41.1733322  31.5553627   7.1281943
  41.0761681  31.5331497   6.1761980  41.0067406  32.4677925   7.3647294
  85.8288193  66.7256088  39.6674614  86.7835922  66.7168427  39.5999489
  85.5549622  65.8854675  39.2994957  59.9530144  11.2745361  72.2655182
  59.1207199  11.1421728  71.8116531  59.9550972  10.6149454  72.9591827
  18.2966576   9.9068384  66.2644424  18.8701038   9.2923012  65.8064728
  17.4236832   9.5215435  66.1889648  85.0200272  48.2927933  74.8855057
  85.3577347  47.3983536  74.8390121  84.6137695  48.4401207  74.0314102
  60.2352066  22.8562012  55.5773468  59.6478386  23.3241558  54.9838409
  61.0043640  23.4215469  55.6481781  64.7140121   2.0274148  38.3553925
  65.0715637   1.2163666  38.7167664  63.7764130   1.8568147  38.2657700
  85.5707550  20.6128368  13.7310247  84.9139862  21.3059425  13.7981100
  85.6735840  20.4705811  12.7900572  22.6224804  67.0115738  84.9602585
  21.7461224  67.3846664  84.8652420  23.1741028  67.5476990  84.3906021
  79.4159241  39.1245995   1.0628437  79.8555145  38.3545761   0.7022085
  79.3939972  38.9677010   2.0068421  19.3978081  56.0756683  49.9588776
  19.3482647  56.8954964  50.4504662  19.4392776  56.3481789  49.0422249
  67.9127121  52.9218636  87.3815613  67.9589844  53.8140564  87.0379257
  68.5577698  52.4341850  86.8694000  29.1049061  12.7058153  86.8743668
  28.1630764  12.5890331  86.7496643  29.4791603  11.8435287  86.6937332
   8.0742626  62.0997925  29.6769505   8.2343206  61.2693405  30.1252384
   8.6412048  62.7272263  30.1254330  85.8711777  58.9408035  16.7305908
  85.4932022  59.8047333  16.5662975  86.2828217  59.0191917  17.5911922
  65.5624771  58.1677895  73.9601364  64.7080383  57.8743134  74.2764130
  65.9662323  57.3803101  73.5953217  60.1251564  46.1028976  71.2729645
  59.4928360  45.5824356  71.7684631  60.7801247  46.3639755  71.9203415
  26.9285889  45.7345581   6.0713444  26.1639538  45.6304092   5.5050244
  26.6060486  45.5305557   6.9491735  67.7574615  10.3724489   7.2004108
  67.9821777  10.0187569   6.3398104  68.5941315  10.6565285   7.5685287
  30.0329666  44.7174988  44.1084595  30.1311092  44.8155785  43.1613693
  29.0873413  44.6643829  44.2470360  55.5957260  36.0359879  16.9515209
  55.8629303  35.1189384  17.0135765  54.6991501  36.0474167  17.2865639
  62.8838196  34.7622986  75.3686523  62.5988312  35.5785599  75.7794189
  62.2384605  34.6026688  74.6799850   4.7472081  67.2561111  40.7168350
   4.5359731  68.1627426  40.9396057   5.0533752  66.8726349  41.5386848
  31.4802361  58.1790657  54.8778076  30.7332268  58.7090988  54.5998192
  32.0795517  58.8046646  55.2848473   6.2164774  48.6798477   8.1735306
   6.7702122  48.9654694   7.4468732   6.8261986  48.5367203   8.8973989
  59.8933754   3.5699768   1.6192641  59.0148964   3.3939621   1.9562005
  60.0066948   4.5142541   1.7275740  61.2780037  39.6121750  68.7734528
  60.5228577  39.0679131  68.5503769  60.9411774  40.2378883  69.4147568
  73.2466507  48.6339531  12.2030916  73.6260300  48.6770782  13.0808430
  73.9980774  48.5100861  11.6232147  79.1397171   6.8376117   2.0103500
  78.4028854   7.2807536   1.5897092  79.6423721   6.4673200   1.2847804
  77.0472794   2.8658812  86.3075485  76.6889496   3.7136238  86.5705338
  76.5859756   2.2305884  86.8551178  79.3168411  17.1795940  36.4687538
  80.2480087  17.0497494  36.2890167  78.8843765  16.4438190  36.0353508
  63.3272629  11.7857161  24.3205166  62.7877007  11.0384665  24.5788269
  63.2210083  11.8409557  23.3708363  50.1580887   2.1509130  71.3702850
  49.5484428   1.6602968  70.8190460  50.6986847   1.4792762  71.7860870
   9.4650660  58.2884827  63.1213417   9.7484589  58.9829865  62.5267105
  10.2734804  57.8383293  63.3664093  51.6613884  70.9345093  41.6935043
  51.0493164  70.2058716  41.7968979  52.4961891  70.5176163  41.4801025
  80.0316086  60.3561935  51.8393440  80.3496628  59.9235992  52.6317711
  80.5948181  60.0217133  51.1413803  55.5215721  61.2105751  69.5355530
  56.1985397  60.5537910  69.3725052  54.8390236  60.7378654  70.0118942
  22.3843536  56.2794189  17.3978901  22.8333454  55.9425049  16.6225662
  21.7487164  56.9065056  17.0529881  83.8705826  27.0508690  62.2886467
  84.0670624  27.3885651  61.4148102  84.5844727  27.3760052  62.8371735
  71.3980179  49.4871178  29.9609909  71.9224243  49.6267929  30.7494831
  71.7876816  50.0685730  29.3080730  59.8641205  25.4922562  59.0792427
  60.3669968  25.5125275  59.8934517  59.2843285  26.2517014  59.1368561
  51.9537430  26.3771343  40.9344635  51.5501060  27.0775547  40.4219017
  52.2416840  25.7384529  40.2822304  85.2061462  44.8744431  10.2778311
  85.2598419  43.9924965  10.6459532  84.4350128  44.8509483   9.7112322
  10.3588772  52.5480270  46.5867538  10.1974163  53.2400513  45.9454575
  10.9791079  51.9608994  46.1545219  39.8700218  62.9831390  26.1816998
  39.7999153  63.2520752  27.0976639  39.3859673  63.6523399  25.6978703
  43.1195107   0.5418022   5.1645670  43.7702179   1.1001394   4.7390399
  43.6045761   0.0942535   5.8578525  20.2009850  17.1617470   2.8779516
  20.3598537  18.0906811   2.7103987  20.9432201  16.8849220   3.4152486
  11.1829319  12.8287687  64.2999802  11.3280430  13.5946293  64.8555298
  11.7187948  12.9910526  63.5236130  56.2897682   1.9663343  49.2857895
  56.4714813   2.7399731  49.8193588  55.8550301   1.3591323  49.8845749
  75.6068192   3.8748055   5.4063706  75.4161606   4.6785550   4.9227715
  76.2808838   3.4368100   4.8867350  78.2224197   7.8884859  61.8658905
  78.1051712   8.2190580  60.9752693  77.5898209   8.3805819  62.3892403
  23.6375542   2.7181137  16.2981930  23.7402096   1.8415455  15.9276228
  24.0788383   3.2949314  15.6746693  28.0374260  60.6420135  61.2136078
  27.2683449  60.5003662  60.6616249  28.4243717  59.7721748  61.3130264
  52.9486313  69.7561035  77.9820404  53.4351120  70.5121841  77.6535339
  52.8020096  69.9495316  78.9079590  33.5402489  59.2117233  88.0881271
  33.0318985  59.2023010  87.2771225  33.1898613  59.9531517  88.5818329
  20.6661186  11.0337305  86.4494705  21.6181393  10.9603453  86.3823700
  20.3617668  11.0392990  85.5419617   1.8764476  49.2483063  25.2530823
   1.0236797  48.8701706  25.0385265   2.2299919  48.6725540  25.9311314
  79.3787537  65.3940353   1.3300887  78.8060760  64.6318893   1.4161688
  80.1656952  65.0553207   0.9032196  64.4592590  54.0395241   5.1259456
  63.9029350  53.5103607   5.6975398  65.3517685  53.7741699   5.3478670
  10.4731436   2.0504148  48.8715744  10.2676477   2.9249306  49.2020683
   9.6267691   1.6053319  48.8293495  38.6524391  20.7180843  72.5385666
  38.1856995  21.4352093  72.9676514  38.1306534  20.5248089  71.7597122
   6.7580671  26.5620098  86.3140259   7.0806870  27.4561291  86.4267120
   7.1065102  26.0849533  87.0671768  75.7912521  23.2681789   6.4608216
  75.0829239  23.3499737   5.8222184  76.5101013  22.8683853   5.9712820
  77.0416489  58.1674080  45.9434471  76.6051712  57.7080994  45.2259789
  76.3799515  58.7727623  46.2780037   8.0313559   6.9078941  78.4911194
   7.1983900   7.3527966  78.3347168   8.5331478   7.0498939  77.6884537
  27.6260185   3.1676946  83.1976242  27.3904114   2.3152537  82.8314743
  26.7989540   3.6478603  83.2380753  38.4364815  46.8754005  45.9383698
  39.3452873  46.5846405  46.0142670  38.1116295  46.8835526  46.8387260
  57.4775963   7.0846863  23.4332066  57.9423866   6.5702825  22.7732124
  57.7711067   6.7227917  24.2693386  63.3510780  18.1001797  45.8295555
  63.9793777  17.5653095  46.3147163  62.6009598  18.1818905  46.4185181
  76.2215195  19.1652946  20.6334915  76.2942963  18.2628384  20.9441509
  77.0386734  19.5802956  20.9096584  70.7345428  52.8531761  61.3180847
  70.1437302  52.1885338  60.9639206  70.1895065  53.3633881  61.9171333
  19.0449429  69.7346420  32.8574677  18.1241455  69.8451767  33.0944176
  19.0372601  69.0671844  32.1714134  24.7274952  70.3967361  50.0681343
  25.2037525  69.7962494  50.6415710  24.8244801  70.0201874  49.1934700
  73.0070724  22.1965961  40.4833145  73.0321960  22.9939270  39.9542885
  73.0199432  21.4844074  39.8438988  71.2268600  60.4949799  79.2153320
  71.4810410  60.2136116  78.3364410  70.2725372  60.5598640  79.1794128
  85.8384781  66.3148499  14.6133051  86.0367889  65.8513260  15.4269667
  86.6441879  66.2534485  14.1001873  22.9157944  56.6880035   0.2512418
  22.4202290  57.3814926   0.6868159  23.3070240  56.1873398   0.9671353
  76.3921509  35.1658287  38.3024521  76.2334671  36.1087303  38.2578773
  77.1594772  35.0785561  38.8679771  85.1673279  56.6707458  63.5490990
  84.6797180  56.1388893  64.1780624  85.4482269  57.4365616  64.0499420
  83.7341690  11.1899948  35.9138374  82.8216705  11.4790697  35.9160728
  83.9327011  11.0307398  34.9910927  20.4936752  46.7433853  49.2498093
  20.8298550  45.8763542  49.0229378  19.5469131  46.6726189  49.1278763
  49.0087090  50.2129211  38.3290787  48.6878471  50.2074280  37.4272728
  49.4345245  49.3624649  38.4369736  49.7388268  70.2060165  47.4752922
  48.8307838  70.0740051  47.7478065  49.7274666  71.0356903  46.9980698
  12.4583931  62.1697006  23.8719883  13.1679344  62.8094368  23.9313087
  12.8530493  61.4139633  23.4368553  38.5971375   6.9685140   5.9374127
  38.8622704   7.7578917   6.4094501  38.4279366   7.2688909   5.0444536
  86.1603470  58.6736298  64.8716660  86.8834610  58.9778748  64.3232422
  86.4856033  58.7619667  65.7675629  64.4463501   9.2159967  61.5550041
  63.7961655   9.8202333  61.1966934  65.1379242   9.7830572  61.8961906
  72.6102066   7.4298425  88.0631638  72.3527985   7.4253454  87.1412354
  71.9950256   6.8310485  88.4865189  37.5429688  31.2084026  62.6684265
  38.3713684  30.9995422  62.2367325  37.3602486  30.4460754  63.2177010
  34.8661652  42.4207039  18.1697731  35.6471024  42.6016846  18.6928558
  34.3293343  43.2079773  18.2605591   0.5557076  19.6931705  71.3346481
   0.7307253  18.7684135  71.5090714  -0.1392201  19.6854134  70.6764297
  28.7594051  62.8469810  65.0390472  29.6195908  62.5199051  65.3023682
  28.1626797  62.1192245  65.2137527  73.5712204  59.3882751  80.1667480
  73.3048401  58.5700798  80.5860672  72.7491455  59.7984467  79.8980942
  67.2464218  21.2907085  34.3779221  68.1528168  20.9848614  34.3440323
  67.2673492  22.0357723  34.9784851  49.6580086  43.5734520  17.0660343
  49.9864998  43.4277954  17.9532261  49.0908813  42.8217430  16.8941917
  23.1490593  51.9674797  33.0929604  23.1106224  51.0175171  33.2039719
  24.0837193  52.1731567  33.1114311  56.8259239  46.7716942  76.8626404
  57.7528305  46.6124191  77.0407028  56.5264549  47.2974968  77.6043167
  83.0389709  56.5445976  41.5733795  83.5316086  57.2351570  41.1299095
  82.3924408  57.0129623  42.1014633  11.3002529   6.7475357  10.6819830
  12.1828804   6.6340609  10.3293877  10.7207794   6.5127463   9.9571962
  47.0105820  45.1472893  79.6747971  47.0451279  45.4108276  80.5943604
  46.3946609  45.7600212  79.2730179   2.7064059  65.8065720  86.5015717
   3.2138376  66.6121521  86.4026031   1.8246325  66.0419540  86.2129517
  11.9018946  65.7169724  38.5692940  11.8808384  65.5086975  37.6352654
  12.7423019  66.1568069  38.6977234  36.2553291  32.1038742  68.9804306
  36.7072487  31.4934998  69.5630493  36.8964195  32.3027725  68.2980270
  31.4707355  14.7998772  86.1474991  31.6857986  15.4564762  85.4850311
  30.5482121  14.9563885  86.3492050  30.3410816  20.6742001   5.3265414
  29.3950558  20.6038170   5.4542747  30.7185097  20.3186951   6.1311502
   8.8039694  60.4264259   7.6086836   8.0698757  60.6005402   8.1977701
   9.3834667  61.1802711   7.7188387  31.8182621  42.5443535  68.5751190
  32.5306587  42.5424995  69.2144318  31.1065845  42.0729675  69.0081787
  62.8498268  13.1943502  40.8727798  63.0810432  13.4858294  39.9908447
  63.6589622  12.8199263  41.2211151  83.4988251  38.6976051  28.1181507
  83.8218613  37.8726845  28.4806271  83.9018707  39.3730507  28.6636448
  33.6448441  63.3116188   9.8974104  34.1380653  62.7618370   9.2885551
  32.8723984  62.7911987  10.1181412  79.9194794  35.6712074  43.0412025
  80.3492355  36.0743599  43.7955246  79.3819885  36.3706970  42.6696510
  19.1528301  55.7060318  58.9914436  19.5842094  55.6681938  58.1377983
  18.2445660  55.4631004  58.8117981  36.8411980  54.7974205  88.5281982
  37.5132141  55.4076958  88.2245712  36.7332878  55.0026283  89.4568939
  58.1802521  70.6786346  69.1939545  58.4199829  69.8141937  69.5278778
  57.2721481  70.5813141  68.9074097  50.2959442  26.9867363  58.1640968
  50.7822151  26.4221973  58.7649841  49.9717941  26.3928947  57.4869614
  47.6418839  46.9847260  31.9448471  48.2040482  47.2081413  32.6866608
  48.2500420  46.7206612  31.2544498  62.9957390  53.6666489  67.5431976
  62.4430389  54.4300766  67.7103271  62.3793030  52.9682961  67.3228760
  50.0611839  21.6361866  72.8487091  50.6943626  22.1888809  73.3068008
  49.5737190  22.2422600  72.2907791  55.1296806  52.1924057  75.1346741
  55.6655922  51.8237419  75.8368988  55.7594490  52.4406815  74.4579239
   6.9854093   5.2499695  59.7935104   6.6405678   6.0418887  60.2060394
   7.6313443   5.5698347  59.1636810  84.1316452  52.0990067  28.3238945
  83.2501907  52.4717751  28.3416653  84.7066345  52.8504982  28.1793690
  17.3012180  33.6384544  54.2542915  17.4126263  34.0927811  53.4191818
  17.9689083  34.0189896  54.8249168  53.1998062  69.3767090  52.1653252
  53.1764336  68.4203568  52.1325760  52.8377876  69.5958786  53.0238914
  68.0363159   5.0396857  75.9303207  67.7313385   5.6243834  75.2365265
  67.3936081   4.3305168  75.9456329  75.7882080  36.1750107  42.6669693
  76.3484726  35.4215279  42.4809456  74.9970551  36.0182724  42.1514702
  70.5469971  56.7067490  48.9746056  71.0925369  56.5298119  48.2082481
  70.9822006  56.2437477  49.6904716   3.8063586   9.0362101  43.8088493
   4.3124347   9.4023447  44.5341530   3.1397884   9.6978016  43.6238823
  71.5109940  62.2313499   4.9157481  71.6359329  61.3002968   5.0994873
  72.2589874  62.4698982   4.3681717  43.3178406  27.2502689  77.7118454
  43.2312775  28.1752415  77.4812698  42.7256966  27.1321468  78.4545746
  12.8863020  57.7995033  77.9168930  13.4337406  58.5305023  78.2035675
  13.3000507  57.0258865  78.2997284  76.1749802  59.3929443  24.4934883
  77.0957565  59.2240372  24.2937775  75.8086929  59.7233810  23.6731987
  57.1302910  29.5979366  74.7212219  56.4099998  29.7478485  75.3335495
  57.4533195  28.7240429  74.9407501  75.9358139  39.9724121  18.2403564
  76.2006531  39.6056480  19.0839043  76.5838547  40.6537628  18.0613594
  13.8104191   7.8737082  25.8417454  13.5306501   7.1255550  26.3692188
  14.6989756   7.6517076  25.5635109  54.1408806  55.3088646  86.0310898
  54.6302223  55.8094635  86.6839066  53.2488098  55.6515770  86.0857773
   6.9518089  26.6844978  21.0550404   6.3879361  26.5885105  21.8225460
   6.3758564  26.5081196  20.3111305  62.4030457  55.6261597  38.7879181
  62.6599998  54.7076111  38.7074356  62.4468918  55.8057251  39.7271004
  22.5487461   3.2881329  72.7221756  21.6083603   3.4664693  72.7323380
  22.7588520   3.0589020  73.6274567  21.2826481  14.8900433  58.9931679
  21.0181141  15.7965946  58.8369064  20.4720745  14.3870506  58.9144363
  67.6439972  63.9519501  68.5349121  66.8836746  63.8347397  67.9653549
  67.2879410  64.3446350  69.3319397  77.7414398  62.1387329  15.8491240
  78.3057861  62.2455750  15.0834074  78.2146225  61.5257225  16.4117451
  84.1268158  25.4575615   9.1770077  84.8545761  25.7699146   9.7146244
  84.4751358  24.6885738   8.7258301  21.2662754  62.7506447  28.6073322
  21.9543724  62.2750092  28.1420135  21.7286911  63.2270851  29.2968311
  81.0066299  27.9994640  51.2957649  80.5049667  28.8047810  51.1691513
  81.8779526  28.2042236  50.9565010   5.5784593   4.7045903  38.7690849
   5.2336893   4.1274571  39.4504700   5.8464065   4.1122823  38.0665131
  52.6626968   2.9880304  86.2198868  53.1402245   2.6479056  86.9765320
  53.3461533   3.2419045  85.5996704  70.4051437  57.9004059  80.7984848
  70.3346100  58.5848732  80.1330795  71.1464462  57.3656387  80.5143585
   4.5708132  38.0625687  40.6944275   3.7981954  38.6227684  40.7683754
   5.3054700  38.6737442  40.6398849  36.2610512  61.9835587   9.3235168
  37.1845551  62.2125702   9.4280415  36.1126518  61.2883377   9.9645109
  48.5208473  69.6142044  10.2716112  48.5847778  70.1662292  11.0509758
  49.1768646  68.9305954  10.4078369  72.1552811   2.8430352  88.4039764
  71.7120361   2.2056391  88.9638824  72.0973282   2.4702554  87.5242615
  51.6833305  26.9832420  29.5683193  51.2352638  26.1990528  29.2512817
  51.4108772  27.0616474  30.4825706  14.1048336  18.4457664  64.2321472
  13.6125937  18.9426804  64.8856049  15.0024395  18.4365215  64.5644836
  42.8945541  56.1185570  50.2536697  43.7284813  56.0258102  49.7930260
  42.2372589  55.8338013  49.6187592  85.7565231  29.2923450  44.8878899
  85.5906143  29.2429295  45.8293037  86.7092056  29.3504105  44.8153076
   2.4777093  13.3889265  71.1443100   3.1647918  13.3989649  71.8106842
   2.8378417  13.9024000  70.4212036  18.9437180  47.3335724  36.3878098
  18.8561535  47.5616035  35.4622993  19.2615891  46.4307098  36.3829956
  55.8473511  27.6565380  68.4108047  56.0504150  26.8635864  67.9145889
  55.1458206  28.0771313  67.9136276  73.9052505  18.4599247   7.5753250
  74.7440414  18.8231354   7.2911930  74.0684662  18.1481342   8.4654808
  13.4453583  47.5266418  66.2785263  13.6069098  46.6216431  66.0118561
  14.0792427  48.0405502  65.7781982  71.9165421  14.4155903  11.6828051
  72.5384216  15.0765200  11.9872274  71.1856766  14.9205761  11.3263550
  58.9515076  25.9161015  29.4730682  58.4215775  25.1236687  29.5594177
  59.6975060  25.7699223  30.0547466  24.3385353  59.0181770  67.7847595
  23.7984219  58.3019028  68.1186142  24.8120079  58.6366539  67.0455017
  81.4033661  15.6479273  72.6783752  80.6906662  16.1910076  72.3416824
  81.0551147  14.7565422  72.6586533  68.8074722  51.0564957  77.8562469
  68.4742126  51.7507324  78.4247589  68.1587677  50.3562775  77.9277802
  66.2424164  38.8207016  28.5017395  65.4881210  38.2335091  28.5515575
  66.7560120  38.4888992  27.7652912  60.7716408  33.8174782   6.0229244
  60.5515480  34.7487793   6.0444422  59.9315071  33.3756027   5.8998184
  45.8748894  70.1957016  70.8494263  46.6576424  69.7789536  71.2097702
  45.2070389  70.0750961  71.5244522  58.8828278  47.7814941  48.7681656
  59.3291359  47.0588913  48.3267059  58.0993767  47.3832054  49.1473770
  32.7758522  48.3667145  71.9915695  31.8223839  48.4465294  72.0191803
  33.0384712  48.8928604  71.2362976  26.1775455   0.8337430  63.6036797
  25.2464695   0.6126509  63.5825195  26.3483696   1.0639062  64.5169525
  13.6495676  26.6906528  12.6525202  13.2500334  26.5812931  13.5154486
  13.8657818  25.8007069  12.3741665   7.4501824  61.4453049  67.1546478
   7.3833652  60.5874519  66.7352982   6.9391322  61.3589783  67.9593887
  24.3796730  50.2776642   3.0895150  24.7563839  49.5187569   2.6441154
  24.8000832  51.0313988   2.6755469  82.0467682  40.6745491  37.2059822
  82.3243637  41.4509087  36.7197342  81.1155243  40.8178825  37.3746834
  81.6921387  62.8527641  44.5916290  82.4012604  63.0360298  45.2079048
  81.0939560  63.5938492  44.6875381  43.4126549  37.2863884  67.6709137
  43.3925171  36.8027420  68.4966965  44.2724571  37.7069435  67.6605682
   4.0407834  68.1984329  86.5393372   4.5015016  68.3843994  87.3574982
   3.4729230  68.9574356  86.4063721  48.1462059  49.7138252  56.8303795
  47.7718163  49.2513771  57.5801849  47.6509323  50.5314789  56.7816162
  74.3955765  12.3210945   3.8967915  74.5934982  12.1483517   2.9763470
  74.1931915  13.2561703   3.9268603   6.9590263  69.1654358  74.0074921
   7.0131106  68.2570572  73.7105713   7.8219266  69.5321808  73.8147964
   9.8877077  68.5382690  55.4048767  10.4611387  69.3045883  55.4178085
  10.4845409  67.7937698  55.3291206  47.9704895  18.2025948  58.0895042
  47.0544167  17.9267159  58.1200066  48.1350861  18.5824852  58.9525337
  84.6184998  27.6822205  77.8628845  84.6394958  28.2931728  78.5994492
  83.7562943  27.8125477  77.4681015  83.0743027  70.7316360  50.0489197
  84.0087814  70.5244675  50.0567627  82.6413422  69.8821030  49.9648361
  19.0300217  54.3066826  83.5849152  18.7423859  53.6264954  82.9759445
  18.3943367  55.0134010  83.4722824  51.1752739  53.2711372   0.7091859
  50.5471802  53.1663513  -0.0054821  50.7498741  52.8635597   1.4636054
  28.9987106  34.9205513  85.3059082  28.7001953  34.0256767  85.1436768
  28.2609844  35.4706039  85.0424042  54.9124107  52.7463303  62.3098068
  54.0192261  52.4873581  62.5364876  55.0359268  52.4240875  61.4169807
  75.8660507  26.8506699  37.1650505  76.4344711  26.0921669  37.0316162
  76.4592056  27.5484543  37.4434395  68.8831253   7.6439981  46.8923111
  69.4589005   7.4810653  46.1452065  69.0974731   6.9499979  47.5157242
  62.1691666  28.5082397  80.9866562  62.5303421  29.3586712  80.7365570
  62.1849060  27.9944992  80.1791611  79.8287354  57.2966766  33.2755623
  80.3760605  56.5826378  33.6023979  79.7405167  57.1213074  32.3387108
  56.5352097  15.3196011  74.6898727  56.0739479  14.9795523  75.4565811
  55.8439827  15.6821213  74.1357880  26.4722729  58.0068130  64.3970413
  26.7775879  57.7187271  65.2572861  27.2075806  57.8298836  63.8103065
  54.9440765  38.8889465  53.3580513  54.4000816  39.4874229  52.8460693
  55.6500893  38.6380348  52.7623825  77.9063568  48.1513290  49.1946983
  78.4886856  48.1253700  49.9539375  77.1172028  48.5896835  49.5129967
  20.2300415  43.4044952  59.2203102  20.5995789  44.2422638  59.4992714
  20.7190838  42.7493515  59.7181625  35.3254051  65.8454819  43.2531090
  35.7991600  65.1330643  42.8238716  35.8745956  66.0821915  44.0004997
  66.0505600  13.2995491  11.5789433  66.8941193  13.6824932  11.8197517
  66.2100372  12.8817635  10.7326250  45.0824776  46.1635437   4.5017681
  45.9696579  46.1188393   4.8583398  44.9091148  45.2791405   4.1792669
  85.5904236  68.8736191  16.2896481  85.8861618  68.3051605  15.5785761
  85.6758270  69.7601242  15.9388676  44.7409134  23.4285049  37.4735527
  44.2248535  22.6725979  37.1933441  44.3656044  24.1662369  36.9927940
  45.2388992  11.3885622  55.0370865  45.0373306  10.7025785  54.4006691
  45.1841011  10.9507866  55.8865471  51.9440269  59.3205528  61.2308731
  51.1889877  58.9130669  60.8064880  51.6637955  59.4603920  62.1353874
  20.6647625  57.5460358  77.6289215  20.8633881  58.2497826  78.2465973
  20.7508717  57.9527245  76.7667007  38.1174774  60.8683968  51.8634224
  38.4641647  61.6989594  51.5375328  38.1948128  60.9335632  52.8152657
  29.1310616  10.3795223  67.8551178  29.1589489  11.1934366  67.3521271
  28.2584133  10.0238905  67.6870651  57.5255165  58.0097923  49.7668266
  57.4043007  57.8996887  50.7099152  57.7803917  58.9266319  49.6635284
  14.1723595  16.1884518  75.9269638  13.7283945  16.0419788  76.7622375
  15.0370455  16.5192585  76.1701050  72.4765167   2.8460910  44.5950966
  72.4193878   3.1364677  43.6847916  72.1521683   3.5889122  45.1042557
  30.4646816  19.5565052  78.5795059  30.2739677  18.6202259  78.6364365
  29.6211605  19.9824619  78.7320404  10.5854406  60.1275940  71.5485077
  11.3061028  59.6332207  71.9389877  10.8636675  61.0417061  71.6052170
  75.9987869  52.4871368   2.2094870  76.9006424  52.7553215   2.3854573
  75.9003983  52.5845985   1.2623587  62.1363525  45.9077644  87.2857361
  61.6160965  46.6816368  87.5018082  63.0385246  46.1648941  87.4760056
  10.6230545  14.3816032  59.4998245   9.8400764  13.8393726  59.5955505
  10.8102751  14.3683653  58.5612068  22.0152550  49.0285835  83.2803879
  21.3172970  48.4497452  82.9737473  21.6935596  49.9108162  83.0948944
  19.0252590  61.4258614  71.1588593  19.3474522  60.5632401  70.8974991
  18.5254879  61.7340126  70.4028778  48.1729736  50.8884125  77.9096298
  48.1333427  51.4480858  78.6851425  48.4895325  51.4648933  77.2141495
  82.0199051  58.0844803  51.5111961  82.8434448  57.8245354  51.0983505
  81.4657135  57.3063545  51.4509659  52.9957352   5.7553802  40.4365768
  53.0466347   5.6672268  39.4848022  53.8634262   6.0660567  40.6950798
  83.0680618  68.0523987  37.6061630  83.7733612  68.0318680  36.9593582
  82.8607407  67.1313095  37.7637863  63.8464394  61.8067894  60.3197365
  63.4020996  62.6162338  60.0675659  63.1987915  61.3296432  60.8384933
  39.6804619  11.5068245   5.0044408  40.0116043  10.9790592   5.7311053
  39.8466682  12.4112778   5.2700934  53.1938820  15.3677425  39.0757561
  53.4253845  15.6110764  38.1794128  52.2407532  15.4499464  39.1076736
   1.5969020  11.2305088  87.6604004   2.3186417  11.8554821  87.5916138
   1.4231381  11.1677189  88.5996017  74.8485260  42.2318687  64.8569412
  74.2142258  42.7602501  64.3724747  75.6802597  42.6916351  64.7426300
  12.4781179  59.6302109  28.9300690  12.6858768  58.7645264  29.2817268
  13.2865181  60.1318359  29.0353851  60.0687370  25.5739346  34.1178741
  60.0522308  26.4927750  34.3856277  59.1489182  25.3483620  33.9790192
   2.9396954  58.6658554  20.0630875   2.7825215  57.9109459  19.4959583
   2.0950785  59.1143494  20.1044178  80.0660782  43.9173241  54.2428169
  80.0819550  44.2217522  55.1501808  80.9556885  43.6038895  54.0797462
  62.0850105  37.3562126  53.0255165  62.2101440  36.9753838  53.8947372
  62.4180450  36.6915245  52.4225998  23.4105282  55.9942322  86.6656113
  22.5955029  55.9559975  86.1651154  23.1288795  56.0261116  87.5798798
  15.7380114   4.3115535  40.5740471  15.4494390   4.7381339  39.7672081
  15.9197283   5.0339718  41.1751480   7.9914289  30.7877407  78.0474930
   7.0403490  30.8875217  78.0890045   8.1340284  29.8414135  78.0664825
  49.5288010  55.0089569  87.2786560  48.6410942  55.2836647  87.0490036
  49.4366760  54.0914993  87.5355911  14.6722031   8.1426907  10.6857052
  14.5341358   7.4802370  11.3627024  15.2688265   8.7745352  11.0870094
  41.5827751  61.0557709  70.8976898  41.4502602  61.0053749  71.8443298
  40.7892342  60.6725082  70.5240173  69.4012680  44.6124992  11.2801800
  70.0371552  44.3915482  11.9606676  68.6311646  44.9153824  11.7612495
  13.9009790  14.2908201  12.3270655  13.9399433  15.2395439  12.2060843
  14.2887249  13.9314861  11.5290909  29.5649300  64.0850906  53.4293709
  29.1190186  64.9284363  53.3508606  30.1567402  64.1954422  54.1735611
  66.2570038   8.4471331  37.9765701  65.3074036   8.5640726  37.9479294
  66.5841370   8.9625559  37.2393112   3.5993738  43.2391014  72.7113037
   4.3565521  42.7608757  73.0492554   3.1084576  42.5874596  72.2107010
   5.8117580  17.1585560  54.6397896   5.0266733  16.7650394  55.0206032
   5.7669163  16.9317417  53.7109299   2.7074785  48.2521935  39.1658325
   2.4281461  47.4236412  38.7763367   3.2578287  47.9955292  39.9057426
  77.3880692  25.0835266  14.3626766  77.9995193  25.7486877  14.0465717
  76.7629929  24.9729843  13.6462336  25.0119801  59.4147949  51.3793983
  25.6233578  60.1454124  51.4723930  24.8588943  59.3490791  50.4368057
   7.1853046  69.7766724  37.2372093   6.8223205  68.9192123  37.4590797
   7.5486593  70.1032181  38.0603600  75.4733429  15.8835602  80.3751602
  74.7595596  15.8002033  79.7428665  75.7483597  14.9827843  80.5460281
  84.1431198  47.9269676  46.2881279  84.2294159  47.1168594  45.7856293
  83.1987457  48.0687218  46.3536530  62.4265099  31.6353588  39.7328186
  62.9187355  31.6963806  38.9141502  61.5096931  31.6052399  39.4593735
  84.6778641  67.8114700  34.3815918  84.3076553  68.0620728  33.5352020
  84.4707336  68.5452347  34.9603119  45.2055969  29.2768993  20.2431831
  44.7123032  28.8686600  20.9546833  45.5731812  30.0708866  20.6313801
  40.9185143   1.9161248  62.7931061  41.5492439   2.0672300  62.0891342
  41.0489006   1.0002860  63.0390129  40.3906097  62.5443954   5.7650013
  40.7724380  63.4190788   5.8382926  40.1495819  62.3123589   6.6618266
  10.8892794  70.2175522   9.4294786  11.2194586  70.1909256  10.3275347
  10.8629198  69.3004303   9.1566896  46.3061028  30.7947407  23.1972637
  46.8829727  31.0157681  22.4661026  46.6874504  30.0006046  23.5716324
  12.0786152  65.3904953  35.6998367  12.7940388  65.3020630  35.0700912
  11.4124165  64.7752380  35.3934555  85.5483856   6.9111600  66.3366165
  85.6412964   6.4130964  67.1487274  84.9858246   7.6491847  66.5712967
  44.9084282  48.8186378  68.8711777  45.0626411  48.5738983  69.7836227
  45.5425034  49.5148430  68.6994934  64.7438812  25.9271603  87.6942444
  64.8744125  25.1695328  88.2644958  65.3494339  26.5875664  88.0309982
  23.7860146  63.9576302  55.7788773  23.7012005  63.5837784  56.6559563
  23.1799011  64.6984711  55.7746544  42.5758171  47.3184662  15.6341610
  42.0705338  47.7190590  14.9267406  42.1971436  47.6820107  16.4345818
  72.3303833  70.2105637  55.9194832  72.6305695  69.3285980  56.1391716
  71.8828125  70.5148315  56.7089958  82.6366119  30.8831711  37.1232529
  82.4677353  31.4636860  37.8653526  82.5922089  30.0017014  37.4937515
  52.3964653  42.4155617  17.0495911  51.8169518  42.0503616  16.3809929
  52.0004044  42.1514740  17.8800278  41.2354393  59.4772263  54.8173943
  40.5743294  59.2508202  54.1632500  40.7443848  59.5626488  55.6345863
  61.6910439  65.4520721  24.5555000  61.5542374  66.3284302  24.9153728
  61.0108871  65.3581619  23.8885670  47.3175774  53.4929199  11.6671019
  46.7150307  53.9606094  11.0887947  46.7492332  52.9719620  12.2343922
  80.0878143  43.0274925  46.4723358  80.9948730  42.7877121  46.2826462
  79.5753403  42.5750046  45.8023682  79.0753555  38.8366241  76.7123108
  79.8924026  38.4025154  76.9576797  79.2815552  39.7708092  76.7440948
  48.2647705  61.7345276  78.9224625  47.4291840  62.0575447  78.5852890
  48.8793983  61.8600349  78.1994781  53.4561806  50.0110016  80.2469406
  53.0698166  49.6280708  81.0345459  52.7124596  50.3795471  79.7702026
  79.5670776  47.9337654  11.1826620  78.7199097  47.6920357  10.8083448
  79.4688950  48.8552818  11.4222422  52.8399925  47.6977730  57.7714653
  52.1994514  47.9096260  58.4504738  53.4156494  47.0505295  58.1788063
   3.6739166  59.7693443   3.9637494   2.9467931  60.3836021   3.8626919
   3.4367299  59.2406921   4.7256551  80.0652390   3.7001057  28.7516479
  80.6624374   3.4742336  28.0385094  79.6422882   2.8726230  28.9810238
  27.3883228  32.4272079   4.5443726  27.5155411  33.2654839   4.1001472
  26.5014687  32.4773102   4.9010353  23.4049492  53.3030243  58.7007866
  22.6455650  52.7203102  58.6976967  23.8211651  53.1585579  57.8510056
  51.1156464   4.9657283  61.1290970  51.4418297   5.6413159  61.7235870
  50.4670677   5.4158268  60.5878181  12.6163177   3.3373942  14.5208244
  11.8632536   2.7465589  14.5271225  12.9224243   3.3449323  15.4277277
  25.5082092  13.4245272  74.9297028  26.1049976  14.1614895  74.7994690
  24.6752949  13.7234459  74.5648270  69.4892120  71.4399033  24.6824188
  69.0578079  72.2294312  24.3556576  69.8625107  71.0304565  23.9018841
  23.8620224  54.6306648  20.2405853  24.2910061  53.9360199  20.7402611
  22.9908485  54.2840576  20.0478420  10.1822224   3.1188438  59.5468903
   9.5457840   2.6981618  60.1249962  10.8308268   3.4978001  60.1401329
  64.5267334  47.1026649  63.5764656  65.4788895  47.1581001  63.6574593
  64.3759766  46.3109016  63.0601120   3.3809457   9.1864614   6.8153934
   2.7295864   9.1230907   7.5139256   4.2103992   8.9693012   7.2409282
  14.8278761  34.4665184  79.2380447  15.2530651  34.0527267  79.9891891
  13.9768438  34.7510033  79.5712738   5.0281038  47.6829033  25.4063435
   4.7983389  48.2875938  26.1118870   5.9375315  47.4425545  25.5835571
  80.8137131  28.8784008  64.5776443  80.4622726  29.3034401  63.7952995
  81.7314301  29.1490440  64.6054764  14.0205908  59.2516174  37.9107857
  13.2767172  59.8246346  38.0966148  14.3937540  59.0571365  38.7705269
   3.9044697  28.8391266  15.1671343   3.3518319  28.0594330  15.1132698
   4.4039469  28.7233028  15.9754276  47.7683487  45.1662178  19.8440742
  47.1998711  44.6834297  19.2440910  47.3826981  46.0412178  19.8874989
  74.5760498  47.5529747  54.3001595  74.4807205  47.3782959  53.3638725
  75.4482727  47.2240410  54.5175743   4.2130985   0.8997996  32.9811745
   3.4934647   1.4094193  32.6088219   4.9910946   1.2099354  32.5177422
  75.6784286  71.2850952  11.9066277  76.1452866  71.8544769  11.2950077
  75.2314377  70.6490555  11.3481598  48.2881966  19.4620438  60.4465218
  48.2426682  19.1477203  61.3494949  49.1881561  19.7721996  60.3459702
  62.1558418  49.4412231  60.1662064  61.4171219  48.8609505  59.9823341
  61.9741440  49.7912560  61.0383835  20.6599236  25.5962505  64.4928513
  21.1096649  26.1535034  63.8576851  20.5749397  26.1433907  65.2736435
  86.7328644  18.1605854  60.0669556  85.9381714  17.9766273  59.5661011
  86.9299850  17.3375778  60.5142097  63.9619408  20.4974823  49.4958382
  64.4103851  21.3174667  49.2890587  63.5194244  20.6694965  50.3269958
  42.1606483  68.2894821  83.5604248  42.5767899  69.1475983  83.4785614
  42.2395134  68.0727005  84.4894180  31.0974655  70.9760284  87.8484879
  30.3425236  70.4966431  87.5071869  30.9505959  71.8811264  87.5737991
  26.8019142  40.9304581  56.8665161  26.6791611  41.3289108  56.0048904
  26.3861332  40.0712891  56.7945099  73.6779327  24.8140202  70.3952179
  74.1569366  24.7676449  69.5677872  74.2517929  25.3129940  70.9765396
  52.0755882  54.9938393  43.4623871  51.1402397  54.8221855  43.5714340
  52.3344650  54.4474068  42.7203484  44.4487648  43.4585342   7.1822648
  44.5537186  43.8676414   6.3232851  43.9559784  42.6568375   7.0071259
   4.1824279  14.2513151  34.7469635   4.5114174  13.4254332  34.3921165
   3.2462699  14.1000433  34.8771820  44.3338165  23.7702465  70.0485229
  43.9130440  24.1384602  70.8254395  44.7453194  22.9635639  70.3586197
  73.6383362  62.7414398   3.3517632  73.9327393  63.0103416   2.4815626
  74.1186600  61.9323921   3.5277185  12.4268913  15.4025745  66.5200577
  13.3129072  15.1623306  66.7911530  12.4721460  16.3455734  66.3621445
  66.9503021  32.6731834  54.5685081  67.4697342  32.1315193  53.9743500
  67.2263412  33.5697670  54.3783150   1.0460757  20.0757580  25.7306404
   0.9799425  20.7081451  26.4461441   1.3989692  20.5797672  24.9973774
  40.2798653   8.1776886  75.3115921  40.2694397   8.3779869  76.2475433
  39.6390991   7.4738712  75.2101212  34.1143150  41.3035393   8.8909512
  33.2505455  41.6543770   8.6740656  34.6679344  42.0774269   8.9950266
  78.8142242  27.2479115   9.6074638  78.7881470  26.4996567   9.0110865
  78.3485794  27.9421692   9.1411839  24.9622383  61.4753571  80.1464996
  24.6885986  60.8265610  79.4981003  25.9032059  61.5757523  80.0025101
  71.8732376  67.7789764  41.9548416  71.1750183  67.7428970  41.3010674
  72.6774673  67.6419907  41.4541702  34.6213837  58.2224846  30.3458443
  35.0422211  58.7676659  31.0106030  33.7539787  58.0344620  30.7042961
  77.7054367  16.7203140  46.6548271  77.4461212  16.2053604  47.4189034
  78.2888870  16.1422729  46.1632156  50.0817108   3.4295449  50.4645500
  50.8630676   3.1918039  50.9637413  50.3982849   3.5563633  49.5701637
  41.2244835   2.4759383  80.5323792  42.0263824   2.0185404  80.7853241
  40.9242363   2.0169563  79.7478943  17.5467606  39.7984924   9.0997133
  17.3473682  38.8791428   8.9228735  16.7417603  40.1491508   9.4808245
  76.5289612  35.8888054  10.0066996  76.0688400  35.3200340   9.3894320
  75.8315277  36.3427963  10.4796734  38.1280251  55.7096024  46.9125137
  37.5854263  56.1893349  47.5383568  38.7395134  56.3639870  46.5747375
  32.1661148  70.3322372  55.7730331  31.4849014  70.1294861  56.4141846
  32.7095871  69.5448227  55.7438850  47.7313690  56.6404877  47.8993645
  47.3667183  56.7731285  47.0243378  47.9629021  55.7120399  47.9241409
  18.3789139  48.1294746  53.4683609  18.3493309  48.4462891  54.3711281
  18.0990067  48.8785934  52.9423370  81.8472366  60.4565544  66.0939331
  82.3411636  61.2764740  66.0959320  82.0588684  60.0474129  66.9330139
  48.6195526  31.6544018   4.0519438  48.0011940  32.3413086   4.3009915
  48.1883202  30.8393421   4.3087482  43.1651077  43.1277618  23.7752075
  43.0162239  43.4439926  24.6663094  42.3369331  42.7182503  23.5248871
  37.1848564  61.8185806   4.1179667  36.7929611  61.9841499   3.2605062
  36.4884529  61.3981514   4.6224408  75.1770706  66.5569534  75.8181305
  75.3690796  65.8604431  75.1902390  74.2742081  66.3921356  76.0899887
  34.8250465  10.2285576  69.4307556  35.3907051   9.9611864  68.7063446
  34.0061111  10.4915113  69.0107193  75.0412064  33.9803352  70.2921600
  74.5234451  33.2092896  70.0605469  75.5921936  33.6894073  71.0187988
  75.4782639   4.2830067  48.9141655  74.7769852   4.2510004  49.5648651
  76.1801758   4.7730746  49.3424110   9.4689569   9.6601620  61.2221031
   9.3762226  10.1111774  62.0612793   8.7433891   9.0360947  61.2041321
  48.5427628  32.8442001  83.8104782  48.6947746  32.1023712  83.2249756
  48.8134651  32.5283127  84.6725540  84.8814163   8.0806150  47.1395912
  84.7822723   8.5926552  47.9422226  85.7944946   8.2109518  46.8835945
  31.3319321  31.9250374  15.8161964  31.1566906  31.2719784  16.4937210
  30.4654789  32.2337761  15.5512991  25.7530956  17.3843441  12.2970753
  24.9718151  17.2825737  11.7534990  25.4905682  18.0006714  12.9807787
  86.8396530  41.8372078  54.3768196  85.9971619  42.0905991  54.7539558
  87.2775116  42.6674576  54.1892204  22.6192551  36.3526001  73.2108536
  23.2315350  36.7406120  73.8359909  22.5589905  35.4340477  73.4732742
  18.5979233  32.5827370   6.6284041  17.8526516  33.1639061   6.4765902
  19.3630714  33.1086349   6.3955760  16.3445091  23.0493317  79.3230667
  16.6343651  22.7867851  80.1967316  15.8129883  22.3147697  79.0162506
  73.0904694  35.8107910  14.6035929  73.1898956  35.3299828  15.4252806
  72.2657623  36.2864609  14.7027082  31.9397011  47.5278320  28.9580002
  31.5585022  46.9620590  28.2865696  32.8543396  47.2510605  29.0133896
  25.3361397  44.1247444  37.7578239  26.2195663  43.8080025  37.5695038
  24.7620697  43.5450821  37.2571526  43.9386330  55.5613937  52.7853661
  43.4573555  56.3595352  53.0034790  43.7379570  55.4053307  51.8625412
  43.1290131  63.1393738  78.3280411  43.8434753  63.4161110  78.9017944
  42.3405647  63.2411957  78.8611603  64.1053619  64.0353012  40.1887245
  63.8926849  64.8368225  39.7106400  64.2782898  63.3876152  39.5054779
  56.3804321  14.2773046  63.9874611  56.0039482  14.1591597  64.8595505
  55.7387924  14.8121281  63.5200310  75.5263290  47.0302734  61.8325577
  75.5844193  47.7004395  61.1515770  75.6867905  47.5037308  62.6488457
  74.1243286   0.6203103  54.9938240  74.9091415   0.2888780  54.5574150
  73.6209564  -0.1646106  55.2100220  58.0575867   7.6900964  55.5008469
  57.5857964   7.8276815  56.3222542  58.6804848   8.4156265  55.4579849
  20.7113552  27.5871906  75.5657578  19.8211765  27.3915958  75.8582611
  20.5953178  28.0311699  74.7257309  37.8077011  27.9293194  71.8037109
  37.7263527  28.6454239  72.4336395  37.1027565  28.0825157  71.1745758
  57.2427940  38.6526756  81.5679932  56.7959785  38.9481201  82.3612747
  56.9301338  39.2434883  80.8828506  64.9481964  58.1045494  42.5878067
  65.7099304  58.4958038  43.0154915  64.3314896  57.9396133  43.3010330
  61.8499565  23.7475567  64.0178452  61.7173386  22.8761101  64.3909760
  61.3055267  24.3233738  64.5547485  84.7022705  71.1932831  53.4463196
  84.4983902  72.0777283  53.1423149  84.6151581  71.2412186  54.3983421
  70.3807068  41.6136551  61.1675224  70.2305069  42.2695465  60.4867287
  69.5036774  41.3739891  61.4668732  20.9443989  59.5861893  79.3666611
  21.2987747  60.4134789  79.0407104  20.6225815  59.7926674  80.2441788
  40.2461586  32.2678490  41.5339470  41.1943474  32.1734505  41.4430580
  40.0431824  31.8512955  42.3715096  21.5064945  42.7903595  32.4553566
  22.0974903  43.1963539  33.0894890  21.0256023  42.1354027  32.9613266
   5.1618619  22.1514282  37.3460236   4.6598849  21.3386345  37.4061737
   4.9813409  22.6058788  38.1688995  57.2889481  64.7196808   7.5071287
  56.4799232  64.3992081   7.1083627  57.1301994  64.6633530   8.4493914
  62.7337723  61.7244797  15.4726067  62.1380119  61.9813538  16.1763954
  62.5144806  62.3097382  14.7476110  86.5728989  53.1010094  39.6346130
  85.9684067  53.4675484  40.2799644  86.4125214  52.1578255  39.6648407
  55.0853653  14.4946623  40.6635628  54.6304283  13.7828732  41.1136932
  54.3877411  14.9946833  40.2398491  75.3067322  28.4341354  78.9818802
  75.4492111  27.7556381  79.6418610  75.0362396  27.9539623  78.1992569
  61.6054688  64.1625443   9.1509304  62.5186348  64.2291870   8.8717861
  61.0998573  64.2847519   8.3474026  49.5618858  58.0357628  55.2835426
  49.0132561  58.5922737  55.8362885  50.4581795  58.2944603  55.4979362
  40.8128815   5.6816087  12.0621367  40.3595161   6.4655499  11.7520943
  41.7069664   5.9753604  12.2369423  12.6020174  59.6980515  41.2245445
  12.5119743  60.4311409  40.6156883  11.7048025  59.4008942  41.3759880
  74.2860184  59.8958282  84.1802444  74.0726013  60.8182526  84.3210144
  74.3973999  59.8176460  83.2327652  20.1413307  39.3513870  22.9883728
  20.2017326  38.4814911  23.3831692  20.0312176  39.1826096  22.0526276
  57.4033470  68.2355576  31.3815289  58.0234337  68.0162430  32.0769615
  56.5483246  68.2277069  31.8117714  65.6269073  11.3699961  84.2381516
  65.2544022  12.2436914  84.1192932  65.0848236  10.9688835  84.9174805
  76.8375626  14.6107235  30.0041924  76.9633713  15.5297251  30.2404976
  77.2337036  14.5301218  29.1365490  25.1485462  21.4752369  71.2483444
  24.4052525  20.8773384  71.1691971  25.5430222  21.4837246  70.3762512
   4.3839302  18.5757103  46.8390388   3.8500237  18.3099899  46.0903282
   4.8154798  17.7700348  47.1234436  11.0723600  69.8271637  85.9448776
  11.2592459  68.9721680  86.3325500  10.5189915  70.2669983  86.5903015
  23.6904926  14.1021080  86.9762115  23.8817558  13.5274839  86.2349625
  24.2342606  13.7641582  87.6877899  78.7605591  58.4532394  79.8486252
  79.6212769  58.1026726  79.6194839  78.9269028  59.3686790  80.0734253
   2.8889072  45.4857407  17.4514599   3.2634747  45.8938293  16.6708221
   1.9814208  45.7897263  17.4686222  42.8397331  23.9352741   8.5809841
  42.3095932  24.2599735   9.3088255  43.3026237  23.1786003   8.9407187
  43.5159302   5.1825347  55.4613152  44.3321533   5.5875707  55.7545052
  43.7607918   4.6902366  54.6777840  72.7304382   3.1602168  10.4128828
  73.5051727   3.1315978  10.9743071  72.0590973   2.6896603  10.9069567
  85.3650055  55.3230324  29.3140297  85.0051727  55.3892288  30.1985455
  84.8251648  55.9155807  28.7908764  43.7755241  48.2565613  60.9308739
  42.8943863  48.4843521  61.2274170  44.1281586  49.0734978  60.5780373
  79.0538406  22.2488880  59.0844536  79.3158798  21.3497829  59.2823906
  79.4307632  22.7698288  59.7935257   7.3923278   3.7938428  27.9063988
   6.4876585   3.4940932  27.8172073   7.5322595   3.8551903  28.8513260
  53.1746635  64.8211441  11.9589148  53.0541153  64.9797363  12.8951559
  52.7463417  63.9797325  11.8014221  68.9237137  12.1716814  68.6475906
  69.8756866  12.1164083  68.7307739  68.5889282  11.7138405  69.4186478
  80.8931885  65.2444000  63.0868988  80.3725281  65.9709091  62.7443657
  80.7839584  65.2981949  64.0363235  83.5630035   3.3769507  64.3618469
  84.4863434   3.5715725  64.2012482  83.3930283   2.5847700  63.8521461
  62.5415077  51.3682976  11.6187305  61.6325722  51.4507751  11.3301783
  63.0565796  51.4609566  10.8172655  46.7563896  21.8669586  67.0325394
  47.1346626  22.4075871  67.7259827  46.0028038  21.4432144  67.4433670
  39.8597336  36.9606781  16.7506294  39.3018646  37.7368469  16.6998463
  39.6314163  36.4503670  15.9736557  68.0936966   5.5982780  57.7783737
  67.5977936   5.2286572  57.0478287  67.5062180   5.5209279  58.5301170
  74.9737549  45.4893227  64.6858063  75.1431656  45.9942055  63.8904266
  74.0331955  45.5858536  64.8349838  33.6031952  51.8799248  32.3556709
  32.9161110  52.1074028  31.7292519  33.7083931  52.6659470  32.8917084
  33.7119904   7.2255430   3.7397115  34.0920067   7.0834665   4.6066785
  34.4507179   7.5001130   3.1964600  21.2568359  24.9139519  13.0933256
  20.8597183  24.8104095  12.2285662  20.5136967  25.0236168  13.6865768
  25.0429173   9.2280312  32.9785576  25.0418205   9.8664722  33.6917343
  25.1215477   9.7563591  32.1842537  25.2863407  13.0018139  -0.2567074
  26.2340870  12.9861631  -0.1234318  24.9299984  13.2737675   0.5890427
  16.9624920  40.2411652  80.9212646  17.7605534  40.3690834  80.4084625
  16.8637180  39.2907410  80.9775391  82.8659592  55.1172791  61.3453445
  82.5351410  55.6655998  60.6339073  83.7398605  55.4627495  61.5274887
  54.4562912  10.6145372  62.5755501  53.7013664  11.0633020  62.9562454
  54.9148331  10.2378902  63.3266182  -0.1119596  24.5909290  14.8348246
   0.7360755  24.2354431  14.5689325  -0.2609666  25.3255959  14.2396002
  72.7834778   2.9814160  37.8957100  72.7038116   3.8838618  38.2047043
  73.2972794   3.0483036  37.0908737   9.6643324  51.8447990  54.0258217
   8.9378033  52.1852760  53.5038452   9.4504747  50.9215660  54.1604919
  64.3053589  28.6425800  21.4331570  63.3692894  28.8422070  21.4207726
  64.3476181  27.6883812  21.3703156  21.3013496   0.4174573  31.8393383
  20.6212215   1.0565873  31.6268063  21.0739536   0.1083719  32.7162590
  19.4209309  40.9768562  79.5025024  20.1192722  40.7575493  78.8856888
  19.8780804  41.1895180  80.3161469  75.5033035   1.0644349  18.6848316
  74.7793274   0.5837107  19.0860634  75.7280884   0.5536954  17.9071121
  76.5787811  50.2332039  81.3015366  76.1532211  50.9213905  81.8129349
  77.1252060  49.7675133  81.9346161  19.8128548  28.5621166  15.2045212
  20.4319344  27.8918915  15.4939528  20.1288261  29.3704147  15.6083117
  44.9876251  50.3726921   6.0748954  44.3716393  49.9364052   6.6634951
  44.6598740  50.1767540   5.1971598  75.4148865  18.5284634  80.7479706
  74.6467514  18.5169468  81.3189926  75.5997925  17.6050625  80.5765915
  13.9012413  59.4449425  53.2486382  14.0484734  58.5485229  52.9469948
  13.9674025  59.9781303  52.4564476  36.4747467  50.3670197  83.0147629
  36.9541664  50.6230583  82.2268295  36.9651070  50.7657394  83.7336502
  16.6302357  66.6664124  32.1205597  17.2356739  66.2603683  32.7408867
  16.3620243  65.9507294  31.5442905  83.1049118  40.2458115  77.7893295
  83.1898575  40.2044716  78.7418594  83.4410477  41.1112061  77.5562286
  33.4595413  62.1991463  37.7762794  32.9204559  62.7704010  37.2292099
  33.1204071  62.3262978  38.6623116  61.1937561  35.2181816  70.2953110
  60.7441521  36.0325584  70.5208817  60.7598763  34.9183807  69.4965057
  31.5650082  57.3239594  52.0895958  31.5881882  57.4337502  53.0401955
  31.7861195  58.1884460  51.7431870  37.7244835  21.7319355  75.5524826
  37.6134682  22.2601051  74.7619476  36.9321518  21.8965073  76.0637131
  52.0928497  58.5951118  27.6677227  52.0656929  59.5243492  27.4396667
  51.2590714  58.4322739  28.1087837  27.2589836  34.4867554  75.3493423
  27.8846092  35.2091599  75.4037170  26.8760777  34.5667572  74.4757233
  56.8712349  17.8266487  88.8876190  56.7470055  17.0795212  89.4729385
  57.8152275  17.9847603  88.8981094  15.1516142  63.9440346  48.7425804
  14.5054388  64.0137482  49.4453087  14.6363392  63.9947281  47.9375000
  54.1413002  48.6349564  49.4889908  54.5511589  49.4262390  49.8384514
  54.4553604  48.5811768  48.5863800  84.6590347  21.4938049  67.0303955
  84.9653015  20.8097916  66.4349442  83.7674332  21.6838188  66.7385559
   6.2455187  36.8038483  15.5385742   5.8452711  36.2456207  16.2052193
   6.1945872  37.6871758  15.9037666   2.7143762  13.2011633  39.5804977
   3.3266006  12.5512209  39.9254456   2.8218217  13.9596872  40.1543732
  11.6679668  58.5353470  22.2757740  10.9660358  58.4430695  22.9199867
  11.7135954  57.6806755  21.8471909  51.8833961  39.2744865  71.1699066
  51.0699463  39.5189819  71.6112137  51.6007729  38.7549438  70.4172897
  41.4301491  13.3827543   6.7037501  42.0286865  14.0655785   6.4008632
  40.7295341  13.8588562   7.1495042  65.4279099  67.5776138  15.8899822
  64.5328064  67.8289413  15.6622410  65.6637192  68.1597748  16.6122818
  58.5994949  70.6664963   4.9220157  58.2216110  69.8244324   4.6683016
  58.7916679  71.1026306   4.0919032   7.2528200  69.0224686  10.8454800
   7.2120562  69.9772339  10.7908592   8.1747446  68.8315887  11.0182638
  73.5986099  56.8252716  37.9148178  74.2171249  57.5553093  37.8880501
  73.8872833  56.2938576  38.6567726  21.1599255  68.2680740  25.8411274
  22.0841866  68.2836838  25.5926781  20.7305889  67.7832413  25.1362591
  85.3575058  28.1632061  37.5563545  84.4681702  27.8292618  37.6738091
  85.8349152  27.4371433  37.1549263  16.3743134  49.1265755  18.0834503
  16.5904846  50.0266113  17.8396473  16.6597538  48.6008759  17.3361912
  70.2926483  59.0847473  85.8649063  71.0278778  58.7151756  86.3538742
  70.4853058  58.8782959  84.9503021  44.1577187   0.0709716  13.2107496
  43.9214897   0.2387149  14.1230488  44.3768768   0.9332498  12.8576517
  80.8113480  66.4039154  51.8669662  80.3700104  66.1053085  51.0718002
  81.3109818  67.1718140  51.5896072   0.7339246  38.3314667  25.3555069
  -0.1215356  38.7262802  25.5244465   0.5491536  37.3992119  25.2415237
  15.7971268  40.1676598  73.5496521  16.6131248  39.7656898  73.2516632
  15.7656565  39.9788513  74.4875183  23.3331890  47.0674934  23.9588051
  22.4845695  46.9365387  24.3818016  23.9729309  46.9274483  24.6569099
  18.9211349  42.8209877  15.4036837  18.6201687  43.3734894  16.1250687
  18.1724377  42.7745247  14.8091021  86.4410400  29.8041725  56.7562752
  85.5993576  30.1250648  56.4324913  86.8697433  29.4350739  55.9841270
  48.9626961   7.1465921   4.0578074  49.4782486   6.5083199   3.5648072
  48.7968330   6.7217755   4.8993840  58.7247047  57.4675331   6.0213213
  58.9256744  57.3208389   6.9456177  58.7777748  58.4170380   5.9124384
  25.0208988  67.5308456   7.7029858  24.5424709  67.6150131   6.8782101
  24.3381824  67.4393997   8.3676434   4.6485848  48.9566002  72.2475815
   5.1696510  49.1617355  73.0238800   3.7862320  49.3284378  72.4328232
  51.7401581  36.4768906  71.9590302  52.3900909  36.5454521  72.6584091
  51.0197563  35.9819069  72.3492203   5.4641614  13.1384716  28.3651428
   5.3937736  14.0537405  28.6363640   5.4034929  12.6415567  29.1810017
  21.7216167  48.3462868  86.4554443  22.5684261  48.0610695  86.7986603
  21.8747711  49.2416611  86.1536560   8.7244654  51.0257759  62.0057411
   9.4993067  51.4755287  62.3427505   8.3950071  50.5246239  62.7517548
  54.9900017  46.4411011  54.9770050  55.3206673  47.1105385  54.3780518
  54.9893837  45.6358833  54.4594536  56.3880997  33.7112312   3.7061832
  55.4701080  33.9017143   3.5132060  56.7134590  33.2768517   2.9177098
  39.7204094  64.5947342  21.2236557  40.3895187  63.9145126  21.2999763
  39.5144653  64.6243591  20.2893429  58.5640717  27.2992382  56.2227058
  58.9571037  26.6915627  55.5962181  58.2618561  28.0329456  55.6873817
  72.7117081  18.8290958  81.5385361  72.2587357  18.6576233  80.7129211
  72.0214615  19.1199532  82.1345215  59.8700180  27.4769554  82.5587997
  60.1678123  26.5710468  82.6417694  60.6386490  27.9540482  82.2460327
  32.7171936  15.4541578  68.8933640  32.9797974  15.7894564  69.7505951
  31.8427143  15.0918016  69.0355377  48.1205940   5.9497833  64.1855469
  48.7358742   5.2720790  64.4655151  48.5065384   6.7678361  64.4987106
  42.5608025  66.1576920  59.4044189  41.6067123  66.0809860  59.3969612
  42.7512474  66.8402634  58.7609520   5.9491162  20.7097664   6.6552739
   6.6750522  20.4092560   7.2020302   5.6240354  21.4935055   7.0983386
  76.9702148  22.4169483  24.8465481  76.4534302  21.6365662  25.0469761
  77.2166824  22.7673550  25.7025261  80.7812042   8.9187565  42.4830246
  81.0779877   8.7359514  41.5915489  79.8966293   9.2678976  42.3741112
  69.2912445  12.4377775  37.2454453  69.4654770  12.8900576  36.4200249
  70.0129547  11.8153210  37.3344612   0.4085870  58.6875038  42.8428116
   1.3175614  58.9543228  42.9799385   0.2981297  58.6932068  41.8920250
  55.0758667   0.5084582  67.6636963  55.5493202   0.8298484  68.4310226
  54.1531525   0.5582762  67.9133835  47.7693481   6.8756971  31.4162750
  47.7846451   7.1414280  30.4968262  46.8389359   6.8220310  31.6346321
  40.8216934  50.4046059  83.5259781  41.7485008  50.3884048  83.7647247
  40.4387207  49.6680183  84.0024185  17.0811920  18.8437443   1.6873444
  17.4861908  19.0257645   0.8393606  16.1686993  19.1119843   1.5794727
  50.8658867   8.5777082  85.5604172  50.0449257   8.4740629  85.0792618
  51.0990982   7.6894550  85.8303223  74.3948441  27.6843452  69.9723434
  73.8020248  28.2697182  69.5010300  75.0531845  28.2657604  70.3528214
  38.5839272  67.3988113  73.5893326  39.5035782  67.3599854  73.8519516
  38.4382515  68.3171997  73.3622513   0.8411806  50.8114281  37.3802872
   0.6150175  50.4843941  38.2509918   1.7973754  50.7774315  37.3525810
  70.9907227   8.1640673   3.3155036  70.3520660   7.5816827   2.9041827
  71.3958359   7.6305671   3.9992352  60.4218521  52.0638847   4.9998126
  59.8486176  51.2994232   5.0566831  59.8247261  52.8028755   4.8833404
  35.2899208  55.5374832  75.9884338  36.1209908  56.0032806  76.0810928
  35.1930809  55.4056816  75.0453110  67.6979904  33.3058395  44.0386810
  66.8869553  32.8518600  43.8098755  67.6399384  33.4376221  44.9849854
  67.7992477  11.9129620  16.6521587  68.6682434  11.9712315  16.2550602
  67.9700775  11.8132048  17.5886936  83.0179825   7.1056752  65.3306732
  82.5659027   6.3930340  65.7823410  83.9451294   6.9569745  65.5164566
   7.6593728  67.9056244  85.0934753   8.1051359  67.1067963  85.3752670
   6.9537897  67.5981445  84.5244064  27.2608013  22.7615776   5.6374159
  26.3569927  22.4786339   5.7763524  27.1819611  23.6026974   5.1873775
  16.8383884  27.5337563  78.7588196  16.3166199  26.8655567  78.3144073
  16.3228073  27.7657566  79.5312042  30.5251408  34.7711411   4.7666707
  30.1773357  34.3286629   5.5409312  31.4492626  34.9169960   4.9690437
  76.6229324  10.5314226  55.6691093  76.7938080  11.4315729  55.9461708
  76.2717514  10.6162252  54.7827034  28.9326725  34.0757141   7.5875707
  29.5242767  34.1316719   8.3379745  28.0593700  34.0165329   7.9749622
  80.1998978  38.7586670  69.7649231  80.5412445  38.3865967  68.9517288
  79.6702499  38.0578728  70.1451721  72.0481186   5.6316319  24.0260201
  72.8610153   5.8294711  23.5609417  71.3856735   5.5757809  23.3373432
  47.9401970  48.2352943  15.8998823  47.3247948  47.8776131  16.5398655
  48.6814423  47.6298790  15.9160671  48.9429398  17.1745472  88.5508347
  49.5392532  16.5750332  88.9994202  48.1058769  17.0612621  89.0010834
  65.5807114  64.3887177  60.6457062  65.1047516  64.6062546  59.8442268
  66.1895523  63.6984634  60.3828354  81.2852936  17.1925774  57.9802551
  81.1788483  16.9224606  58.8923645  81.5795746  18.1019154  58.0325432
  38.6434517  19.8817787  67.4261703  38.3901215  19.6646729  68.3233414
  37.9400864  19.5228539  66.8851700  57.2605133  13.7009058  25.3598843
  57.7678375  14.5011396  25.4958229  57.0944366  13.6797972  24.4174385
  52.9455185  20.7623825  19.3540897  53.6060104  20.5498562  20.0134926
  52.1097107  20.5964794  19.7901325  69.1718521  62.1829567  49.1482735
  68.4675217  61.8294106  48.6049881  68.8472900  63.0363541  49.4356804
  29.3797035  63.2858276  60.7826195  29.8481026  63.9373550  61.3044853
  29.2440624  62.5516548  61.3816414  24.6323299  22.6895351  67.5227203
  24.3688641  22.9837780  66.6508102  25.3214283  22.0453949  67.3600616
  51.9012909  28.3435154   2.0779774  51.9111786  27.6779480   1.3901155
  52.2654305  27.9010086   2.8446724   9.8927107  14.4768639  86.9191589
  10.3440380  13.7984743  87.4214783   8.9763670  14.4024963  87.1856461
  16.3792744  58.1111946  77.2307739  15.6401482  58.7159348  77.2956772
  16.5643444  57.8611298  78.1360092   3.4477499  27.8425312  66.2312241
   3.2107005  28.7331963  66.4895935   3.5450599  27.3710346  67.0585403
  71.8343277  60.0694084  38.4873123  72.2494125  59.8105774  37.6645470
  71.2621613  60.7984886  38.2479439  86.1388855  52.2289085  65.0209808
  85.8577881  52.6935997  64.2327652  85.3988113  52.3086510  65.6227798
  58.6064720  48.3430367  43.9896431  59.4662323  48.5289841  43.6122017
  58.6105728  48.7992210  44.8311348  26.3070469   9.1705561  45.2533073
  26.0425434  10.0661182  45.0429802  27.0197582   9.2731762  45.8839798
  53.6839027  28.5067463  50.4679794  53.1893349  28.0557709  49.7836876
  54.3261986  29.0331001  49.9919128  25.4663849  10.3008413  82.2315674
  24.5776596  10.6477928  82.3091812  25.9043102  10.8975811  81.6246490
   9.6058397   9.6523485  55.4424782   8.7999802   9.3746033  55.0069580
   9.5737906  10.6087055  55.4182892  37.4063683  18.8505993  76.2168350
  37.8132248  18.2856293  75.5599442  37.6867180  19.7344627  75.9793015
   5.7169333   3.2379172  69.8855820   6.6717696   3.2249591  69.9515457
   5.5366955   3.0084651  68.9739304  61.5018196  67.2369995  88.6718903
  62.3392906  67.3238831  89.1272125  61.7203522  67.3436356  87.7460861
  53.7215004   0.1835096  74.0724869  54.5830116  -0.0257739  74.4333649
  53.3438148   0.8021993  74.6976395  73.7806778  25.2802906  26.4088593
  73.0760498  25.7466660  26.8585510  73.9937744  25.8345585  25.6581211
   2.8307230  20.9991112  71.0190125   1.9578482  20.6072941  70.9907303
   2.6842513  21.8869781  71.3453140  42.4837456  49.8786392  69.0865631
  43.2813034  49.3938141  68.8742523  41.7776108  49.2446136  68.9615860
  74.9890289  52.8171082  18.5282402  74.2662048  53.3926544  18.7782574
  74.9585037  52.7959328  17.5717602  20.9783916  70.5118561  48.7442245
  20.1472149  70.7911758  48.3603554  20.9824944  70.9035492  49.6176033
   6.9429622  11.0871134  87.4768066   7.2090220  10.2593746  87.8771667
   6.1584759  10.8686047  86.9737473  67.1674271  12.0744638   3.6890192
  67.9148102  11.4810867   3.7635472  67.5493927  12.9070473   3.4112811
  72.9402466  54.6654739   9.7680740  72.2210312  54.4699516  10.3686857
  73.1947708  53.8134613   9.4137802  80.6287384  11.6911364  -0.0129634
  80.8468323  11.7754402   0.9152407  80.3032074  10.7954187  -0.1021179
   1.9481190  60.5272141  77.4002304   2.5204103  60.2325020  76.6918030
   2.1259894  61.4645538  77.4775925   4.4303846  64.1270752  88.7542496
   4.0876698  63.6668816  87.9880905   5.1405859  64.6688995  88.4103546
   9.2142305  46.5089874  46.9963837   9.0719366  47.4441833  46.8501244
   8.9678736  46.3693581  47.9107399  44.3320885  71.6106491  57.6584663
  44.2515602  70.6599655  57.5813675  45.2179604  71.7496033  57.9933662
  78.0904083   5.4058385  13.4638529  77.3880310   5.0297108  13.9943581
  78.5677414   4.6479168  13.1263056  68.7904282  21.1405449  29.0136623
  68.2949753  21.5111465  29.7440147  69.3290787  21.8657475  28.6971741
   1.5918766  47.1168022  22.1872120   2.5441842  47.0225296  22.2085285
   1.2782967  46.2954483  21.8086929  49.3166161  59.5046005  80.1082458
  49.2850418  59.8133698  81.0137253  48.9347000  60.2188797  79.5981674
   9.3345795  18.5065365  84.2761688  10.0237761  17.8747749  84.4813919
   9.8012304  19.3272552  84.1184082  51.0619545  21.9181480  69.9230652
  51.8012619  21.6678371  70.4771423  51.3617249  22.7025814  69.4636841
  64.8225174  38.4073830   5.0641866  65.4479446  37.8146324   4.6473889
  64.7817459  38.1116524   5.9736438  67.0838318  40.8876953   9.4627476
  67.6475677  40.7141113  10.2166061  67.2045441  41.8200951   9.2830544
  27.3377571  57.1332283  86.9792328  27.6401882  56.9447861  87.8676300
  26.5588036  57.6759300  87.1014557   6.9423418   9.2781563  54.5417175
   6.2412462   9.8456059  54.8621826   6.5111461   8.6932459  53.9186745
  48.6835060  61.5956268  88.7158585  48.6041107  62.5018730  89.0135956
  49.1402550  61.1485596  89.4284210  68.7846909  56.5158615  56.5003395
  68.6495438  56.9572067  55.6617775  68.3308640  55.6783714  56.4061012
  25.0045567  45.5639877   3.8439152  25.5863266  46.0015793   3.2223938
  24.1895714  46.0642776   3.8021636   6.2545857  46.9137115  39.3252029
   6.0028634  47.4379692  38.5649261   7.1031332  46.5396996  39.0878983
  52.1050758  37.2877312  13.9039307  52.7375984  37.9212494  14.2427597
  52.5915642  36.4646530  13.8580675  83.3138123  38.3942680  34.8878517
  84.2410202  38.1565819  34.8922958  83.2684784  39.1918411  35.4151611
  71.0394135   5.0981750  53.5347824  71.2019348   5.6099243  54.3272018
  71.3586273   4.2209606  53.7465057  66.8196869  68.7669144  54.6371078
  66.7761765  68.5219803  53.7128029  66.6370468  67.9544220  55.1090469
  52.9261131  47.5399933  29.8402290  53.5039062  48.2352295  29.5255280
  53.4512901  46.7426834  29.7715492  84.4043732  61.7308655  41.1940269
  83.8224716  61.3683548  41.8620148  83.8327713  61.9013786  40.4454117
  80.8741455  26.3695526   2.6231761  80.8865433  26.8734474   3.4369135
  79.9546280  26.1328068   2.5020478  21.2433987  60.5635834  23.3387547
  22.0254345  60.8995781  23.7766609  21.0365982  61.2241974  22.6776562
  72.5906982   8.9420195   6.2035651  72.7491608   9.2737761   7.0873404
  73.4574738   8.6943893   5.8816924  58.8780136  29.3384972  22.0780449
  57.9682884  29.1648960  22.3199043  59.0583572  30.2088757  22.4332218
  78.8494568  54.7850304  77.0090942  78.8129196  55.1011429  76.1063385
  78.2292252  55.3396263  77.4823532  39.9109306  38.7622910  75.5586929
  40.3745804  37.9704552  75.2861938  38.9841423  38.5357513  75.4813995
  15.2805567   8.9519796  85.6503448  15.2069893   8.0014200  85.5651627
  14.3753700   9.2582636  85.7056580  46.9007301  63.3303032   2.0255635
  47.3586311  63.9276962   1.4342250  47.5070763  63.2042198   2.7554100
  79.5739822  71.8825073  68.3604813  78.9003830  71.2077866  68.4456024
  80.3900986  71.4359512  68.5858002   9.5049353   1.4545550  13.0887957
   9.7649117   2.1825004  12.5242252   8.7226286   1.7699481  13.5412960
  11.6461496  60.7665215  10.3499622  12.5156593  61.0736847  10.0933790
  11.7030382  59.8126335  10.2943258  52.8371048  25.5322533  64.9519730
  52.3463402  25.7306881  65.7494736  52.5385170  24.6589851  64.6980362
  82.4525681  36.9732552  80.4023361  81.9914246  37.7304001  80.0413589
  83.3761063  37.1455116  80.2189407  17.5213699  28.4809246  10.4662008
  17.1950397  28.7783604   9.6169233  17.6256714  27.5348492  10.3647337
  85.2765427  46.3989639  63.2650948  85.6027298  46.8032608  64.0690765
  86.0657349  46.1830864  62.7683067   6.0563059  13.3713779  55.9068642
   5.5602713  13.6878510  56.6618652   6.4684973  12.5634174  56.2126884
  44.1384315   9.7047081  61.2521400  43.4945068  10.0225868  61.8850288
  44.9524078  10.1448364  61.4970016  81.0669327  46.1044846  24.8156414
  81.1144028  45.3837128  25.4437046  80.1780548  46.4467163  24.9105453
  56.3463554  12.7182894  58.8486023  55.4574928  12.6773729  59.2014198
  56.9002991  12.3884449  59.5561218  78.5983887  17.8864536  26.1501217
  79.1888275  18.4279613  25.6263084  78.0926743  18.5140095  26.6665134
  48.3064423  68.1075592  85.4738388  47.6852150  68.3445206  86.1624298
  48.5459824  68.9416656  85.0699615  35.2234116  68.3011093  78.6292801
  35.3155823  68.7161713  79.4868698  34.5349846  68.8030624  78.1930008
  40.0063057  26.1799870  78.1699142  40.6488991  25.5909119  77.7745743
  39.1678200  25.9018250  77.8013992  27.8593731  48.5166702  81.9921341
  27.3772926  48.5821266  82.8164749  27.1805325  48.5132027  81.3173065
  12.4171934  44.8068924  71.5146179  13.3585958  44.6893730  71.6418381
  12.1966400  44.2136192  70.7965546   1.6496527   6.1059723  35.1497650
   1.5472609   6.8507748  34.5573006   2.3187335   5.5608296  34.7357826
  20.1293144  59.4928589   4.7520680  19.6752892  60.3320770   4.6758499
  19.4483871  58.8374939   4.6002040  68.6624222   4.2618756  82.3765945
  69.3673172   4.7202420  81.9191513  68.0413132   4.9512844  82.6114731
  60.6677666  58.1348457  11.6879549  60.2257690  58.9020691  11.3243036
  59.9833183  57.4679947  11.7433977  29.5939960  28.5145760  12.2101297
  30.4589138  28.4178867  12.6086302  29.2383137  27.6261139  12.1912346
  57.0011597  10.0006495  71.8528214  56.3256226   9.3372707  71.7120743
  56.5386086  10.8346558  71.7708969  26.4971600  48.5621033   2.5980539
  27.1100368  49.2962303   2.6389315  26.5424042  48.2626038   1.6900425
   2.9444745  25.2786369  74.6135559   2.3340600  25.4706860  73.9016953
   3.7689295  25.6783009  74.3364716  83.9360886  46.7480736  20.4199352
  83.7155457  46.6716957  19.4916248  84.8839264  46.8811760  20.4307671
   8.7005348  47.1829033  49.9470139   9.0888662  46.6955414  50.6735840
   7.9265399  47.6002769  50.3251152  81.4416428  70.1302338  78.0528870
  81.2531662  70.9993973  78.4068146  80.6134338  69.6562576  78.1280746
  29.0209370  16.0756474  74.6510315  29.4432201  15.9308834  73.8042984
  29.7436390  16.2620811  75.2503433  37.3126297  10.6006823  42.5851555
  36.5499992  10.3556547  43.1091652  36.9715576  10.6961355  41.6958923
  28.7992954  26.6552315  72.8269958  28.2084179  27.2464180  72.3605270
  29.4128857  27.2358627  73.2771149  61.5909195  59.0614777  65.1341324
  61.4295807  59.6535110  65.8687744  61.1008835  58.2689285  65.3531494
  42.6166496  54.4978828  35.1608849  43.2900925  55.0847893  35.5047531
  42.3988571  54.8603020  34.3021355  36.3028030  16.9143524  16.1164436
  35.5113487  16.4113598  16.3083687  36.4523354  16.7778835  15.1808968
  12.5729246  53.7213936  19.8287525  12.9074583  52.8359146  19.9710350
  12.7173128  53.8851013  18.8967743  51.5339050  29.1049099   9.2639246
  51.3200378  29.1765060   8.3336735  51.3350792  29.9697895   9.6226501
  56.1674728   2.1166165  43.4700775  55.3935966   1.9478499  42.9326172
  56.0845757   1.5105474  44.2063141  65.3319931   0.6701800  17.3578663
  64.4639969   0.6228418  16.9571495  65.1701813   1.0008545  18.2414398
   8.1550341  36.7360649  39.7639656   7.6303973  36.1147118  39.2590828
   8.9808064  36.7979126  39.2838554  15.5570450  46.8195839   6.4823451
  15.7254486  47.4139824   7.2134814  16.2620735  46.1740036   6.5312338
  80.5771179  30.3930054  60.6123238  81.4526062  30.1478291  60.9117203
  79.9840698  29.9615345  61.2274323  14.6270189  16.8425236  12.7153912
  13.9609652  17.5051708  12.8984337  15.2427864  17.2782478  12.1261482
   2.4996989  39.0981331   4.7941599   2.9157479  39.5151100   4.0396628
   1.5824023  39.3662910   4.7403970  57.2389107  34.6042328  71.2271957
  56.3222160  34.4178314  71.4300690  57.5819740  35.0122795  72.0222015
  45.1716957   2.3794971  56.1500587  44.6586609   1.9373091  56.8264465
  44.9532433   1.9153075  55.3419533  73.3194809  45.0448189  78.7261124
  72.7703781  44.4458504  79.2320251  72.7386703  45.3853607  78.0457306
   2.4051380  46.8578987  66.6029358   2.5315006  46.4088554  65.7670975
   2.9536040  46.3737793  67.2202225  29.4015007  25.7730141  70.1245575
  29.0751305  26.0001640  70.9952621  28.7614155  26.1523399  69.5223694
  85.7533112  71.0432892  78.3689117  85.5677490  71.2741852  79.2791214
  86.7063370  71.0971985  78.2976532  73.6009979  19.5486317  86.0462799
  73.2135620  18.9306698  85.4263992  72.8830948  19.7776184  86.6365509
  35.6614761  39.1245270  84.0657883  35.2988739  39.4148178  84.9027405
  35.4102058  39.8089752  83.4456100  40.5438499  61.9248047  66.5119858
  40.4669724  62.7149620  65.9772263  41.4571304  61.6560707  66.4123306
  85.9865265  30.9491577  59.9868774  86.1442795  31.2217598  60.8907776
  86.5757141  31.4947300  59.4658775  56.8013153  35.2557831  77.8702087
  57.3241806  35.7757301  78.4805374  56.7083054  34.4050636  78.2989960
  56.7215424  29.9686947  36.0054207  55.9457397  29.7288227  36.5121994
  57.0770874  29.1333961  35.7019501  68.2062836  10.1144943  89.1757965
  68.3185349  10.8072615  88.5248718  68.7473907   9.3934851  88.8539658
  42.1261787  40.4476738  58.1287842  42.0964050  40.5928230  59.0744476
  41.2129478  40.3062210  57.8793106  15.7426281  60.6128044  84.0337524
  15.0697050  60.1851845  84.5634232  15.6460304  61.5445824  84.2304535
  19.5991764  56.2596207  21.2094460  19.3566475  57.1717110  21.0497608
  19.3890076  56.1138649  22.1318417  45.4344292  69.6777954  39.1220093
  45.8481255  70.1307526  38.3872185  46.1255875  69.6088028  39.7806206
  76.2389984  22.6098404   1.8519036  76.8926544  22.4457550   2.5316386
  76.6977310  23.1422024   1.2019951  41.9963074  66.8968735  63.5103111
  42.9348030  66.9724503  63.6827736  41.6034622  67.6174164  64.0029755
   6.1095161  69.1288300  23.1105518   6.0748696  68.8012695  24.0092945
   6.9592967  68.8359070  22.7814617   1.7867423  20.2471676  20.7189999
   1.8253344  19.5989342  20.0157661   0.8623742  20.4904118  20.7700615
  50.9427834  44.6007462  63.5952187  51.5755882  45.2688713  63.8586502
  50.3505707  44.5235710  64.3432617  71.9284286  52.5017242  79.9227676
  71.1066513  52.0162544  79.9950943  72.6092606  51.8371658  80.0279465
  80.3981018  39.0659904  29.3111916  81.0070343  39.7708435  29.5316715
  80.8070831  38.2765083  29.6657047  73.7591019  12.3316755  58.6324539
  74.4937897  11.8349171  58.2723160  73.5324097  11.8718815  59.4408035
  61.6736984  64.6610565  53.6506653  62.0543289  63.8088608  53.8630524
  61.5622940  65.0915680  54.4982986  44.4036407   2.6976752  12.5503607
  43.9133110   3.4597061  12.8587770  44.4515915   2.8118281  11.6012030
  19.4422417  25.3363342   0.6039789  18.9797897  25.9367428   0.0192729
  20.2703972  25.1582775   0.1582381  24.2543869  32.6100616   4.4192901
  24.6362247  32.6211472   5.2969627  23.7686119  33.4326324   4.3590240
  59.4403191  25.0241833   1.0790596  58.8648567  25.5095348   0.4878678
  60.2897072  25.0213490   0.6377391  46.9796562  17.8955078  17.3472595
  47.5906754  17.3642960  17.8578453  47.5396194  18.4789791  16.8351707
  79.2907944  37.2650757  46.7460899  79.7295609  38.0895538  46.5364494
  79.8594894  36.5901489  46.3755531  80.9436569  29.9047852   0.9706327
  81.8487396  29.9869843   1.2711184  80.4346161  29.7881985   1.7728283
  40.2403374  12.2328100  85.3259354  40.0368309  11.7821178  86.1455002
  39.4719086  12.7773027  85.1548157   9.0994778  21.5625038  18.1608219
   8.8480291  21.0459538  17.3951969   8.2681990  21.8252029  18.5560398
  62.8137360  43.8312263  54.1873512  62.6860962  43.4090118  53.3378372
  61.9449577  44.1532097  54.4277306   5.1553869  46.4041977  87.5401688
   4.2553911  46.7045364  87.6668091   5.0683389  45.4824486  87.2972107
  61.6182899  34.7578278  66.0090866  61.9816742  35.3787880  66.6404266
  61.9925156  35.0236320  65.1691284  65.9447708  34.5530701  36.4069786
  66.0827255  33.6849594  36.7859001  65.1380920  34.4672050  35.8989143
  35.3954391  30.8059673   1.0250951  34.8067093  30.0723457   1.2023820
  35.0431290  31.5272141   1.5465471  30.4274502  63.6791077  72.7286758
  31.1249752  63.1165848  72.3921432  30.7747421  64.5671768  72.6453094
  40.8256454  22.1767502  13.3595123  40.5009804  22.8898067  12.8096266
  40.9273491  22.5699577  14.2262745  63.6768837  36.6514053   8.1559134
  64.4715500  36.9565735   8.5936508  62.9721832  37.1603432   8.5566759
  70.3053970   0.1235170  15.7459717  69.5514832   0.7074523  15.6630812
  69.9445801  -0.7534400  15.6156158  67.8585968   1.3006618  15.5943394
  67.2832642   1.0345452  16.3115597  67.3061066   1.8451641  15.0335293
   1.1697204  52.5106812  61.3440018   0.8244858  51.6481018  61.5742264
   0.4129891  52.9888496  61.0049629  47.0689621  14.8131037  79.4853745
  46.9764404  15.5203466  78.8470383  47.9420204  14.4560966  79.3224411
  49.3889351  24.0810051  60.8033600  48.8212166  24.5264969  60.1744995
  50.2693710  24.1751194  60.4397621  72.8773727   1.1451731  28.4315605
  72.8459015   2.0826297  28.2407284  73.0000458   0.7308661  27.5774345
  20.0857391  56.6054764  65.6922455  19.8797646  55.6710625  65.7181549
  20.4179707  56.7530479  64.8067703  67.6452789  46.7233124  83.1654205
  67.9256897  46.0488014  83.7839966  66.9249649  47.1708679  83.6093521
  40.1744156  23.0560455   7.6620984  40.4021568  22.1307640   7.7527509
  40.9623642  23.5247173   7.9372649   7.7427773  28.6318836  28.1016979
   7.5460100  29.4615440  27.6667519   7.3761868  28.7293339  28.9805298
  46.7960281  55.9009361   6.3426757  46.4857864  56.1023941   5.4598417
  46.9698524  54.9597893   6.3265133  54.9403381  48.9662666  78.0345535
  54.6225967  49.3573380  78.8483887  54.1696815  48.5442924  77.6547394
  75.3015518  11.8200302  39.9363518  76.1932373  12.1607990  39.8655739
  74.7714844  12.5824976  40.1685257  12.5405045  40.1145973  66.8959579
  13.1003084  39.3470879  66.7785645  13.0738459  40.7243195  67.4058762
  43.3718910  65.4093704   5.1177311  43.7631264  64.5370407   5.1647248
  43.9918213  65.9222870   4.5992432  19.5658588   8.0038967  20.3642063
  20.1995335   8.0296040  19.6472511  19.3528042   8.9224901  20.5286083
  78.8191223  37.9889832  14.4021406  78.3476639  38.7899208  14.6311693
  78.1350479  37.3790283  14.1260338  27.4067326  21.4218502  69.3275070
  27.7798481  22.1941776  68.9026260  27.9018555  21.3338737  70.1419678
  83.1544418   0.5592337  13.7029362  82.5632477   0.4089645  14.4405956
  82.6092072   0.4247659  12.9277763  31.8806686  68.7497177  18.8644180
  32.6454277  68.1766968  18.8094139  31.4777699  68.6952744  17.9978485
  71.2378616  10.6359444  69.4680710  71.7235641  10.7579126  70.2838211
  70.8369904   9.7710915  69.5550232  50.2595558  55.2591438  79.8025436
  50.6638031  54.5306282  79.3312836  50.7391968  56.0323105  79.5052338
  56.5700226  12.6783562  83.0916901  56.2913094  13.2609968  82.3852310
  55.7655411  12.2442513  83.3755722  79.2988663  50.0422516  21.9733982
  79.1768417  50.8984146  22.3836784  80.1555099  50.0993805  21.5501633
  82.6295242  43.6623573  65.5820312  81.8930283  43.0548744  65.5129395
  82.3594055  44.4253578  65.0710526  23.3090477  61.7523994   5.6259928
  24.0188904  61.1102638   5.6221066  23.7189007  62.5643005   5.3275461
  34.3684921  15.6952972   1.1061072  34.5368118  14.7543478   1.1562610
  34.2777252  15.8728075   0.1699005  62.1502190  24.0368271  33.0646439
  61.4258728  24.4294891  33.5518494  61.7383385  23.3606930  32.5266533
  57.0371704  30.2216187  59.6621895  57.3237076  31.1338234  59.6173477
  56.8972015  30.0601234  60.5952263  53.1368217  55.6998863  31.1065502
  53.0646095  56.6254883  31.3395309  53.9464836  55.4096375  31.5265923
  43.6508255  18.2757378  65.7837982  43.6103745  17.9217987  64.8953629
  43.3033257  19.1640358  65.7037888  69.4163589  27.9734039  -0.0797628
  69.5420532  28.6679230   0.5668260  69.9094849  27.2303352   0.2679545
  49.3958054  56.1821709  63.3389168  48.6907654  56.6932640  63.7363319
  49.1751556  56.1531296  62.4079475  81.3980255  16.4700813  14.8887415
  81.2617569  17.0066700  15.6695967  81.2728195  17.0750275  14.1575813
  46.0826340  51.2912216  62.0911331  46.4990196  51.6891518  62.8556633
  45.3362770  51.8598442  61.9017868  64.8813629  52.3148727  79.8910980
  64.2937927  51.7281570  79.4149094  64.3759003  52.5914841  80.6554413
  18.9787025  29.8859692  12.5183935  18.9330807  29.4304066  13.3589973
  18.4659157  29.3403168  11.9221163  56.9416924  40.5187569  50.1814194
  56.2765045  39.8310280  50.2093239  56.6004257  41.1567726  49.5547562
  14.3731775  67.9615936   8.7079811  13.4240789  68.0166550   8.8193970
  14.5106115  67.1477737   8.2231789  67.5879364  70.1202774  45.1709824
  67.7952728  69.4215927  45.7915306  68.1094055  70.8662872  45.4672470
  11.8633499   2.3668773  41.0158615  11.2095289   1.7348390  40.7170677
  12.4720125   2.4471455  40.2814789   9.5210781  65.8987885  74.2782516
   9.6854486  66.8170853  74.0639038   8.6302805  65.7361526  73.9679947
  68.6349792  29.8131657  13.8992290  68.1045151  29.0474968  14.1196632
  69.4911804  29.6308708  14.2864161  41.5208435  14.7327423  80.1244354
  41.4006729  14.6039104  81.0652847  42.2862358  14.2011671  79.9057312
  18.0247860  37.0616417  29.2944355  18.5422287  37.7419395  29.7253418
  18.2843361  36.2504845  29.7313404  71.9302521  42.6826019  68.2308044
  72.3982086  41.8797607  68.0012512  71.3271179  42.8251839  67.5013351
  50.4537201  52.4766998  49.6019287  49.6284714  52.4018364  50.0810890
  50.8216705  51.5932121  49.6191483  21.3809738  49.8703384   1.5323220
  21.9547844  50.5752106   1.8325416  21.0347481  49.4842606   2.3368735
  75.2824707  31.1649342  14.6757078  75.0225449  31.8247833  14.0328484
  74.4964218  31.0212593  15.2026892   3.6185191  53.7387543  15.3515034
   2.8820288  54.3419762  15.2518320   3.2264905  52.8683815  15.2808275
  82.0528641  53.0743103  44.7205544  81.9292526  53.9616776  45.0574989
  81.4599380  53.0178833  43.9712334  76.7891693   9.0435390  83.6463394
  76.2990036   8.9660559  84.4648514  77.5904770   8.5426149  83.7986908
  15.1129913  44.8476562  25.3412647  14.8222094  44.1477661  24.7565994
  15.3936949  45.5493317  24.7538242   4.0786633  63.6488228  27.3478355
   4.1742325  64.5620041  27.6183949   4.8466444  63.2092552  27.7128220
  13.1397867  68.7002945  28.0200691  12.5772877  68.2807388  27.3690720
  13.7266626  68.0036316  28.3141289  53.7742767  48.3328629   5.3540139
  54.1196632  47.8570328   6.1093464  53.2301598  47.6923790   4.8958154
  22.7657700  14.0856657  77.4079437  22.2648697  13.9741287  78.2159576
  22.1090889  14.3072481  76.7477112   1.3499123  26.3755531   1.8360075
   0.7479864  25.9817600   1.2044672   1.0703321  27.2890530   1.8958874
  37.9377937  23.4087296  13.7483234  37.1651688  23.5739651  14.2886724
  38.4585152  22.7882690  14.2583342  81.4501419  45.0646744   1.2832534
  81.6757050  45.9776878   1.1050571  80.6885223  45.1144791   1.8609127
  59.2610283  45.2021561  47.5721855  59.5492401  44.2911873  47.6296425
  59.2019157  45.3758659  46.6327400  43.2081146   6.3628750  76.2171860
  42.3037262   6.6192698  76.0366898  43.3074226   6.4837632  77.1615143
  24.8442707  58.3958549  81.4239883  25.7529068  58.3461952  81.1270981
  24.8631630  59.0197906  82.1496506  78.2784271   8.8375835  51.6884918
  77.9983673   8.5329247  52.5516129  79.2281876   8.7185116  51.6890182
  49.1792488  47.4442215  61.9223328  48.7157059  47.7091522  62.7167931
  48.5202866  46.9835968  61.4028816  70.1034470  28.9032249  34.3610916
  69.6556778  29.7447910  34.2745056  69.5687485  28.2939339  33.8520813
  29.0921745  22.0204525  83.0430145  29.6718540  21.4622726  83.5613174
  29.6642189  22.4127808  82.3834076  21.4352283  70.0335846  13.2253237
  20.9319057  70.6155090  13.7947617  20.9561596  69.2051544  13.2458744
  26.8592014   3.9415050  86.4841232  26.5221596   3.0837862  86.2253723
  26.1517124   4.3320422  86.9971313  25.4282818   2.1144946  79.7612991
  25.8929214   2.0434823  80.5951462  24.6479340   1.5719377  79.8749847
  39.6322212  69.9123459  73.0773621  38.8721123  70.3056946  73.5060120
  40.2691383  70.6244507  73.0184631  45.5044250   1.6748958  73.5405960
  45.3788567   2.1132612  74.3822021  44.7554970   1.9513220  73.0124664
  64.2022400  17.7114582  24.6636848  64.4822311  18.5177250  25.0970097
  63.2807732  17.6173687  24.9050903  86.2160645   5.7611561  86.0896225
  85.8314972   4.9162660  85.8561630  85.5387421   6.1981454  86.6058731
  39.7131462  38.9877510  51.5439606  40.2927818  39.4442863  52.1537399
  39.5341225  38.1479378  51.9669189  65.6443253  36.5606003  69.4930801
  66.2032623  37.2022362  69.0547638  64.8357162  37.0367279  69.6819916
  50.2545357  37.0010300  61.7159805  50.7140884  37.4005966  60.9774742
  49.3295708  37.1817436  61.5486107  74.4216614  20.2251987  54.7468796
  73.6412888  19.6751995  54.6779823  74.1709900  20.9216824  55.3537598
  18.2571621  69.4844742  72.4216766  17.8001080  70.1967316  71.9744415
  17.8514538  68.6876907  72.0799713  61.8362198   8.9887486  22.3934021
  60.9090729   8.7636662  22.3161659  61.9807663   9.0890427  23.3342953
  50.3676224  32.8187866   7.9000559  49.6652946  33.2858009   7.4474373
  50.1416016  31.8937492   7.8028278  29.3090343  67.7486649   5.4356422
  28.7767792  66.9538422   5.4011645  29.4962902  67.9514694   4.5191059
  13.7325296  45.2444305  77.7840805  14.5337248  45.3464165  77.2703476
  13.9426899  44.5632553  78.4228745  38.9797516  36.2456818  19.2320995
  39.4639816  36.4130669  20.0406380  39.5123901  36.6482735  18.5462074
  31.2809563   5.7428637  16.2346687  31.4999542   6.5974464  15.8632393
  31.8865929   5.6383381  16.9685020  54.8770027  30.0892124  80.7586746
  54.7979126  29.9802494  79.8109894  55.6738930  29.6115665  80.9890060
   3.1443584  62.9037933  19.3494148   3.5653002  63.7612343  19.4113731
   2.6618171  62.9330063  18.5232601  72.8231125  46.3219376   6.6700583
  73.0507965  45.4064941   6.5077066  72.0009918  46.4517441   6.1972995
  75.4470978  60.8997421  67.2397614  74.5651245  61.2520485  67.1203995
  75.9077454  61.5722160  67.7415695  27.6735268  25.5760765  65.0664444
  27.6559277  24.6198635  65.1061554  27.4688015  25.7817211  64.1542892
  75.0125961  59.4814339  56.7603149  75.8173752  59.4019012  57.2724075
  74.6504211  60.3304787  57.0136642  76.8929138  52.8042641  82.5411835
  77.7801895  52.4478874  82.4967194  76.9859467  53.6172256  83.0378418
  13.8593273  13.7556038  19.7788544  13.5630302  14.4531794  19.1941929
  14.5644140  14.1540623  20.2890663  68.1590118   9.2375822  31.3468723
  68.9018478   9.4636536  31.9066277  67.3889694   9.4781151  31.8620529
  19.7216663  53.9798775  38.1150627  20.6518059  53.8568802  38.3046494
  19.6707859  54.8503227  37.7201347  63.3654404  37.8282890  70.0964050
  63.1144600  38.6548386  69.6840210  63.2545853  37.9851112  71.0341415
  50.7383003  37.9612045  87.9972687  50.6904716  38.3388634  87.1190262
  49.8256073  37.8102264  88.2430954  44.5670929  66.9431229  36.3419456
  44.0442581  66.4202423  35.7341042  45.1236496  67.4804077  35.7782059
  18.2453709  68.6371918  24.9493237  17.6387291  67.9526749  25.2315598
  18.7375412  68.2397461  24.2309647  18.7918682  47.8695793  65.0601654
  19.4035358  48.2656250  64.4394913  19.3114910  47.7284508  65.8515625
  20.9531727  25.8376999   9.2796850  21.6312275  26.4068680   8.9156523
  20.1304703  26.2762985   9.0628366  45.4960327  58.5197563  18.7025223
  44.9017944  59.0148888  19.2663994  44.9672928  57.7902260  18.3793297
  65.1229248  53.5119858  28.5481815  64.2676010  53.5709610  28.9738293
  65.5719986  52.8040085  29.0100594  74.1526337  31.2515450  60.6954269
  74.6558838  32.0508003  60.8508644  74.5320435  30.6091805  61.2951355
  43.2481308  65.6641846  34.2074013  42.6016998  66.0944519  33.6477242
  43.8689384  65.2683868  33.5957108  80.8266144  40.7257118  61.1592178
  81.4548569  41.0823860  60.5312614  80.1228485  41.3738632  61.1883659
  25.2186794  42.1290169  22.6333618  25.8755512  41.7772293  22.0325336
  24.5034714  42.4154358  22.0653172   2.9822743  50.8428726  41.4060402
   3.0739138  51.6621399  40.9195900   2.0389509  50.6820793  41.4288254
  54.3616180   8.3175039  46.7555389  54.5740242   8.1737671  45.8333359
  54.5400620   7.4764748  47.1763229  72.7398453  53.9759903  52.9602356
  72.3181915  54.3228531  53.7464447  73.6118088  54.3708420  52.9620705
  70.6394272  29.2961521  36.9258575  69.9689331  28.8711910  37.4607239
  70.3456116  29.1646347  36.0244102  58.4147644  26.6855431  42.9845810
  59.2005043  26.5125427  42.4660072  58.1015739  25.8182755  43.2414627
  76.6946793  38.5781059  20.7865143  76.9186859  38.4690666  21.7107239
  76.7433472  37.6942139  20.4223747  48.9911461  58.2508354  24.2878075
  49.6005592  57.8025551  23.7013817  48.5675545  58.9083061  23.7359676
  22.1909256  51.9742241  11.3797932  23.0205326  51.8353920  11.8366432
  22.2572155  52.8616753  11.0272770  19.6261139  70.1508865  20.7122402
  19.2951412  70.0176926  19.8240128  20.5572071  70.3395157  20.5951195
  78.4333878   2.5609300  81.1216202  78.6138153   3.3458619  80.6043625
  78.6043243   2.8252621  82.0255814  48.1679802  59.7326584  56.7480965
  48.5355682  60.3353653  57.3945122  47.2949448  60.0802345  56.5658112
   0.5148262  31.0682259   8.8083229   0.2365202  30.7361946   7.9547820
  -0.2953266  31.3559494   9.2291555  70.4511108  44.6893501  37.7468987
  70.0282211  44.0066299  38.2677574  70.8199234  44.2239494  36.9961586
  63.3832016  25.7116871   6.5594053  62.8231316  26.1275768   7.2148347
  62.7741890  25.3804379   5.8993993  79.8067703  17.6493282  50.1673126
  80.6651306  17.4887562  50.5593033  79.2433548  17.8734035  50.9079781
  13.4603539  11.1403999  20.7493954  13.6058455  12.0773821  20.8802719
  13.0553989  10.8447132  21.5647564  45.8995781  62.3769264  36.8386269
  45.9161263  63.0513458  37.5176773  44.9760208  62.1375923  36.7612152
   4.1762533  64.3684235  56.8805962   4.3332047  64.4712067  57.8192329
   4.9261770  63.8634186  56.5662498  82.8619995  37.9682732  15.9885168
  82.8825836  38.8262901  15.5647106  82.2109528  37.4717751  15.4926720
  75.0150452  10.1293440  72.5281143  75.3880157   9.5300159  71.8816376
  75.7715530  10.4608316  73.0118866  66.7335815  35.7239113  50.9929619
  67.5474930  36.1614990  51.2425537  66.1191864  36.4384689  50.8251457
  52.7933388  59.3525276  37.4685860  53.3381157  60.1375389  37.5252762
  52.3699760  59.2924385  38.3249664  38.7375565  34.1607094  70.8494949
  38.2344971  34.6932983  70.2334442  39.6518631  34.3423080  70.6320267
  76.6360626  70.8514404  16.5412064  77.3797913  70.4833298  16.0641346
  75.8692474  70.5761414  16.0387688  20.0370197  43.5265770  26.6442699
  19.1050205  43.7362900  26.7045097  20.0744247  42.7663193  26.0638905
  61.5338402  25.3839607  66.0269470  61.6303291  25.5921612  66.9562302
  61.0117760  26.1040249  65.6731262  25.7085934   4.7926946  66.9252930
  26.1955986   5.3466907  67.5353317  26.1250076   4.9466076  66.0772705
  68.2652359  51.8126488  73.2862244  67.9086227  52.1684799  72.4723206
  68.1221008  52.5038109  73.9327850  67.9715652  25.9119930  72.2633514
  68.1977005  24.9963837  72.0997925  68.4713211  26.1461048  73.0454407
  35.0918350   1.1554626  12.0845213  34.5130844   0.5884593  11.5748291
  35.8908997   1.2148905  11.5608835  49.8771896  16.6538506  17.7353802
  50.0159378  17.0506725  16.8754311  50.5218849  17.0779705  18.3017044
  46.3164825  51.8551559  69.6024094  46.7484398  51.0895882  69.9813004
  46.7741089  52.6029625  69.9865952  55.9378281  60.0469513   9.5224009
  55.1982994  59.9313126   8.9257774  56.5743752  60.5547447   9.0192280
  44.1785507  46.5867195  10.6907492  45.0264931  46.8390694  10.3253164
  44.2301140  45.6351471  10.7806587  46.6365433  52.8948593  26.8248234
  46.9968987  53.0752144  25.9565792  47.4045448  52.8065262  27.3892746
  65.2131882  33.5724640  29.2484398  65.3168335  34.0805817  30.0529919
  65.9725952  32.9899635  29.2335300  43.5560493  45.7338295  62.6262131
  43.4111214  46.0418930  61.7316055  43.4554634  44.7835007  62.5715218
  42.8874245  68.3821106  48.0974007  43.2887955  68.5544968  47.2456856
  42.5227165  69.2255554  48.3654175  29.5109634  18.0281563  84.3843536
  30.3736305  18.4382172  84.4466934  29.1305809  18.3909187  83.5843887
  58.8913651  14.4184437  21.4902039  58.0300674  14.7045279  21.7944260
  59.2550125  13.9279690  22.2273788  15.0211601  33.7960625   8.4638634
  14.7298641  34.5129623   9.0272713  15.1157875  33.0496635   9.0556145
  83.1510925  55.8054390  10.4471817  83.6847534  56.3437347   9.8626547
  83.7522354  55.5388680  11.1427402  72.1712265  19.6742973  56.5084877
  71.9250946  20.0800571  57.3397560  72.3021545  18.7505302  56.7223663
  21.2645130  13.2342558  69.4294891  20.5886917  12.7163887  68.9921036
  20.9727306  14.1406040  69.3313751  42.5989037  28.5081215   8.9744272
  41.7517204  28.7403717   8.5941963  42.3861542  28.1673012   9.8432255
  45.1920586  40.1380348  31.4407501  44.8846893  39.3565865  30.9812965
  44.4054146  40.5020752  31.8468227  50.9835587  54.5004807  20.4339733
  51.5694122  53.7451324  20.4835205  50.2359238  54.1906013  19.9228497
  67.5330276   7.1771564  53.6406174  68.4278946   7.4234962  53.8746262
  67.0122299   7.9573445  53.8311691  42.1111450  32.2080421   3.7702763
  42.6572418  31.4808559   4.0689526  42.4809685  32.4526138   2.9219565
   6.2929730  29.3298206  84.0895004   6.5767937  29.6562061  83.2355957
   7.1070080  29.1440811  84.5575638  71.4078140  54.9565392  55.0584602
  71.4995270  54.4168053  55.8436432  71.0681000  55.7915955  55.3801765
  20.4160881  38.2662010  15.7317104  20.2735233  39.1852036  15.9583035
  20.0253105  37.7775078  16.4560757  84.7414017   4.8004179  11.3778858
  84.0829849   5.0299840  12.0336399  84.8031311   3.8463359  11.4242516
  75.0940933   4.2587366  65.5247650  75.2891617   4.6662602  66.3686295
  75.8086853   3.6366694  65.3883133  75.3588562  34.2339325  61.0625763
  75.2221222  34.0596008  61.9937820  74.5758057  34.7128296  60.7910576
  49.1295815   0.8369724  56.0231667  48.4811783   1.2007514  55.4202843
  49.7057877   1.5733417  56.2280502  29.0125771  19.8905067  66.3065109
  29.6990376  19.9169807  66.9730682  29.3354378  20.4591503  65.6074829
   5.9313736  42.5991211  80.6745758   5.6516275  42.9133148  81.5343781
   6.6004853  43.2248001  80.3969955  31.9596825  66.8455887  54.3470421
  32.5922813  67.2297668  54.9540520  31.8031616  65.9655380  54.6894531
  23.0047131  26.1770439  52.1479492  23.0833817  25.8943443  53.0590591
  22.4294624  26.9412956  52.1831207  20.8623543  67.6774521  44.5695953
  20.8995571  67.5714340  45.5201797  20.7825317  68.6220398  44.4368858
   7.0039506   0.5927736   5.7481637   7.7073712   0.2597744   6.3054276
   7.2730608   0.3618423   4.8590732  72.7411041  64.6254425  31.5656776
  72.7385178  64.2136002  32.4297447  72.1780014  64.0651550  31.0316143
  78.2928238   5.7898760  28.7022438  78.8224945   6.5860519  28.6599655
  78.9157333   5.0793948  28.5491695  43.8377228  48.1244392  74.3463516
  43.9099426  48.2104263  73.3957596  43.9109192  49.0207710  74.6741714
  69.7964325  32.1903763  79.2532959  69.7807159  31.3515778  78.7924271
  70.1853943  32.8006401  78.6267853  62.1790924  62.4198456  76.9316254
  61.5556831  62.3682442  77.6561432  62.1086502  63.3217468  76.6188202
  40.5956802  26.9560833  68.5058441  41.3896179  26.4216194  68.4903488
  40.8416862  27.7635670  68.0545349  23.9111710  45.2138786  62.3938293
  24.6310902  44.7670708  62.8391533  23.2247524  45.2823906  63.0574303
  41.0715675  14.3010740  87.5279541  40.5481110  13.9580593  86.8036804
  41.7034874  14.8864613  87.1105423  34.4684372  54.6223526  32.7857895
  35.2896385  54.1985741  33.0353317  34.5055428  55.4820862  33.2049713
  61.6495171  16.6174660  15.7470150  60.9270592  17.2102470  15.5398970
  62.3331375  17.1871147  16.0997086  63.8802338  15.6136093  80.8501663
  63.6671524  14.6813307  80.8091278  64.7246704  15.6467304  81.2996750
  55.9810143  68.8190842  15.4790173  55.8180428  68.2495575  16.2308884
  56.5508995  68.3042831  14.9076691  55.5763893  45.9949875  26.5679779
  54.7078896  45.6785660  26.8166103  55.4056053  46.7832298  26.0524788
  25.4769058  66.4395142  33.7834015  25.3696327  65.8498688  33.0370483
  26.0291443  67.1475525  33.4518242  73.0113525  41.7801666   8.9494896
  73.4037857  42.4238091   8.3596144  72.6472549  42.3015938   9.6648779
   5.3230081  55.8471375  74.0152283   4.6431026  55.9260521  74.6843567
   4.8412900  55.7147827  73.1987381  39.7618027  32.3501053  17.0211849
  39.3295822  32.2550278  16.1724358  40.2417908  31.5303288  17.1387043
  21.6748409  68.0022736  19.2255020  22.3484688  68.0123749  19.9054680
  22.1593914  67.8727646  18.4102287  45.0456200  58.5725365  62.0051804
  45.2185669  58.4992676  61.0665894  45.1706657  59.5013237  62.1999779
  50.4593925   5.9182410  53.9821701  50.8299294   6.3813262  53.2308464
  51.0887032   6.0652356  54.6882782  58.1665039  36.1124268  83.5283051
  57.2847519  36.1596642  83.8977814  58.2666664  36.9309044  83.0421982
  10.0153074  42.2196465  86.7215195  10.4965305  42.0943451  85.9036255
  10.3372717  41.5262299  87.2974930  21.6465607  48.7958565  11.3187618
  22.0181847  48.8808441  12.1967735  21.5325260  49.6976051  11.0186300
   2.7995946   5.2858639  79.4986115   2.7686377   4.8109288  78.6681213
   1.8835583   5.4784079  79.6987000  48.2648392  11.0591259  70.9629898
  48.9329758  10.9207039  70.2916794  47.4657211  10.6922102  70.5848160
  21.3378849  50.0379410  23.3146286  21.9422398  49.8334465  22.6010685
  21.8976536  50.3784752  24.0124302  15.5610600  49.7556648  34.5871658
  14.8827868  49.8523483  33.9187126  15.6849375  50.6398315  34.9323235
  41.7378044  50.3968468  73.1008224  41.3971863  51.2132072  72.7350769
  42.6879616  50.4735336  73.0139389  31.1910839   1.5940560  58.3797264
  31.6068821   1.5371829  57.5194283  31.4782715   2.4376109  58.7292519
  23.1345119  56.6820297  68.5140533  22.4573288  56.2658691  69.0474014
  23.9548378  56.3037224  68.8305664  37.9118500  55.3291512  19.2368488
  37.1196938  55.5989151  19.7015495  37.7773438  54.3992462  19.0540295
  50.2424812  43.6529007  23.4700012  49.9807549  43.5499153  24.3849468
  49.4176292  43.6613274  22.9844246  57.9360466  18.7650299  10.9164038
  58.5601578  18.4689445  11.5790129  58.4783363  18.9916458  10.1608896
  75.3892899  68.0447083  80.9794006  75.8986053  67.2347870  81.0085068
  75.2977142  68.2366409  80.0461197   4.1192927  15.3235264  62.1353569
   3.8764670  15.3897190  63.0588760   4.6525636  16.1013622  61.9715767
   2.0988677  45.1388741   4.1751728   1.4994076  44.9214630   3.4613013
   2.2753909  46.0730171   4.0635982  60.9393425  37.8293457   3.0263417
  60.0229645  37.6808548   2.7930236  61.4157562  37.1258202   2.5855374
  78.1360703  56.9831161  87.4024200  78.4112930  56.3197479  86.7696228
  78.8511047  57.6194458  87.4086304  57.4141579   4.6418400  36.3453369
  57.2415504   3.7521081  36.6532593  57.0635185   5.2060475  37.0345039
  22.2837811  20.1664982   0.6906456  21.5132675  20.7249393   0.7939963
  22.7318611  20.2179508   1.5349258   6.1163483  70.9760971  25.9828949
   5.3608532  70.4007187  26.1028805   6.3149958  71.2971420  26.8624992
  48.4589996  54.0091743  48.0526543  49.0492935  53.5005493  48.6086121
  47.6986732  53.4412079  47.9279556   4.2888155  54.2580948  46.8485031
   4.1230264  53.6379738  46.1384354   3.7354867  55.0115242  46.6425743
  85.7946091  37.1107483   4.5624814  86.3393021  36.3303108   4.4602051
  85.7791977  37.2700768   5.5062017  56.4835625  67.5518036   1.6695238
  57.2710915  67.3526993   1.1631761  56.2958641  66.7442398   2.1479068
  83.9164581  23.3143234  83.2283249  84.7526093  23.0128136  83.5835342
  83.8551483  24.2290211  83.5036392  59.0150757  64.2269821  55.7562752
  58.5875549  64.4383926  56.5861931  59.0909233  65.0676804  55.3049431
  32.6866188  45.2227783  36.3408089  33.2519760  45.9948196  36.3643303
  33.2093010  44.5307312  36.7459106  68.5795441   0.5023365  76.2960739
  68.1214600  -0.3360312  76.3555298  68.0371399   1.1079885  76.8012695
  17.3788300  -0.1043888  35.2540283  17.6047935   0.6340055  34.6883888
  18.2195435  -0.4139495  35.5910835  75.4196243  43.7005882  31.3113327
  76.2380829  43.7988815  30.8248234  74.7698135  43.4784966  30.6445103
  86.6800385   5.9230967  79.8611145  86.7897415   6.8703961  79.9437103
  85.7866440   5.8129182  79.5356369  46.7669792  67.6841507  28.5312366
  46.4629059  67.7208633  29.4381123  47.5673065  67.1603622  28.5679836
  76.6602631  51.2754517   4.6895108  75.8865738  51.5684128   5.1709814
  76.3794632  51.2548637   3.7746544  23.7758083  23.2415581  20.3383121
  24.1796474  22.7416687  19.6289062  23.8972893  24.1567974  20.0857086
  23.1359386  42.1060333  83.0443649  22.7697811  42.9743347  82.8764038
  24.0829964  42.2287560  82.9791641   1.8199304  42.9861946  81.4991684
   1.0961496  42.8877411  80.8805542   2.2817724  42.1485748  81.4627228
  26.3455105  40.9262962  83.7928391  27.1225681  41.3162079  84.1933136
  25.7089729  40.8745537  84.5058441  -0.0756299  38.6906700  48.0694122
  -0.5537617  39.4580116  48.3837547   0.8200293  38.8226585  48.3802261
  10.7095795  51.1683083  18.5320969  11.4130068  50.8696213  19.1084728
  11.1045036  51.8717461  18.0168858  64.6381683  28.4401894  10.5430613
  64.2636490  29.0912399  11.1364384  64.8334122  27.6893539  11.1037388
  28.6578827  24.8768101  78.6640854  27.8396797  24.6801739  79.1202774
  28.3822708  25.2822704  77.8419724   7.9861183  61.9002838  62.0846558
   8.6462126  61.5878448  61.4658737   7.9898367  61.2502975  62.7873192
  14.6634598  24.4589500  19.5588589  15.2693987  25.1682854  19.7731380
  15.0686855  23.6765862  19.9329319  84.0481339   2.7929168  28.0692749
  83.3416443   3.1012506  27.5017891  83.6382141   2.6910536  28.9282417
  15.2056465   1.7097739  41.6851845  15.6820745   2.5320940  41.5710030
  14.7473497   1.5811869  40.8547287  61.4374428  11.6067400  45.8124084
  61.5525551  12.5204983  45.5515900  61.5840607  11.1079626  45.0086975
  51.6183662  11.3697071  31.0268707  51.2136383  11.3090258  30.1615696
  52.1352386  12.1746721  30.9936104  71.4910202  37.5126190   1.4865980
  72.4334412  37.5001945   1.6537126  71.2484818  38.4363251   1.5511620
  54.3918114  68.8315964   5.0646071  55.0523376  69.0735397   4.4154549
  54.7080765  69.2152100   5.8825603  17.7215023  35.4603615  84.9046631
  18.6313381  35.5411148  84.6184616  17.6980915  34.6418266  85.4003296
  47.3106308  37.9569168  30.2208385  46.5493774  37.5509872  30.6355019
  47.8064423  38.3341942  30.9475174  51.4348526  51.4813042  14.4860420
  50.9522133  50.9042015  15.0778570  50.9846230  52.3233795  14.5526257
   5.9695549  12.7845259  64.0509338   6.7046757  13.2288132  63.6285172
   6.1814737  11.8535347  63.9832764  55.1183815  40.9419670   8.4000320
  54.3046036  41.4440536   8.4437084  55.7716751  41.5084953   8.8104992
   8.5262489  51.2143173  48.1937408   7.5989833  51.3263397  47.9843102
   8.9871836  51.6854248  47.4996033  37.8118515  23.5516224  73.4077606
  38.2309189  23.9450283  72.6423569  38.1281853  24.0706043  74.1472321
   5.9537315  51.9100838  82.6686020   6.2542682  52.5485916  83.3153000
   6.6564865  51.8776665  82.0195160  78.1813736  19.9699745  42.9376945
  78.0137558  19.6140575  43.8103104  77.3422012  19.8953114  42.4833221
  20.3906250  29.5179520  17.9441814  21.3292580  29.6667957  17.8299732
  19.9917984  30.3743057  17.7898293  29.1999931  67.5850143  89.0711365
  29.0071487  68.3048172  88.4703598  28.8819313  66.8037262  88.6187439
  14.0015764  47.0467033   4.3152466  14.5263510  46.9806519   5.1130447
  14.4164581  46.4374847   3.7045436  15.6464462  64.3802567  43.1187439
  16.1178474  65.0345840  42.6031303  14.7220964  64.5628510  42.9500237
  69.9136581  59.1164589   8.1425982  70.7613220  59.4309769   8.4568758
  70.1108551  58.2828407   7.7154903  80.9847031  20.2597122   3.9479902
  80.8291168  19.5492744   3.3256547  80.5370865  19.9807320   4.7467628
  59.4711418  18.8848782  59.8315964  60.3773270  19.0452366  59.5682602
  59.3717384  19.3659954  60.6531029  65.4474258  69.1332397  30.7852764
  65.4185104  69.9555054  30.2961178  65.7398453  69.3857040  31.6610546
  43.6682739  42.1319733  56.2386246  44.3748932  41.4866257  56.2175102
  43.0341034  41.7725487  56.8590050  76.7990112  32.2590599  31.5740871
  76.4562836  31.5130329  32.0662384  76.6054001  33.0181580  32.1241035
   8.5815630  56.2913513  85.6998596   8.6425276  55.4202118  86.0918121
   7.6753478  56.3554573  85.3983688  10.1052017  28.8764095   3.8926384
  10.2457275  28.3371506   4.6708951  10.1166811  29.7760525   4.2193522
  33.4586983  29.9365406  82.7565994  33.9223709  29.1567841  82.4512863
  33.3961487  30.4963818  81.9827194  80.4073029  19.0624104  31.5569630
  80.6158218  19.9770794  31.3668842  81.2311859  18.5951824  31.4185925
  34.9211426   5.7144465   9.1596251  34.5425301   5.2807155   8.3949270
  35.7217827   5.2225695   9.3420124  52.8071213  64.8149948  22.9894905
  52.9533882  65.7136765  23.2848034  53.6750412  64.4118576  23.0100918
   6.4128876  14.4573727  59.0411453   5.7231421  14.1588182  59.6338921
   5.9740939  15.0726519  58.4536705  26.6182461  52.2128944  63.1028290
  25.7200108  52.5376701  63.1654778  27.1054821  52.9320831  62.7008362
  52.0673523  42.5229797  38.5940628  52.2606277  43.3084908  39.1057777
  51.5287399  41.9853973  39.1746979   8.6852198  56.7193222   4.0306740
   8.8496275  57.4328690   3.4141924   8.2302866  57.1354408   4.7628717
  39.1863327  11.6684999  44.4479294  39.7357559  10.9574928  44.7778320
  38.5501366  11.2352953  43.8788795   9.5337200  14.3774071  74.2666016
  10.4526043  14.6272259  74.3639374   9.4910698  13.4838705  74.6071930
  15.1582270  50.0502853  54.5816116  14.5148859  49.3448563  54.5129585
  15.8035288  49.8528404  53.9027634  59.6898117  30.4194012  50.1440849
  59.8517609  29.7590084  49.4703751  59.5758171  31.2354927  49.6570168
  79.8389740  50.0066757  24.9014111  80.5832443  50.5881195  25.0570412
  79.4337158  50.3448563  24.1028938   3.0554442  27.5633621  43.4623718
   3.8496175  28.0739231  43.3047409   3.1539400  26.7897568  42.9073372
  43.8297653  54.8758240  64.1288605  43.2345009  55.6046486  64.3040848
  44.4351044  55.2142792  63.4691277  74.0816345  44.3909988  70.0689774
  73.3138962  43.9779816  70.4642258  73.7534027  44.7808304  69.2587128
  20.4852524  63.5882301   1.2925473  19.5773087  63.2857208   1.2736144
  20.9050789  63.1316719   0.5634866  55.0148201  23.9638577  34.5556221
  54.6783028  23.0796795  34.4099655  55.2854996  23.9688854  35.4737396
   9.7999077  14.3792315  71.7493973   9.2204981  13.6540194  71.5157623
   9.7730732  14.4087000  72.7057648  44.0730019  50.6422005  59.4369507
  44.1941147  50.0128365  58.7259903  44.9358482  51.0395279  59.5546837
  69.1734085  28.6673450  79.5996552  68.7105942  28.9468288  80.3895416
  69.0076218  29.3648777  78.9654617  68.0784683  50.8377037  52.6395035
  68.7187119  51.3732719  53.1079903  67.9830856  51.2672539  51.7894325
   2.3179684  45.5011253  82.8930893   2.4566026  44.5874672  82.6436005
   2.3351438  45.4933319  83.8500977   8.6331329  17.2157993  87.6030045
   8.6419382  16.8732815  86.7092285   8.4342403  18.1465206  87.5008698
   3.1116667  16.4269009  55.4380417   3.2032030  15.4899187  55.6110039
   2.2416289  16.5147209  55.0487442  51.8898087  65.9417877   7.2749362
  52.1704216  66.5381470   6.5807853  52.3860168  66.2199402   8.0447683
  60.3510895   8.4644947  81.7365112  60.3639374   9.3875732  81.9894791
  60.1647987   7.9957747  82.5500412  21.1742802  61.6080132  18.6565151
  22.1152267  61.5591202  18.4878197  20.9066811  62.4463539  18.2799435
   8.6728725  54.0100327   0.5374284   8.9092197  54.8690224   0.8874409
   8.8409929  53.4031448   1.2583001   3.0860300  39.0190392  85.0313873
   2.5866654  38.4789925  85.6439362   2.4808755  39.7161942  84.7784195
  64.0848999  25.7603378  32.2729797  63.5812035  25.0536270  32.6768150
  64.9025421  25.7859955  32.7699966  17.4715004   7.3730373  62.6347008
  18.3792400   7.6084285  62.4427910  17.4237785   6.4345527  62.4524918
  43.1288300  36.3488884  21.7498932  42.8540878  36.3637657  22.6666946
  44.0571747  36.1178207  21.7817802   1.0446528  38.2872772  66.7956085
   0.1375177  38.4703712  66.5510330   1.3735344  37.7263069  66.0931931
  85.6592789  41.5334930  68.7731476  85.8802643  41.2299881  69.6536484
  84.8729858  41.0399246  68.5399857  32.3893509  63.5083809  64.4132538
  31.4805565  63.7717896  64.2685547  32.9009438  64.0998764  63.8613129
  45.3664055  52.0308342  13.1029482  45.5157623  51.2426224  13.6251030
  45.0655975  51.7032089  12.2553596  80.2956161  28.8315144  38.2970238
  80.4937210  29.7620697  38.1918831  80.3933182  28.6703815  39.2354927
  57.9202194  40.5414581  86.1306915  58.4856415  40.2045670  86.8256989
  57.7396812  41.4460869  86.3862000  22.6334400  29.6341839   3.3220439
  22.7667103  28.7958012   3.7642941  23.5001411  29.8714371   2.9922402
  76.0906448  48.0355263  66.6535034  75.7005920  47.7029114  65.8451385
  76.7590027  47.3890381  66.8806229   5.2851796  25.6678143  23.2134895
   4.4816275  25.1743069  23.0492115   5.7192030  25.1903210  23.9204941
  15.2380152  32.1228714  88.1608124  15.3383341  31.9753494  89.1012344
  14.4131670  31.6916733  87.9373779   4.8351116  24.7754135  88.9238815
   5.0567398  23.9552517  89.3648453   3.9321842  24.6532516  88.6305695
  41.7502899  53.1620674  10.1589785  41.0692444  53.3640709  10.8005428
  42.5472832  53.0612183  10.6794233  83.1736298  59.3426056  14.6803532
  84.0115662  59.7879295  14.8060045  82.5160828  60.0062218  14.8888540
  56.2968521  55.1009331  59.3156624  56.6885948  54.2308159  59.3909378
  56.3854942  55.3241615  58.3890877   6.9820800  43.6828384  36.9152565
   7.1070404  44.5793610  36.6040192   6.5032144  43.7796249  37.7383919
  81.9949188  47.4774170   5.6915865  81.3881226  47.4862022   4.9513435
  81.6902466  48.1851959   6.2594404  64.5784302   4.5620947  20.5251369
  64.2449265   4.0489273  19.7891541  63.7950020   4.9237914  20.9394417
  16.4462242  40.0581703  16.4650383  16.5071545  40.7830238  17.0872211
  17.1427650  40.2277641  15.8307676  67.7917328  69.4258194  25.2537422
  68.4061813  70.1521759  25.1484261  66.9379044  69.8012924  25.0387421
  35.8758888  60.5440483  18.3837566  36.6329918  60.7250862  17.8267536
  35.1257629  60.5910225  17.7910175  75.8668137   9.2227898  47.4787140
  75.8748550   8.2677603  47.5426331  76.0902710   9.5236778  48.3594894
  39.8808517  69.2876358  61.0339432  40.5051117  69.5259857  60.3485832
  40.2198334  69.7089767  61.8237495  79.9760284  18.7064190  47.8265114
  80.8994675  18.5307579  47.6458435  79.7717896  18.1584797  48.5843239
  25.7998924   8.7547016  57.5443344  26.5174999   9.3417025  57.7824516
  25.0929718   9.3392725  57.2708893  81.0514984  65.5976639  44.7966194
  81.6174088  66.0319901  44.1583900  80.2085648  66.0431595  44.7115784
  47.4678345  10.8312521  10.2158298  48.1533775  11.4491138   9.9618511
  47.7238426  10.5352163  11.0893593  62.6444550  18.2102833  42.8912430
  62.9002380  18.1641750  43.8124809  62.8556976  19.1061687  42.6285706
  18.1422062  67.1858749  55.7738762  18.7627831  67.8942413  55.9451599
  18.6727352  66.4922104  55.3819656  75.7949829  63.0570984   9.2921124
  75.4087524  62.9147339  10.1562824  75.9856262  63.9947739   9.2664967
  55.6507111  65.0873795  22.3567257  55.9235039  65.4809875  23.1855125
  55.8381577  65.7579803  21.6999245  15.8860340  11.6839228  81.4029922
  14.9437351  11.5158062  81.3965302  16.2229729  11.1319427  82.1086960
  54.5964699  11.5184669  40.9402847  54.6284103  10.9026833  41.6724205
  54.2423058  11.0072660  40.2126350  57.3456650  32.2666817  74.0289001
  57.8883324  32.3133545  73.2417755  57.4725418  31.3756599  74.3548050
  80.5577621  33.5981255   9.4461985  80.1593094  32.7911606   9.7721968
  79.8378754  34.0673218   9.0244789  41.1715355   0.0829091  67.2327652
  41.6472626  -0.4018514  67.9072495  41.5884399   0.9444220  67.2179947
  63.4357719   3.7876194  11.9107389  64.1348114   3.1827517  11.6623163
  63.7995491   4.6566391  11.7413149  77.6846085  24.1309814  73.2290726
  78.1980209  24.5857334  73.8967896  77.2540207  24.8318024  72.7395020
  44.9997330  56.4555016  88.2502747  44.7291069  56.8037949  89.0997925
  44.1812973  56.3371277  87.7682114  85.3328552  32.7569504  81.1937103
  84.7784500  32.1028290  80.7682800  84.7209854  33.3103523  81.6790924
  78.8717728  39.2699509  63.2662506  79.2927628  39.2104454  62.4086609
  78.0838852  39.7907829  63.1106720  34.4816093  13.9845686  10.1177244
  34.9026451  13.1267462  10.0620346  33.7833710  13.9515705   9.4638071
  20.9661350  52.4880943  73.0367813  20.1496086  52.9632568  72.8827133
  20.9770737  52.3305092  73.9808578  37.4477348  20.3393784  70.1118469
  36.4976044  20.2385769  70.0542374  37.7924690  19.4633675  69.9386520
  75.6191864  30.0592709  58.1249962  75.1306763  30.6300278  58.7181473
  75.6047974  30.5181465  57.2850800  71.4920731  33.5623512  54.8355598
  71.1595306  34.0972061  55.5563812  70.7240448  33.3904495  54.2907448
  50.4495850  69.2360535  70.9857788  50.1855850  69.4977875  70.1037140
  50.7940598  68.3493347  70.8794785  68.4902573  19.8804817  69.8978806
  68.8561707  20.7431297  69.7024765  67.5432434  20.0003471  69.8269577
  40.2378235  66.0126724  13.5462866  40.6692352  65.2841187  13.0998316
  40.9490852  66.6151199  13.7639952  11.1889238   1.2903943  54.1625328
  12.1229820   1.3903161  53.9787331  10.7778673   1.2501453  53.2990265
  55.4259377  71.3108292  29.6423111  54.5805931  71.1141891  30.0459862
  55.7011070  70.4833755  29.2475471  83.8425827  11.4157495  15.1400242
  83.8339615  10.5838375  14.6666546  83.6912231  12.0771103  14.4648037
   0.6958632   0.7087275  12.6811161   0.9445962   1.6229136  12.5446348
   1.5117978   0.2199088  12.5736980  72.7698288  46.5267639  37.5030327
  72.2297287  47.1908607  37.0746651  72.1790085  45.7849884  37.6331711
  76.6935654  14.2920752  77.0326920  77.2621994  14.6346579  77.7222748
  75.8310318  14.6571817  77.2300949  36.0270691  49.0486336  51.6008835
  36.5732460  48.5951347  52.2429581  35.2947350  48.4521713  51.4454918
  57.7331200  56.8638039  46.5325699  57.8655167  56.4258423  45.6917992
  58.5511932  56.7208481  47.0085411  32.4693680  21.8767338  66.1180420
  31.6093521  21.8649464  65.6979675  32.5269356  22.7427692  66.5216522
  71.8825455  34.3896599  10.4211960  71.6778259  33.5846901  10.8969545
  72.7788620  34.6008949  10.6824064  65.8536453  18.3911304  39.4068298
  66.4157715  17.9774456  40.0618973  65.1218109  17.7833099  39.3010063
  53.7165909  66.4818573  51.9547691  52.9534798  66.3072891  52.5056076
  54.4153442  66.6936798  52.5737228  10.2858992  52.5810623  32.5431175
  10.4248838  53.5279465  32.5611916  11.1372805  52.2186508  32.2980919
  32.0560570  45.7018318  48.9885292  32.1893616  44.8701706  49.4432831
  31.5133457  45.4772301  48.2327194  53.5685577  44.9250221  13.8189917
  53.6607018  45.1480103  12.8926983  52.6577072  44.6446915  13.9084034
   5.5033760  31.0951672  51.5405083   6.3317752  30.8638668  51.1204071
   5.6789722  31.9312820  51.9721451  74.5107574  18.8260326  47.3238029
  75.3993759  18.6637993  47.6404419  74.2689590  19.6679592  47.7097130
  21.3382893  60.2343521  42.3743706  21.4869614  61.0749397  41.9413071
  22.0502491  60.1632729  43.0102081  45.7557564  36.6324043  34.9308701
  44.8877640  36.8680534  35.2584229  45.6649170  35.7237511  34.6439400
  10.0497408  49.1737862  47.3760223   9.4126625  49.8218422  47.6766586
  10.0580435  49.2699699  46.4237022  82.2481232  50.8700943  51.4850349
  81.8048401  51.5121460  50.9305038  82.4793396  50.1577797  50.8889008
  58.1673546  34.1941872  30.6138363  57.7647591  34.6454926  31.3557777
  59.0477600  33.9727287  30.9172726  15.0841312   8.3342628  81.4998169
  15.4462299   7.9664512  80.6937027  14.1865501   8.0032921  81.5320511
  43.2135811  54.0083122  44.1898079  43.2285194  54.6849174  44.8667259
  42.3135185  53.6826210  44.1965332  85.8499069  33.7476959  45.6201248
  85.9018555  34.3938332  46.3244247  86.1486053  34.2175636  44.8415146
  77.0758743  53.8517799  46.1280746  77.3310165  52.9337883  46.2198448
  77.7140884  54.2176895  45.5156860  10.9516745  59.7127190  57.6374931
  11.1553993  59.4519501  56.7393112  11.5683212  60.4197807  57.8273315
  42.2691040  13.1202049  42.2582550  41.9562416  13.4256525  41.4067574
  43.0941811  12.6752110  42.0647163  76.4002380  44.3950195  26.6966152
  76.9623184  43.6749573  26.9826431  76.7361145  45.1607018  27.1626148
   2.4484951  58.7642021  46.0423622   2.2021651  57.8437386  45.9512672
   3.1729193  58.8802490  45.4275665  83.7942276  29.8977509  11.6999846
  83.6133194  29.0900898  12.1808023  83.4906616  30.5953922  12.2808266
  72.3324966  14.9638386  66.9849472  72.4209366  15.7645893  66.4680252
  73.2253113  14.6267462  67.0590286  52.0286674  31.4696598  49.7515106
  52.8089180  31.1822739  49.2773247  51.9959869  32.4154739  49.6079979
  66.4733353  15.1732368  78.3231049  67.4248734  15.2752600  78.3430710
  66.3311996  14.2320404  78.4239960  68.4808197  55.0957336  16.0610752
  67.5741501  55.3618660  16.2138920  68.9705963  55.4877090  16.7840633
  51.9658928  66.3069916  62.4677544  52.2570763  66.4346390  63.3706093
  51.7719193  67.1894150  62.1516266  24.9889545  36.8717003  62.0390434
  25.4183006  37.5088005  62.6100044  25.0829620  37.2369385  61.1592751
  82.0572357  66.0904236  75.3123093  82.1006088  65.3474121  74.7104034
  82.8547440  66.0204773  75.8370132  75.4491196  58.5331039  35.2530251
  75.3449326  59.4749374  35.1176529  75.5848236  58.1784096  34.3743858
  42.2233810  65.1169357  65.5261612  42.0311813  64.5699005  64.7645569
  42.3063774  66.0017929  65.1706772  48.3504410  47.6389999  72.3389664
  49.0703735  47.4620781  72.9444656  48.7078476  47.4330635  71.4752045
  61.1882248  20.2909107  11.5895157  61.1782684  21.0090199  12.2223291
  61.6341248  19.5766602  12.0447664  56.1741142  34.7457008  23.3485737
  55.7305031  34.0595131  23.8471565  56.3325729  35.4411697  23.9868889
  57.8028183  54.8087845  62.0317841  57.0404625  55.0409966  62.5619965
  57.5139885  54.9364853  61.1281776  77.6357193  56.4149895  71.9819412
  78.3597794  57.0132217  71.7973175  77.0789108  56.4659157  71.2050171
  70.9963913  59.7031822  51.7358437  70.6559677  59.5572395  50.8532104
  70.2748642  60.1226654  52.2045212  58.4515572  10.4088469  63.7671356
  57.6988525   9.9096794  64.0841522  58.7772026  10.8685570  64.5409927
  26.1861172  48.8233871  52.2125702  25.6347809  48.0847549  52.4707947
  26.8379478  48.4416924  51.6246452  78.8185654  43.5286636  82.8818665
  78.3621902  43.0733681  82.1742935  79.5853958  43.9174538  82.4611053
  45.6199417  11.2552023  63.4013596  46.1762924  12.0113573  63.2144470
  44.7953377  11.6340094  63.7059326  85.1103897  11.1982670  58.0316467
  85.4756393  11.4799252  58.8703918  85.7063522  11.5617647  57.3767204
  59.1314545   5.7878809  18.5475998  58.6387215   5.1888947  17.9866524
  60.0317459   5.4648886  18.5103893  69.1024551  20.3966427  73.4953842
  69.8748016  20.4827499  74.0542221  68.3620911  20.4568005  74.0990906
  75.0327377  38.8409767  75.0186462  74.4789810  39.1661339  74.3088150
  75.4635773  39.6229782  75.3637314  21.8236599  -0.1288157   6.9826312
  22.0014305   0.7387939   6.6194739  22.4517956  -0.2219636   7.6988726
  79.3682098  59.4233055  15.1462364  80.1919708  59.8158188  15.4353304
  79.6009369  58.9302559  14.3594885  32.1575546  34.6226501  70.8739319
  32.4974060  35.5141106  70.9515991  31.2448273  34.6889839  71.1545639
  13.1685429  61.5990601  57.1079330  13.5185518  62.2734680  56.5257797
  13.2137604  60.7924652  56.5945168  52.0933228  62.8131714   9.5824862
  51.9763718  62.5303917   8.6755199  51.8684540  62.0429382  10.1044102
  70.2408142  62.2659836  58.5944977  70.8623123  61.5713310  58.8122940
  70.7858658  62.9800148  58.2638817  49.2725906  56.5562134   7.5180712
  48.5078316  55.9944191   7.3925161  49.5390892  56.3990784   8.4238968
   5.0024300  43.5747375  86.4886475   4.7286448  42.7248497  86.8335571
   5.9511733  43.4978600  86.3876114  65.2235947  42.5890388  73.2609024
  65.0507431  41.6600418  73.1081924  64.3970490  43.0240288  73.0515442
  35.6896439  66.2993698  57.1813660  36.1088219  66.6125107  57.9829025
  35.8496323  65.3556366  57.1803665  67.7337799   2.9547024   7.8373232
  68.0257416   2.9381275   8.7487612  68.3714828   2.4136419   7.3716760
  16.3243999  15.7970562  17.0682774  16.2404423  16.3486004  16.2904720
  15.5634365  16.0210400  17.6039982  75.7069016  17.8739834  42.5008011
  75.2222595  17.9768791  43.3198051  76.6124115  17.7286720  42.7749634
  30.8745403  55.2535934  85.8228149  31.2561417  55.9628181  86.3401260
  31.6039276  54.6548271  85.6624908  58.7111931   2.6534050  33.6457863
  57.7877693   2.4391105  33.7784424  58.7299423   3.6088824  33.5915413
  77.8337631   7.1024566  31.8729305  77.4251099   6.2718377  32.1164474
  78.7708054   6.9091148  31.8444996   7.2582054  39.1741562  67.1871490
   7.6603222  38.9473114  68.0256500   7.9936233  39.2348747  66.5774765
  39.2347679   0.5770994  28.3752098  39.3693123  -0.2407264  27.8963661
  39.6844025   1.2389838  27.8498802   4.0341654  47.9011459  33.5507507
   3.7788069  47.0137711  33.2985878   4.9274130  47.8083267  33.8819962
  41.3095818  30.7153168  19.6005383  41.2388268  29.7725391  19.4508877
  41.7055626  31.0560875  18.7984772  65.6716385   1.9927977  82.9441528
  65.0023727   1.4413639  83.3494263  66.3445663   1.3776219  82.6526871
  19.9793873  64.5300827   9.1777811  20.1392441  63.9199638   8.4577589
  19.1278973  64.9188766   8.9776917  74.8556213  53.3065186  44.7500114
  74.0799332  53.3257103  45.3105202  75.5904083  53.4124756  45.3542328
  78.1246185  20.8406162  34.8199310  78.0403061  20.1329918  34.1808739
  77.4142380  21.4446011  34.6036148  39.0352859  45.0980530  30.4373856
  38.6701736  44.5563812  31.1370411  38.3616104  45.7566185  30.2680111
  22.6614933  54.6421928  53.9126167  22.8066826  54.0755234  53.1549644
  21.7129993  54.6320610  54.0410309  44.5841217  45.0785484  52.8599281
  43.7348824  44.6384621  52.8966789  44.7429276  45.3680725  53.7583656
  50.8224640   7.4924374  51.7874260  51.5930443   7.9602423  51.4655571
  50.3521690   7.2321043  50.9954147  67.6725769  41.4961472  31.7766895
  67.6022720  42.4344215  31.9525509  68.4297180  41.2125015  32.2890434
  28.5740566   9.1392088  88.1710129  28.1312847   8.3136425  87.9744797
  28.5182285   9.6405153  87.3574982  60.7942276  37.9207115  44.6937561
  59.9755287  37.4780388  44.9173660  61.0899734  37.4872589  43.8932037
   6.6914721  57.0529900  81.2827835   6.8217378  57.6150856  80.5190353
   6.9072113  56.1735458  80.9725113  80.9982605  54.4969521  42.1849251
  80.5749359  54.0505905  41.4515800  81.7091217  54.9964561  41.7831726
  64.2357635  42.5541763  11.4126768  64.5913467  42.6294327  12.2981873
  63.5436440  43.2143478  11.3755970  17.7777882  10.7346010  75.7340240
  17.8584251  11.4215603  76.3956985  17.5242252  11.1989632  74.9363403
  83.2873230  31.0061169  24.6516056  83.8530655  31.1850681  25.4026966
  83.5781097  31.6233597  23.9802742  63.5057068  33.6408310  88.3210678
  62.5656967  33.7688599  88.1937027  63.5717125  33.1491165  89.1396561
  49.3522491  40.1457329  72.4207687  48.9884872  40.2562904  73.2992249
  49.1933746  40.9848099  71.9883957   0.9779048  12.8980331  65.9505234
   1.4318504  12.1137419  66.2588348   0.2569966  12.5633974  65.4170990
  33.3743401  68.1146469  58.6286430  32.4728775  68.1058884  58.9503899
  33.7826424  67.3525009  59.0393181  53.9116516   2.9019914  70.7078552
  53.2586708   3.0351584  70.0207443  54.1291847   1.9713701  70.6544189
  73.1415405  35.6666603  34.8825684  73.9387131  36.1175499  34.6042633
  73.2571716  34.7663116  34.5788689  54.9093704  15.4190941   9.4569340
  55.7201614  14.9261112   9.3311510  54.2140923  14.7757959   9.3191481
  28.5245037  56.2622108   8.9399900  28.7314453  56.2672043   9.8745394
  29.1263466  55.6193428   8.5648403  84.7437057  21.4622650  53.8948593
  84.7724152  22.3182220  54.3223457  85.6269455  21.3383656  53.5473289
  80.8917084   4.2166529   4.4328489  81.6704254   4.7624269   4.5422077
  80.4362335   4.2782249   5.2724824  55.4973907  55.4116936   7.3325515
  55.2440948  55.0793724   6.4713683  55.3879128  56.3602028   7.2649474
  81.3114319  25.4661388  44.9414177  82.0278778  25.8128738  44.4097099
  80.5418320  25.9592304  44.6571503  37.5053101  59.4186478   2.4151723
  37.0767097  59.3377876   3.2672248  37.1934662  60.2546196   2.0685728
  40.5287514  50.3773460  19.3931084  39.7495461  50.4621887  18.8436775
  40.9085884  51.2558403  19.4073486  41.8118324  55.2196884   5.3511624
  42.5398331  55.2659874   4.7314038  41.1766777  55.8559380   5.0225301
  60.0410156  12.0265512  79.5168076  59.7246246  11.2127600  79.1245422
  60.6530342  12.3811817  78.8719025   4.2251825  45.0337029  25.8530960
   4.8342705  44.7929726  26.5511608   4.2252827  45.9909019  25.8546810
  64.5812683  54.3627663  11.5317421  65.0725174  53.5975876  11.2327309
  64.9464569  55.0924110  11.0312567  75.8290482  53.4385033  25.8256207
  75.0841370  53.9243164  25.4716015  76.5962753  53.8642044  25.4430389
  10.6461926  19.1152840  32.2811852  10.8229179  19.1532192  31.3412037
   9.7903957  18.6916084  32.3470879  66.1455460  65.2083130  71.1351929
  65.2575836  65.5618668  71.0827179  66.5935593  65.7778854  71.7605743
  65.7255096   7.4479766  80.9073792  64.8213348   7.4669008  80.5937958
  66.2217331   7.9160962  80.2359238  52.3463898  45.7842216  68.6642685
  52.2610512  45.0730476  69.2992325  52.1848335  46.5793724  69.1720734
  15.7571125  43.0479774  73.5808487  15.7523155  42.0952644  73.4884186
  15.0339804  43.2341576  74.1797256  77.9270554  39.8402863  85.3464203
  77.5655441  40.3094940  86.0983429  77.1865692  39.7397423  84.7482452
  82.5951385   6.0549216  26.5067921  82.1685715   6.8295875  26.1405048
  82.8243484   6.3080068  27.4010201  25.4255428  34.2434158  86.2985077
  25.6300831  35.1621819  86.1245575  26.2696400  33.8467407  86.5138702
  44.3080635  70.0275269  73.2675171  44.9192238  70.6533356  73.6562042
  43.4508896  70.2897720  73.6032486  59.7808876  28.9024639  40.6290398
  59.1281357  28.2352428  40.8410835  59.3542137  29.7318592  40.8441811
  53.2302742  70.5522766  45.8399506  54.0222130  71.0318298  45.5968704
  52.7715302  71.1373672  46.4428215  25.0379982  15.5661068  57.3364220
  25.4912663  16.0388241  58.0345039  25.2144184  14.6430902  57.5184898
   4.2893748  47.2343750  22.8645477   4.3919230  47.4589005  23.7893734
   5.0628338  46.7095337  22.6583061  22.5717773  40.2710724  34.8160095
  23.3478661  39.8866386  34.4084206  21.8928604  39.6039047  34.7150345
  13.3039417   0.5583865  49.4476700  12.6515188   1.1941292  49.1537170
  13.2395258  -0.1595451  48.8178635  55.5560150   2.6730704   8.1231146
  56.0454750   2.3726335   7.3573475  54.7010803   2.2503178   8.0419073
   4.0151205  24.2181530  30.5475540   3.2430587  23.7651196  30.2085667
   4.7554045  23.7623158  30.1470261  77.9443512  25.1943054  68.4412308
  77.0949631  25.6355953  68.4347000  77.7869568  24.3788815  68.9171982
  68.1366196  70.7397385   5.6946321  68.9866943  70.9786148   5.3251166
  67.6504059  71.5635300   5.7290668  53.7927399  62.7127800   1.6639146
  54.4110107  62.9780426   0.9830281  52.9680786  63.1296959   1.4142183
  48.1701584   2.0161312  17.8345451  48.8264961   1.8581787  18.5131493
  48.6385040   2.5042746  17.1573448   8.6681805  69.0206985  34.4955101
   8.2940922  68.1421738  34.4286232   7.9198422  69.6082840  34.3907814
  85.8005295  43.1950264  32.9399834  85.3386230  43.9538803  32.5835876
  85.6416855  42.4975319  32.3039818  52.9603920  41.6500702  42.2714615
  52.0986176  41.4709625  41.8953094  53.5623703  41.1107941  41.7585907
  50.9434242  40.5136948  40.1603088  50.0092201  40.3344727  40.0536346
  51.3299713  39.6605377  40.3576355   9.8660002  36.4229927  21.4802361
   9.0747175  36.0024109  21.8167114   9.6422434  36.6715546  20.5833626
  26.3113384  61.1180077  46.6756363  25.9415646  60.5184937  47.3237724
  25.6317482  61.7795219  46.5460815   3.3387897  48.4757767  53.0667686
   2.5109575  48.4986420  53.5467720   3.7402847  49.3270493  53.2410316
  33.6144524  42.2776184  13.9466524  34.5693703  42.2118759  13.9534769
  33.3949966  42.6652260  14.7939014  46.0185280  44.3717766  11.3453474
  46.8621254  44.1141357  11.7170906  45.4096718  43.6950684  11.6413097
  66.2121735  25.9648838  23.4376297  65.3202820  25.8888912  23.7767277
  66.5318756  26.7960281  23.7886620  74.6824417   4.1615119  75.6555710
  73.8757706   4.6742973  75.6048660  75.2540283   4.6704307  76.2304764
  29.0516720  50.3880272  67.8765869  29.7768536  50.9501877  67.6039810
  28.4742565  50.9665985  68.3746643  86.1755066   4.5277085  35.9427147
  85.4531708   5.0921245  36.2182083  86.9244003   5.1185746  35.8635902
  79.7261887  28.8931141  82.1823425  78.9238892  28.9137020  82.7040100
  79.6736984  29.6740456  81.6313248  50.2412643  60.6922684  46.1932373
  50.3944473  61.5332222  46.6240082  50.5773811  60.0423164  46.8103409
  16.2101097  44.8546257  76.5468140  15.9834385  45.1202888  75.6555939
  16.2834473  43.9013290  76.5012360  24.3423843  37.8571968  34.0839195
  23.8233643  37.0555458  34.0190773  25.2213879  37.5555382  34.3132286
   8.9888916  41.1808548  39.9531746   9.1532707  41.2590599  40.8929062
   9.5950193  41.8032761  39.5513916  61.8697243  68.0315628  67.4441452
  62.7692375  68.0176926  67.1171570  61.7290115  68.9373550  67.7197647
  45.4563408  32.5302620  70.0730362  46.2949448  32.0870514  69.9444351
  44.9482803  31.9284058  70.6169815  66.9329910   8.3951044  29.1038170
  67.1979065   9.1650400  28.6005783  67.3624344   8.5041523  29.9522972
  74.6234894  59.9241791  38.3276787  73.8717957  59.9064102  38.9200287
  74.6911469  60.8389015  38.0539398  13.4227877   3.5490644  75.1165237
  12.6697836   3.8660336  74.6177750  13.8416815   4.3431659  75.4484329
  62.1351776  36.5312233  55.6869469  62.8914185  36.3685532  56.2507439
  61.8140068  35.6587029  55.4593658  11.0651236   1.0097393  -0.1064003
  11.0969486   0.8856043   0.8421826  10.4850283   0.3156786  -0.4194528
  53.3948174  67.7902679   2.2188232  54.0580673  67.6187973   1.5502971
  52.5940857  67.9620361   1.7232863  72.5190506  54.7443314  45.9908447
  72.4041443  55.6282349  46.3397598  71.9647141  54.1943626  46.5444527
  29.2444115   1.3639734  45.0844383  29.8844471   1.3930148  44.3732796
  29.2074986   2.2632358  45.4103127  19.2010059   3.6840000  84.5631866
  19.2069778   4.0347257  85.4537964  18.8980637   4.4123330  84.0209808
  19.9424400   4.7499061  59.0506859  19.0126362   4.9771609  59.0577736
  20.3901176   5.5657401  59.2748108  21.8950348  40.8354454  58.4988632
  22.1995678  41.3794174  57.7725105  21.2413177  40.2564888  58.1068306
  10.6056890  56.0272446  55.0585365   9.9683342  55.3198700  55.1566887
  11.2347851  55.8825912  55.7653198  30.9043999  53.3909187  58.4412460
  30.9329929  52.8313217  59.2173042  31.7717857  53.7940674  58.4045753
  67.9004288   0.4729144  60.7492218  68.6833496   0.0317712  61.0788574
  67.9564514   1.3591106  61.1066437  49.2348404  49.5544395  51.4777527
  49.2336769  49.3146515  52.4044304  50.1571808  49.7044067  51.2703133
  56.8637695   3.5805357  24.2214813  56.9066391   2.6388528  24.0552654
  56.1213303   3.8825555  23.6982250  34.0414429  26.5887966  16.5955887
  34.9346619  26.9266853  16.6605492  33.4848099  27.3533707  16.7432919
   7.6854072  18.9664078  19.6622925   7.1314578  19.6040192  19.2119350
   8.3250694  19.4975662  20.1365662  84.3471527  71.2632065  32.6575127
  84.2784805  70.8328018  33.5097275  85.1754456  71.7413559  32.6967201
  76.8345184  48.8613892  38.7026024  76.6129913  49.7402687  39.0103912
  76.1021652  48.3156319  38.9890213   4.0155983  66.5132141  34.4068756
   3.9543200  67.4678497  34.3729172   3.3368757  66.2080765  33.8048286
  75.7795029  15.5573053   3.6494150  75.7316895  15.8714104   2.7464843
  74.8666992  15.5003290   3.9318407  44.3634987  16.0930309   6.5346107
  44.1463966  15.2198792   6.8612666  43.7837372  16.6809158   7.0188651
  57.0641441   2.9495537  83.2104263  56.6649361   3.6190138  83.7660217
  57.9819603   2.9294975  83.4814224  58.8734169  25.9326878  14.6916666
  58.1444168  25.6036682  15.2175341  59.6553345  25.5942783  15.1279211
  52.1167297  59.4133644  57.3204765  52.1609077  58.6258011  57.8627167
  53.0296288  59.6784554  57.2083206   2.5387919  59.0121460  58.7032928
   2.9868453  59.5992165  58.0943336   1.6090053  59.1285896  58.5079231
  55.2637367   3.7636466  45.7693787  54.7364960   4.1416683  46.4731903
  54.7425270   3.9024868  44.9786224  49.3194542  68.1508255  17.7076092
  50.0864716  68.2772141  18.2661285  49.4409142  68.7722015  16.9897156
  60.3414345  11.8553772  84.7118378  61.0178986  12.5280495  84.6334686
  60.8008652  11.0328407  84.5427475  22.8025036  34.6014442  81.5435333
  23.6888580  34.5779991  81.9041748  22.7345142  35.4624557  81.1308975
  51.9329758  64.3545456  19.0679073  51.0967941  64.3138733  18.6038189
  52.5173759  63.7934456  18.5581264  42.2732849  61.6861343  88.1860733
  42.9323502  61.0793381  87.8489380  42.7246208  62.1698036  88.8778763
  83.4282684  40.9941521  73.7181015  83.2515793  40.4789276  72.9309769
  82.5740433  41.0880432  74.1396561  86.6388397   4.3324060  49.2851372
  86.1301727   4.5595574  48.5067482  87.4481964   4.8359246  49.1977043
  16.2863388  45.6506462  46.4394760  15.9539347  45.3206215  45.6047173
  15.5021381  45.9052124  46.9257469  11.3812075  32.0605621  72.1505966
  12.2014093  31.5686874  72.1111069  11.0808487  32.0987091  71.2425385
  34.5359192  56.6770973  59.5601425  33.6377029  56.6442223  59.2309685
  34.6906700  55.8043404  59.9215050  11.1432352  35.2926407  29.8343868
  10.2863293  34.9347343  29.6023350  11.4686270  34.7095032  30.5201721
   9.1280594   3.4815257  65.4051590   8.5477924   3.7940924  64.7110214
   9.8936415   3.1412344  64.9422150   0.3756379   5.7510352  71.1870880
   1.2577360   5.4541841  71.4107285  -0.2008958   5.2340269  71.7497101
  78.6629410  53.0762520   2.8719954  79.4207611  53.5002937   2.4693358
  78.2929001  53.7445793   3.4487455  29.8788528  61.2954712  53.5898781
  30.8322754  61.2873039  53.6744499  29.6732883  62.1780777  53.2816887
  54.6802406  13.3764639  20.1876907  54.9235573  14.0057440  19.5086956
  53.7761536  13.1391602  19.9814320   7.8274941  66.3934174  34.2175598
   7.0430603  66.3194427  33.6740303   8.1993952  65.5114365  34.2226639
  72.6018372   1.7015805  21.7872791  73.4830856   1.7828177  22.1520214
  72.5712433   2.3538363  21.0873814  41.0636559  19.8017673  71.3733521
  40.2776566  20.0743599  71.8467789  41.5112305  19.2066727  71.9748306
   0.7605198  40.4172363  43.3813553   1.5504363  39.8771553  43.4053535
   0.0888735  39.8779373  43.7988243  70.8801041  68.4509125  20.4977188
  71.1287231  67.5638123  20.2379684  70.4067078  68.7980576  19.7416668
  37.6157722  57.1292000  12.1700811  37.2131996  56.7780762  11.3758020
  38.5445862  57.2087402  11.9527998  75.0350800  70.7097015  14.4555931
  75.5087585  69.8931808  14.2970114  75.1740494  71.2253723  13.6612358
  59.5463600  49.8013306  13.9089842  58.8580780  49.6557922  13.2598944
  60.3008652  49.3195076  13.5701580  54.9362679  52.3433418  53.5389481
  54.2756615  52.7479897  54.1011696  54.9808235  51.4349289  53.8373413
  71.0914612  49.2939606  23.7384472  70.3183365  49.0427856  23.2330494
  71.2572098  50.2025414  23.4869747  32.9496574  42.8391037  84.9051208
  32.5554810  42.3882027  84.1584320  33.6142578  42.2308998  85.2285919
  57.5540924   9.4746990  74.6376266  58.4481430   9.1470213  74.5399857
  57.4729271  10.1527643  73.9669037  33.5679893  54.5816498   4.1354709
  34.1505661  53.8596535   4.3711724  32.8714752  54.1701469   3.6238430
  52.0905647  35.4632225  69.6072311  51.1642952  35.4984360  69.3684387
  52.1440887  35.9475365  70.4311218  69.2133560  63.2606812   0.1383836
  69.2062988  63.2788048   1.0953859  68.8270111  62.4146767  -0.0880043
  27.9614372  66.4969788  12.0487757  28.4753551  66.6977539  11.2665920
  28.5495129  65.9745255  12.5941582  61.6691093  48.7778625  67.1524124
  62.0985527  48.0025635  66.7908554  61.1469307  48.4441338  67.8819199
  74.1372528   4.5325480  51.3336563  73.8498688   3.9259648  52.0160789
  74.1475449   5.3881974  51.7625999  31.8927631   3.7971702  41.3557777
  31.9844589   4.7486792  41.3062325  30.9891148   3.6580639  41.6391525
  69.4826660   4.8101606   3.6828399  69.1459274   5.0815825   4.5367556
  68.8183060   5.1033006   3.0591986  24.2552528  13.0783882  65.6071854
  23.6836166  12.3218651  65.4762802  24.9088211  13.0079889  64.9113998
  13.8289642  13.1556702  14.7002058  13.8789463  13.5513973  13.8300714
  13.0423365  12.6110744  14.6708212  53.5235405  30.3620682  35.0316315
  53.6881104  29.8925438  34.2138939  53.0299835  31.1383286  34.7669563
  13.0302267  25.9329052  83.1095886  13.6688881  26.0613308  82.4082718
  13.0684166  26.7421131  83.6194534  10.7247353  33.1252975   3.5505314
  10.2256413  32.4508553   4.0112534  10.0682974  33.6075783   3.0478110
  60.8062515  40.4373856  41.3096123  61.1044998  40.0228844  42.1192207
  59.9285507  40.0826149  41.1681366  83.1528931  55.1054039  18.1038246
  83.2064972  55.7430000  17.3919048  83.0873489  55.6370735  18.8970852
   8.2429380  62.7456818  21.5209122   8.4900723  62.0197029  20.9481030
   7.2994990  62.8425179  21.3913822  28.4088287  42.2745667  10.0633163
  28.5380173  42.0308914   9.1467113  29.0150719  41.7142601  10.5478344
  56.2146034  34.9791374  74.9800186  56.3159332  35.0245247  75.9307556
  56.4798203  34.0878296  74.7531586   8.2178059  18.0069351  67.4338150
   7.9335780  17.0931435  67.4545746   8.8271589  18.0515499  66.6969757
  21.5711594  55.6772041  63.3468513  21.6957722  55.5875587  62.4020386
  22.4370308  55.9105911  63.6815605  19.8552265   7.9696345  82.0739594
  19.8666744   7.7709136  81.1376801  19.5831623   8.8861513  82.1209641
  36.6404648  33.9651604  12.2202168  36.3293228  33.0604744  12.2513046
  36.2922058  34.3657188  13.0167704  45.7685242   8.7333794  35.3290634
  46.3604546   7.9873261  35.4252472  45.3554420   8.8236446  36.1878090
  80.4495468   8.5203094  20.6736279  81.2110367   9.1002684  20.6767616
  80.2403717   8.3946457  21.5992012  71.8302307  70.9459076   8.6939182
  71.4281082  70.1004333   8.8931637  72.6250153  70.7246704   8.2085295
  66.3874588  48.5717735  13.5919132  66.4320679  47.6208878  13.4916115
  65.4821854  48.7934151  13.3737650   2.3257253  10.0917454   9.6828165
   2.0882149   9.9736881  10.6025352   2.8531840  10.8904362   9.6722775
  65.2168274   4.5840068  16.1088791  65.4849472   4.0667629  15.3494034
  65.8637314   5.2876744  16.1598873  80.4980011  68.2020645  72.6681747
  80.1620941  67.3058319  72.6812286  81.4212799  68.1084137  72.4336090
  82.8951416  51.9140587  87.0005264  83.7311020  51.6831360  86.5954590
  82.7039337  51.1833191  87.5884857  82.4585953  27.4299507  37.7198753
  82.3108368  26.7757435  37.0369339  81.5836411  27.6320381  38.0512962
  48.3051491  65.6869354  17.6313457  48.1377411  65.5325089  16.7016354
  48.6150246  66.5916824  17.6718616  36.1669617  42.1483536  78.7917557
  36.6796494  42.9538116  78.8597260  36.0397301  42.0240746  77.8512268
   7.8858347  56.7009621  48.9199181   8.6835670  56.1746597  48.8664322
   7.2813206  56.2825851  48.3069305  77.4957809  56.5154266  42.5804214
  77.3620377  56.9986038  41.7650185  76.6904602  56.6575661  43.0778999
  72.6588211  42.0117493  51.9832268  72.3346252  42.4814606  51.2147865
  73.1278687  41.2588806  51.6234932  58.3639145  50.3152885   8.0882559
  58.1706390  51.2430496   8.2229271  58.6264305  50.2562065   7.1696558
  61.2564812  39.2796402  46.9946671  60.4279366  39.7369614  47.1382103
  61.0525665  38.6155891  46.3361206  12.4164772  61.6581879  35.0260239
  12.1242704  60.7466965  35.0207672  11.7631826  62.1160927  35.5549507
   7.4450002  50.5495605  56.6585922   7.2917705  49.8853035  55.9866447
   8.3425951  50.3916473  56.9511986  14.2483673  44.3150673  11.4348021
  14.5227079  43.6290894  12.0434093  15.0052462  44.4450378  10.8634233
  41.2943344  41.2169647  26.3802624  42.1832237  41.2827721  26.7292271
  40.8923492  42.0604134  26.5881786  61.5002136  23.6040230  45.1316147
  61.0777779  23.8986607  45.9384422  62.4370804  23.6991749  45.3032379
   2.3100605  58.2264099   8.7623510   1.6531333  57.5568123   8.9529305
   2.5462945  58.5809898   9.6194954  30.4419117  56.8858719  73.9206696
  30.2554245  55.9530907  74.0273132  30.4234333  57.2371254  74.8108978
  85.2356339  34.7715797  19.6655941  84.6939316  35.0272903  20.4121857
  85.0359268  35.4208717  18.9912281  47.8200645  44.7603874  88.5818939
  48.3813362  44.1365280  88.1214447  46.9504318  44.3609810  88.5608978
  44.8264961  61.0833054  74.9427643  45.1000938  60.4346466  74.2942200
  44.5266838  61.8294449  74.4235153   0.6202114  50.6709633  17.4023323
   0.3128982  51.5619278  17.2350922   0.8226379  50.6590614  18.3378067
   5.8783002  37.3022919  56.3081436   5.7339649  38.2389603  56.1737747
   5.7570934  36.9145203  55.4414406  50.5494652  13.4499617  41.0401382
  51.2388268  13.4829569  41.7034035  50.1021156  12.6191120  41.2007637
  15.0052385  50.6065979  30.1654282  15.6105976  49.9756165  29.7760258
  14.5590887  50.1159325  30.8556671  41.9374123  24.5609627  65.3271942
  42.2098923  24.4970417  66.2425690  41.3036232  25.2781868  65.3154907
  84.6593857  70.2087784  35.5554771  85.1035461  70.2072525  36.4033852
  83.8436356  70.6840515  35.7132607  37.8775978  45.1603928  61.0060806
  37.4468155  45.4481087  60.2011681  37.9188423  44.2072639  60.9281387
   1.1378492  23.2347298  41.8052063   0.3372285  22.7934666  41.5214386
   0.8324699  23.9473228  42.3666191  73.5677719   8.9024401  50.7796631
  73.5229645   9.6783409  50.2209167  74.4714050   8.5982542  50.6950989
  76.3656006  36.9851265  83.3244705  76.1908875  37.5632820  82.5818787
  75.5452347  36.5098534  83.4561768  61.1159248  41.6381226  57.1215858
  60.4264717  41.2174072  57.6352806  61.2393456  41.0608101  56.3681221
   8.9297161  15.6894102   2.0019438   9.4243898  16.0425987   1.2624931
   8.7425699  16.4511070   2.5506032  22.4420891  49.0677605  14.1077623
  22.2108517  49.5388336  14.9082928  22.1954899  48.1598892  14.2843838
   9.9582129  58.4046593  19.3287048   9.0556803  58.1074371  19.2132759
   9.9197483  59.0030327  20.0748329   1.9640917  53.4332085  43.7406387
   1.3902243  53.7703400  44.4285698   1.3903135  52.9008636  43.1896210
  18.7733345  38.0856857   5.3079333  18.6846561  38.2710457   4.3730483
  19.2759418  38.8241348   5.6518984  21.6450272  17.4479599  72.6719818
  20.7816677  17.1120472  72.9128265  21.4929066  18.3686543  72.4588776
  86.3712692  14.3279953  68.5677261  86.1260071  14.0512590  69.4506149
  87.2440567  14.7076178  68.6694946  29.6206608  46.3274498  82.7733459
  30.0191708  46.5512238  83.6143875  29.2848873  47.1589813  82.4386139
  46.2542839  45.3315849   8.6830826  45.7649422  44.7455254   8.1057510
  46.3124695  44.8572006   9.5124245  20.6563587  41.4683990  24.6277027
  20.3359642  40.8639183  25.2971668  20.9011307  40.9049530  23.8936405
  37.6209450  24.6976357  78.0032425  36.7225800  24.9020767  78.2628174
  37.5927734  24.6666241  77.0469666  15.7866306  64.6877747  62.1647415
  15.6125250  64.0092239  61.5124512  16.6810093  64.9741745  61.9795570
  35.2347565  62.2154808  22.4613571  36.0202942  61.8552246  22.8729153
  35.2489853  63.1447258  22.6905537  27.8325367  67.2280579  77.5525513
  27.4589977  67.0001602  76.7012177  28.7347946  66.9111633  77.5107956
   1.1064422   5.0385847  55.9645157   1.9786808   4.6448474  55.9444466
   0.7884786   4.8712573  56.8517189  11.2904320  16.7063465  10.7521706
  10.5491524  16.1802444  11.0520935  10.8944407  17.5152283  10.4279289
  13.5787382   2.7009504   9.8072176  14.1828423   2.7264578  10.5492678
  14.0060015   3.2283597   9.1322975  36.1912270  59.3562088  83.8180466
  36.6839981  59.4150810  82.9995499  36.7716064  59.7403412  84.4751892
  32.8660202   4.9742203  13.0950804  33.1483917   5.7869468  12.6755877
  33.6808510   4.5249414  13.3196478   9.6585884  38.4457855  29.8093700
   9.6479788  39.2619972  29.3094521   8.7913857  38.4002380  30.2120075
  36.8344803  11.2692881  11.6801109  37.6071815  11.3345585  12.2412748
  36.9685326  11.9386482  11.0091276  20.9349670  67.9386139  47.3396301
  21.6328297  67.4473648  47.7731056  20.9621258  68.8040161  47.7477531
  16.8109474  39.6733665  87.0739441  16.0151997  39.6475410  87.6053162
  16.6038933  39.1400871  86.3065033  40.3879242  53.4167938  41.3330421
  40.6862717  52.5107765  41.2533264  40.3901749  53.5877151  42.2748528
  51.4155045  70.5898895  49.6537056  50.6866875  70.4157715  49.0581055
  52.1963081  70.5149002  49.1051102  29.6588593  61.9167023  79.1789398
  30.6021328  62.0624123  79.1066055  29.4672928  61.2540054  78.5153351
  18.6877613  18.0088863  81.1337357  19.2944832  18.4146709  80.5144958
  18.0699844  18.7056694  81.3552780  26.9731503   4.5766001  30.5427113
  27.6121082   4.8335438  29.8779221  26.2779617   5.2308016  30.4722500
  27.6898956  60.6670265  22.4714794  26.9848003  60.0362663  22.3258400
  27.7873516  60.7018318  23.4230690  58.5054703  23.8936329   3.6881626
  57.5853882  24.1428375   3.7752330  58.6667366  23.8987274   2.7446592
  38.9476624  48.0038300  56.4232559  38.0646744  47.7210693  56.1853256
  38.8242378  48.5422592  57.2049789   4.2845106  47.4713440   5.6922493
   5.1359777  47.0639725   5.5332375   3.8497930  46.8841133   6.3106461
  79.3531342  49.4795303  82.7683411  79.2377243  50.3972588  82.5219955
  79.8968811  49.1111755  82.0720062  80.3873062   6.6054854  53.9189186
  80.1936264   7.2553153  54.5945206  79.9205933   5.8192053  54.2020645
   1.1458354  60.8779602   3.5232322   0.8212807  61.7451248   3.7659619
   0.3780077  60.4230652   3.1771903  56.4749222  50.3668785  76.4782257
  56.0651283  49.7005043  77.0298080  56.5117760  49.9684792  75.6086578
  73.5620804  30.2627602  79.9599075  73.1575394  30.2209320  79.0934067
  74.4110718  29.8348579  79.8487854  28.4258652  54.1210098  61.5956345
  27.8375835  54.1262093  60.8405647  28.9591713  53.3348427  61.4783478
  21.5962963  45.3556976  64.4783173  21.4288864  45.9332848  63.7336006
  20.8354454  45.4719505  65.0473709  45.3282204  66.6616669  76.9881058
  45.8641205  65.9199829  76.7071228  45.7441902  67.4239044  76.5853729
  23.0186520  59.8060760  44.3454170  23.6626244  60.5113297  44.2810287
  23.0476265  59.5384064  45.2639732  83.8400803  34.2126198  68.8424072
  84.5395432  34.8005142  69.1276703  83.1778107  34.2767029  69.5305405
  54.9237976   6.4854116   9.8018389  54.4061623   5.6952100   9.9563303
  54.8499947   6.6397595   8.8600521  18.5268078   2.4307544   3.8943448
  19.0625210   1.9021146   4.4857697  19.0276451   2.4599628   3.0791516
  47.7535629  61.0503731  25.0786304  47.5773468  60.1573792  25.3748398
  48.1820679  61.4700012  25.8246384  64.9163132  27.4813080   5.0115991
  64.7753220  28.3775139   5.3168330  64.3088837  26.9534245   5.5298657
  25.0848846  55.5288429  44.9182243  24.1633739  55.7700920  44.8241539
  25.1120167  54.5971832  44.7002716  57.0055046  67.7991409  37.4199600
  56.1874084  68.2887344  37.3347816  57.5702400  68.1552048  36.7340088
  56.5763893  36.1189919   5.1659532  56.4745712  35.8906593   6.0899272
  56.5122337  35.2830048   4.7041693  27.9506493  46.7086372  47.3670654
  27.6623421  45.9879112  47.9271278  28.0748329  47.4436607  47.9675255
   7.2660103  26.6202450  55.8659172   7.6952043  27.4569454  56.0446815
   7.6862063  26.3013477  55.0671883  41.2121353  57.3146095  17.4013672
  40.6177940  57.3501701  18.1508503  40.7830925  57.8451920  16.7300720
  43.4278793   9.1331301  80.3829651  42.6018982   9.6049814  80.4894867
  44.0132904   9.7659435  79.9669495   9.4592285  27.7361965  53.8235703
   8.6612959  28.1528454  53.4980850   9.6813498  28.2286320  54.6137619
   0.5688776  35.2001686  84.2436676  -0.0406987  35.0118637  84.9572449
   0.7432020  34.3470383  83.8461685  65.7839813  62.5359612  88.2525482
  66.3253403  62.9369545  88.9325180  66.2961884  62.6338463  87.4498672
  76.0636902  22.5329018  84.9468231  76.4655380  22.0674458  85.6803741
  76.7630997  23.0894356  84.6042786  21.3558331  55.5851326  81.1193924
  21.5929585  56.3613853  80.6120071  21.4169769  54.8626518  80.4944839
  84.0444260  11.0312452  39.7568283  84.7870636  11.6011610  39.5570297
  83.2803879  11.6051979  39.7015800  19.5801277  46.9801292  10.9359465
  20.2961273  47.6045227  11.0530319  18.7890930  47.5190811  10.9410925
  18.2520752  11.7378216   2.9478219  18.4108295  11.4866543   2.0379078
  19.0702381  12.1470413   3.2295685  18.9762306   0.9862078  53.6134567
  19.3352871   0.7254176  54.4615707  19.2655869   0.3017113  53.0101585
  17.7278175  58.2049713   8.7550755  16.8641872  57.8846283   8.4947824
  17.8951244  58.9444084   8.1707172  68.4399872  70.7524033  56.1065216
  67.6845398  70.9388351  56.6640015  68.2680969  69.8790817  55.7543945
   6.2056684  27.6361256  80.6285782   6.1719170  27.6560726  79.6721802
   6.8641067  28.2916584  80.8587265  42.9301376  60.9588280  18.4763489
  43.7054672  61.5164032  18.4114857  43.1011467  60.3978653  19.2328568
  27.2771683   8.4118986  39.3959656  27.0096073   8.9561567  38.6554070
  26.6656132   8.6418600  40.0955009   0.2131240   1.1509135   1.1408447
  -0.1159236   1.2105236   2.0377316   0.8093977   1.8947164   1.0545503
  26.2276497  31.5680428  62.2505913  25.5011082  31.6837025  62.8629570
  26.4229145  30.6315937  62.2847481  75.4628143  18.2970295  66.4064789
  75.2437134  18.9129391  67.1056824  76.3499756  18.0040588  66.6146545
  17.1009560  36.2696190  58.6843109  16.6000767  36.8672104  58.1291199
  17.8384457  36.7940063  58.9963341  70.3676224  33.9567146  72.4494553
  70.1470871  34.3007698  71.5838776  70.8088531  33.1260719  72.2717285
  12.3492231  41.8214951  58.3416710  12.3764753  42.5386696  58.9750366
  11.9378443  41.0988045  58.8157158   0.8975137  69.7038651  25.8261719
   0.5481273  69.4929199  24.9603405   0.6323306  68.9675751  26.3773479
  78.5239334  14.5503922  57.8028259  78.2211456  14.3409290  58.6863861
  77.7903137  14.3130007  57.2356682  42.7374458  37.6691589  25.1275959
  42.8946762  36.7300606  25.2255840  43.0943222  38.0564384  25.9268990
   1.9779433  49.7874832  -0.2518251   2.6771348  50.3099670   0.1410786
   1.2248551  49.9242401   0.3229683  43.0701714  37.8987617  58.5456657
  42.5097809  37.2006340  58.8845024  42.4965324  38.6634026  58.4957733
  39.7441139  62.3518257  38.5990715  40.6460190  62.4238968  38.2866440
  39.8279152  62.0672646  39.5091438   2.9347866  53.4219131  63.0720215
   2.9549234  54.3787956  63.0863075   2.2865548  53.2059746  62.4016495
   1.9941984  61.8094940  21.6588345   2.4716656  62.2714882  20.9697647
   2.6742685  61.3640480  22.1641216  48.2316704  28.1169071  51.7507896
  48.2826347  27.2577686  51.3318443  48.8607330  28.6552773  51.2705078
  17.0435276  58.0725861  44.1715584  17.8028717  58.0064621  43.5925484
  16.3705063  58.4936523  43.6367912  26.6176014  30.2546062   6.4094186
  27.3802052  30.8004341   6.2177391  26.3969975  29.8484421   5.5712080
  11.1473160  52.8929253  57.9782791  11.3333549  52.0775795  57.5126266
  10.7085857  53.4441032  57.3302460  29.0664768  59.4536057  88.6257477
  28.9380169  59.1985168  87.7121429  28.4989834  60.2153435  88.7437897
  80.9376831  55.3432007  16.2437992  81.3951492  55.0989571  17.0483494
  80.2803650  55.9793549  16.5257168  67.2226257  63.9152908  45.7359619
  66.6058731  63.4150543  45.2015381  67.9116592  63.2885094  45.9564514
  16.5608082  51.3155479  86.2757645  15.8715429  51.6394958  85.6959305
  17.3540001  51.7600479  85.9766006  53.4495163  66.3604355  14.5655499
  54.0936279  66.5617981  15.2443762  52.6048813  66.4177780  15.0122499
  40.7368546  58.8638306  67.8285141  40.8301201  58.3229713  68.6127396
  41.6031151  59.2500801  67.6995392  34.2410698  65.3863068  63.5396004
  35.1867676  65.2400742  63.5170746  34.1468773  66.3377151  63.5863457
  60.5351028  68.0576401  24.8559685  60.8058777  68.7490692  25.4599934
  60.9149666  68.3119812  24.0149879  27.3407021  50.6947899  86.8362808
  28.1159611  50.2650261  86.4750214  27.4542046  51.6190910  86.6148987
  32.8086700  37.4329338  70.5914230  32.7213554  37.5574875  69.6463928
  33.0076065  38.3056145  70.9306641  13.3966246  49.8733215  71.1701355
  13.5994844  49.6814156  70.2545776  13.7023268  49.1033630  71.6496582
  15.2967472  62.7494469  60.2108002  15.8301334  61.9553070  60.1779823
  15.3621874  63.1184883  59.3300323  49.9437943  27.5483646  31.7702484
  49.0323524  27.7657967  31.9657707  49.9558525  26.5927429  31.7166252
  20.5461369  68.9765167  78.4440155  20.8368568  69.3550110  77.6142807
  19.7728691  68.4612198  78.2143326  47.2671928  70.1683655   4.5381489
  46.6007881  70.8543243   4.4981132  47.6878548  70.1926575   3.6786814
  23.4070415   0.4362500  80.2251511  23.4145298  -0.4310522  80.6300735
  22.8586102   0.9660031  80.8037796  82.9456940  59.3392410  81.3707733
  82.4491043  59.8205719  80.7089920  83.5466080  59.9876060  81.7378616
  30.4964905  52.0235863   2.7486634  30.0438519  52.7955704   2.4089713
  29.8120174  51.5182991   3.1873145  33.5397224  68.8561020  65.8413620
  33.1220169  69.0726471  66.6749420  33.5370941  69.6783905  65.3513947
  51.7435646  16.3918476  72.3101883  51.6306953  16.3923283  71.3596649
  51.5265121  17.2849350  72.5776062  61.4258232  53.0988197  61.7962303
  61.7405624  52.1980629  61.8724442  62.1126785  53.5519600  61.3072205
  22.9515419  39.2593536  75.1772995  23.8435516  38.9744301  74.9788742
  22.9090576  40.1582184  74.8510132  20.0115795  63.2203407  35.0026932
  20.4807949  63.1960831  35.8366470  19.9405956  62.3023415  34.7410202
  48.5971336  40.9328461   0.8028087  48.9187546  41.0324554  -0.0932224
  49.3676453  41.0793419   1.3515207  80.6350098  37.3284569   9.6997986
  80.2908020  37.5216408  10.5718269  80.1540604  36.5497513   9.4195595
   8.9117756  58.3127632  81.8300781   8.7752876  58.9121017  82.5638351
   8.0568285  57.9052238  81.6914749  45.9220467  66.4237595  88.7951126
  45.9118881  67.2377853  88.2916336  45.2208366  66.5308762  89.4378052
  27.8998070  52.9331017  46.3585510  28.2688732  53.6756248  45.8803444
  28.5994778  52.6581917  46.9511032   2.8481650  12.6666403  78.1118317
   2.7362199  13.2994976  78.8211899   3.1317379  13.1926670  77.3640900
   0.0630073  17.3990479   6.5941024   0.5935330  16.9930820   7.2796431
   0.4023206  17.0301323   5.7786269  74.0361557  54.8193092  77.7046509
  73.4371796  54.6117287  76.9874573  74.3417892  53.9672089  78.0156937
  64.3471603   8.6876001  66.3168411  63.4028854   8.8135853  66.4101486
  64.4317703   7.8999557  65.7795486  84.8365402  42.9724350   6.8547816
  85.2110977  42.5268631   7.6146517  83.9500809  42.6185951   6.7825465
  31.0805054  42.4003906  37.5132904  31.9921303  42.3262138  37.2310333
  30.5799427  42.4401550  36.6983757  71.4955750  21.1717873  27.1044712
  71.0785980  21.8036118  27.6902714  72.0438995  21.7046909  26.5286369
  83.8559265  57.6901741  38.1831970  83.7558594  57.8783417  37.2500229
  83.9600143  56.7396126  38.2260399  76.4210205   1.8190393   7.2723122
  75.4695282   1.8018150   7.1694026  76.7560272   1.9351665   6.3832021
  17.4742584  35.5562668  62.0229111  16.8908634  36.3138161  61.9781761
  17.0587864  34.9006004  61.4628067  31.3412075  65.0951843  49.5728455
  31.5146885  65.6477585  50.3349457  30.5330219  65.4477615  49.2003441
  39.5427513  46.2491264  49.3045616  40.1342621  46.0132446  50.0191994
  39.9933701  45.9539299  48.5133400  81.3981857  12.4512005  78.2665863
  80.6563492  12.1945000  77.7188492  81.7891006  11.6226721  78.5439987
  41.4571075  49.4136887  44.1135559  41.1478615  48.9402504  44.8858604
  41.9871140  50.1281586  44.4669113   7.4395099  10.7191467   4.8822079
   8.0243521  11.3278074   5.3335652   6.5806599  10.8770113   5.2742376
  28.0870838  70.2121124  64.0853424  27.6884899  71.0183945  63.7578163
  27.3517990  69.6094284  64.1965027  83.6486435  50.8432083  76.1188889
  84.0247040  50.7683296  75.2418442  82.8992386  50.2477760  76.1097946
  41.3220291  10.4506893   7.2998767  42.0131950   9.8124046   7.1234875
  41.6793633  11.2826242   6.9893456  52.7482185  28.5516796  42.5143433
  53.6276779  28.3983498  42.8596954  52.4887047  27.7107010  42.1379890
  47.6638336  51.5482445  31.9305153  47.0497704  51.1748924  31.2982445
  47.2008209  51.5068130  32.7672577  23.5082302  39.4996109  60.4239540
  22.9043369  40.0687523  59.9468536  22.9467411  38.9926262  61.0104027
  51.8744583   1.3902818   6.0478072  52.7544861   1.7665329   6.0328321
  51.2965851   2.1242540   5.8390574  86.0854797  42.6851311   4.5597653
  85.6377640  42.9476891   5.3640342  85.9806061  43.4333611   3.9720688
  44.9985390  67.6956329  65.3902588  44.9773102  66.8309097  65.8001785
  44.4264526  68.2340393  65.9371338  40.9161873  10.7633772  74.1871719
  41.8197632  11.0607061  74.0805130  40.9917755   9.9280615  74.6484375
  67.2353745  43.9605598  32.8078346  66.7158356  44.3236084  32.0905457
  66.6795731  44.0606384  33.5806885   8.0478745  18.1886349   3.9401526
   7.2773852  18.1944942   3.3722227   7.9666305  17.3799038   4.4457078
  60.6679192  33.0975266  31.0788078  60.5489311  32.3612595  30.4788189
  60.7925682  33.8548584  30.5068474   1.9515040   9.5421019  54.7005043
   2.8263948   9.9265938  54.6460609   1.3566660  10.2823086  54.5801125
  62.1018410  52.4786072   2.9071465  62.9254646  52.4034424   3.3890419
  61.4266396  52.2706680   3.5529752  78.2083893  26.7443771  81.3788147
  78.4442139  27.5788250  81.7841721  78.5278091  26.0818043  81.9913483
  66.9340210  31.5858421  15.2751579  67.7616043  31.5019455  14.8015537
  66.3159714  31.0543613  14.7733898  78.8472595  70.8227768  81.3468628
  78.8811569  70.1141205  80.7042999  79.4765549  71.4682388  81.0250092
   3.8965600  65.4020615  62.1646805   4.0286422  66.3484879  62.1094093
   4.0190301  65.1968613  63.0915680  16.2832069   0.9139026  10.0495300
  16.6470242   1.6209160   9.5166130  15.7394943   0.4118362   9.4424582
  81.8058395   4.5177388  46.5506439  81.6086426   4.5955119  47.4840775
  81.9067383   5.4212360  46.2510719  72.1403198  61.8859138  33.2681313
  71.2456131  62.1650772  33.0736885  72.3773575  62.3737335  34.0568504
  14.2027922  14.3819590  57.3622971  13.3329811  14.5205870  56.9875412
  14.0404453  13.8971977  58.1715469  22.4276085  69.8910675  75.6348953
  22.5126476  70.5871353  76.2864227  21.7039528  70.1735687  75.0756531
  15.4511700  55.4315796  28.4752674  15.6613436  54.6215363  28.9399052
  15.5016422  56.1124954  29.1461163   6.7204494   6.3807154  17.2509117
   5.7846203   6.4509182  17.4393959   7.1086211   7.1447620  17.6772766
  42.4682350  45.2486763  56.0893402  42.6108894  44.3748474  56.4530754
  43.3482323  45.5807266  55.9116287  57.8508873   0.7629417  55.6044998
  56.9329109   1.0323243  55.6358490  58.1455078   0.8100082  56.5140114
  53.1351624   8.6407928  78.6134949  52.4976501   8.8406048  79.2989807
  53.3147011   9.4851475  78.1998978  26.4311314  32.4123421  65.9691391
  27.3739338  32.4668961  65.8129959  26.2287674  33.1911011  66.4876099
   8.6280451  68.6462250   6.0629616   8.5223541  68.0221100   6.7809734
   7.7338290  68.8483276   5.7877097  27.8880005  44.4545898  15.1214342
  28.5185909  45.0839539  15.4714174  27.0620193  44.6798630  15.5494976
  79.8817749  35.2790985  17.3019657  80.7142715  34.9036751  17.0151901
  80.1259079  36.0891647  17.7496567  48.7260628   4.5318022  32.2244453
  48.5319595   5.4561505  32.0690880  49.5872688   4.3980947  31.8286228
  32.6729736  43.2724457  50.4454422  33.2103310  43.7297058  51.0922737
  32.8505630  42.3445549  50.5994186   9.9544058  44.5605850  21.0192375
   9.5009422  45.3031120  20.6201649   9.5738716  43.7914772  20.5950928
  13.1855984  57.5367661  81.6053085  13.4421072  57.3394814  82.5061493
  14.0136604  57.6058083  81.1301498  41.5365448  56.0020294  69.5695877
  41.8964577  55.6624413  70.3889618  42.2846870  56.0310745  68.9731979
  76.5872574  15.7263975  13.5265379  76.1443863  15.5080414  12.7065248
  75.9803162  15.4416380  14.2097397  11.7118454  25.6238785  86.1197128
  12.5825968  25.8597527  86.4396973  11.3525867  25.0547848  86.8003769
  72.1874771  66.9606247  86.6527176  71.9582214  67.5598526  85.9423599
  71.9502792  67.4331818  87.4506302  76.0528030  45.0612831  86.6850281
  75.7086029  45.7026634  87.3066254  75.3077698  44.4927597  86.4902573
  22.7975788  58.9329453  63.7629890  21.9075565  59.0463486  64.0965042
  23.0131264  58.0215302  63.9607010  43.7712135  71.6194839  35.1464920
  42.9650497  71.8746414  34.6979065  43.6197205  70.7130737  35.4142532
  27.5992050  43.3647919  51.6483345  26.7828236  42.9327240  51.3971977
  27.4688969  43.6090202  52.5646362   0.4832155  67.4780502  59.0602264
   0.0409045  67.1498489  59.8430901   1.3802952  67.1533737  59.1381035
  61.2028389  35.0029106  78.5019608  61.2637939  35.7577896  77.9165802
  61.1807327  35.3822632  79.3805008  46.3108597   5.7216020  87.4337006
  46.8928375   5.5042610  86.7054901  46.1549759   6.6616936  87.3433762
  58.2741013  63.5051918  80.9018631  59.2113075  63.5562057  80.7140503
  58.1264000  62.5890656  81.1366577  60.9220505  36.0759850  30.1682034
  60.9368286  37.0197792  30.0092640  60.4091797  35.7189941  29.4431133
  52.4786835  39.0114365  57.0665131  53.3492813  38.7125473  57.3291092
  52.6456718  39.6919632  56.4144173  25.8650894  69.1383133  52.2238617
  26.3082104  69.7951355  52.7609520  25.1435928  68.8284149  52.7712517
  35.1641350  11.8610115  73.5857010  35.7386627  11.5354929  72.8927460
  34.6986351  12.5954809  73.1855850  47.6761932  17.4934235  29.5818443
  47.4055862  17.8162537  30.4413700  48.5091019  17.0503864  29.7437420
  52.3061790  45.2255173  61.1135902  51.9355354  46.0448074  61.4416428
  52.2788506  44.6326256  61.8645706  23.5612068  46.0616188  72.3744736
  23.0938568  46.8081932  71.9997177  23.0997562  45.8762093  73.1923447
   6.1079779  45.7271385  46.9817734   6.0942335  45.3667488  46.0951157
   6.9735270  45.4978447  47.3201218  18.4497185  33.2545052  78.2337570
  17.5749283  33.3653603  78.6061630  18.9949493  33.8782578  78.7132263
  45.6530571   1.2947686  85.3090134  45.7037849   1.2040009  84.3574829
  44.8116493   1.7239521  85.4641571  68.9224854  47.3677902  86.4755402
  68.6495743  46.6126518  85.9544678  68.2329102  48.0168419  86.3360748
  62.8908653  34.3659363  81.0487595  63.7632484  34.6016273  81.3644028
  62.6524811  33.5920410  81.5591431  52.5160141  27.2096729  35.1016350
  52.2997818  27.8523235  34.4260063  53.3619766  26.8529224  34.8308792
  29.6934681  56.9157104  41.7638168  30.1947594  56.1005478  41.7426605
  30.3046303  57.5637016  42.1142731  39.8088188  58.9356346  10.9965382
  39.5237846  59.4612617  11.7440042  40.7550278  59.0737305  10.9535341
  37.4417496  57.2391205  75.9213791  37.7198334  57.6330223  75.0944901
  37.3843803  57.9755516  76.5301514  37.7880058  29.5828686  78.4742737
  38.4166756  29.1154919  79.0243378  37.4615784  30.2896881  79.0311279
  13.1264200  48.4918976  25.1974354  13.3155994  47.9552269  25.9671268
  12.5307941  47.9568214  24.6728840  25.4296837  20.2046261   6.6291046
  25.1511726  21.1031532   6.4521446  25.8364716  19.9147511   5.8125706
  69.3211899  34.9140854  36.5612640  68.5539398  34.6310005  37.0586891
  69.1830521  35.8507233  36.4203491  24.4672031  48.0894890  65.4568863
  24.2303696  47.1702118  65.5796280  23.6996136  48.5766335  65.7564392
  52.8561783  41.8633003  60.5332184  52.6863937  42.6243935  59.9781113
  52.5041618  41.1230354  60.0389328  72.8192978  29.9108734  33.8965569
  71.9631958  29.5234661  33.7142448  72.9721832  29.7284832  34.8236961
  76.1111069  14.4872656  26.3980236  76.6764374  14.9912481  26.9833717
  75.8838806  15.0997849  25.6984386  35.0317497  60.9124222  15.2116079
  35.8464966  61.2750854  15.5593023  35.3033485  60.1296997  14.7322168
   4.1209474  58.4852600  25.6782703   3.1713288  58.5938148  25.7299595
   4.2573385  57.9330139  24.9084282  53.4848251  60.0232430  85.1687088
  54.0476341  60.4181633  85.8346786  54.0930824  59.6771698  84.5156479
  79.0916901  70.7285385   6.8712277  78.5779877  71.2899475   6.2905684
  78.4408646  70.1890030   7.3201737  76.0158920  25.6542759  39.7811432
  76.3449097  26.5333061  39.5932922  75.4633789  25.7656040  40.5548134
   2.6221540  38.8168831  49.4096260   2.6670530  38.4291687  50.2836380
   3.3350987  39.4553947  49.3939400  15.3998241  46.3482704  57.1091003
  15.2932968  45.5358849  57.6039848  16.2642765  46.2711716  56.7053566
  41.5088463  71.1450424  82.1925049  40.7576027  71.4616928  82.6940994
  41.1392860  70.5008698  81.5886002  30.5636063  45.4165916  46.7734909
  29.7625084  45.8581200  47.0554886  30.4573002  45.3080711  45.8284225
  39.0336609  61.2600708  78.1046677  39.6248436  60.5172691  77.9822617
  38.6933899  61.4422417  77.2287369  54.9360199  21.6797352   0.2630920
  55.3179932  22.2535973   0.9271775  54.3253212  21.1250362   0.7484676
   1.3220245  42.7342339  26.2563744   0.5671517  42.7096939  25.6683292
   1.2384369  41.9417191  26.7866211  57.7824097  27.5058002  32.4417648
  58.5688591  27.8618641  32.8552246  57.7491837  27.9306107  31.5846405
  54.0139046  21.8754635  56.6630020  53.7803879  21.1599808  56.0715714
  53.7476883  22.6680260  56.1969490  17.5244026  54.1556206  67.8637085
  17.2956161  55.0768890  67.7406082  16.7081852  53.7415161  68.1439590
  82.6754990  17.1523991   8.2763824  83.2091446  17.2065945   9.0691719
  83.2916107  17.3124676   7.5615330  61.1387444  44.0820847  74.9343796
  61.7447090  43.5878029  74.3823624  60.3687668  43.5183754  75.0092163
  63.2796669  11.9927359  54.6200676  62.6903839  12.5281477  54.0887375
  63.2695999  11.1339836  54.1973686   6.1860414  45.1870918  44.3675232
   6.9334764  45.0988998  43.7760887   5.7947464  44.3138351  44.3908653
  86.2473755  10.7111797   6.6362414  86.0262680  10.9272499   7.5421429
  85.7433090  11.3333197   6.1117492  -0.1101500  59.8830299  45.1248093
  -0.0375690  59.5118904  44.2454796   0.5767112  59.4447823  45.6271973
  56.7992859  17.1301079  35.3977890  57.3148041  17.8755035  35.0897980
  56.0174065  17.1351471  34.8456383  58.5950470  27.3318005  26.8697128
  57.7750969  27.0834160  26.4428406  58.5502014  26.9199066  27.7325935
   8.5008450  61.5167885  15.9889536   9.4096394  61.7429886  15.7910700
   8.1792879  62.2518501  16.5109882  10.8917856  40.8539200  16.6968040
   9.9750280  40.9361076  16.9595432  11.3729057  40.7929001  17.5220490
  35.4725723  57.4517670  33.5393486  36.2357330  57.4734840  32.9619865
  34.9941254  58.2550392  33.3342400  61.9907494  22.4875011   5.2137976
  62.1937904  22.2855988   4.3004293  62.8207893  22.3689232   5.6755333
  80.0563354  27.1133804  -0.0569298  79.8603516  28.0359516   0.1064337
  80.6354980  26.8606014   0.6620319  44.7053604  39.2875977  60.0801506
  45.5998497  39.4541588  59.7828598  44.3258858  38.7327614  59.3986893
  35.8057365  67.7961807  65.0065842  34.8969193  68.0016174  65.2258453
  36.1427498  67.3449936  65.7805862  31.6512089  14.9371777  65.3251343
  31.3128281  15.6445236  64.7761459  31.1276608  14.9835024  66.1251221
  26.2469711  69.3505020  44.9164772  27.0050354  69.7316589  44.4734268
  25.5449829  69.9868088  44.7802353  81.6223755  65.2803955  60.4664688
  81.3956146  66.1195450  60.0656586  81.2983246  65.3485870  61.3645668
  12.3106756  40.7428551  14.0321779  13.2172928  40.8974190  14.2974863
  11.8051624  40.8394051  14.8392506   3.5294747  23.7557507  59.1415863
   3.0981901  24.5751400  59.3841286   3.7153955  23.8503380  58.2073936
   3.7511361  63.7885208  37.9717331   4.0824819  63.3010864  38.7259521
   4.5234399  63.9414711  37.4273186  48.9948235  48.3557968  18.9527454
  48.0776405  48.6041412  19.0682068  49.4726982  49.1847153  18.9802628
  59.8414192  52.8023834  81.0067978  59.4955978  52.4468613  81.8254852
  59.5523224  52.1837616  80.3360062  53.0395546  16.6932907  78.6450653
  53.4895134  16.8593025  79.4734421  53.4953346  17.2457466  78.0100174
  28.3946495  43.6992760  65.1726532  28.2545242  42.7871552  65.4268799
  28.7143230  44.1234627  65.9689636   5.8382745  38.9849968  17.5273018
   5.4245081  39.7032738  18.0059528   5.5660725  38.1963387  17.9965096
   8.6969204  32.9315300  57.8840218   9.4444160  33.5220375  57.7903175
   8.1063051  33.1779633  57.1722107  65.9570084  60.3459358   3.3764486
  65.9837189  59.5556221   3.9158175  66.8670883  60.4897118   3.1169965
  75.2039261  15.8996744  58.8259926  74.4016876  16.2318611  59.2288437
  75.8081894  15.7802658  59.5586853  55.7160454  55.1235733  12.3932962
  55.1940155  55.0793304  13.1943951  55.3025589  55.8145828  11.8758326
  43.0255814  51.1112633  45.8535233  43.9503250  51.2204552  45.6318130
  42.8018112  51.9023132  46.3438263  10.9096546  36.4625168  83.1860886
  10.7017069  35.8322754  83.8758621  10.0660334  36.6586113  82.7785568
  80.0311356  23.5922737  61.3834724  79.5041046  24.2630539  61.8176689
  79.8386230  22.7876377  61.8648567  21.2818298  28.0947056  84.9320526
  21.6706562  28.9691601  84.9126358  21.9788303  27.5157585  84.6234360
  69.5128403  38.1080284   8.5513353  69.6830368  38.9755974   8.9181910
  70.3280334  37.6256104   8.6890631  69.6445999  53.1676826  84.8821716
  70.2018356  53.5346375  84.1958313  70.1877518  53.1915970  85.6699829
   3.5597694  17.1977081  87.3022537   3.3243735  16.6737003  86.5365982
   4.3589683  16.7895565  87.6353149  18.5656166  10.8515224  29.1430759
  18.7776127  11.7117310  28.7806797  19.0613060  10.2355442  28.6035461
  15.0482435  52.7775764  48.2876892  15.4029083  52.6365509  47.4098778
  14.1035223  52.6620979  48.1857185  18.8591328  60.2866745  25.2748871
  19.7827339  60.1347237  25.0746326  18.8365612  61.1685104  25.6464882
  60.3274345   8.4866076  13.5346508  60.7414246   9.2749271  13.1833735
  61.0281906   8.0391092  14.0089073  59.6517601  67.9354401  81.0925522
  60.2898369  68.6191406  81.2966080  59.1821213  68.2668533  80.3271561
  45.7827606  61.7870255  29.2572803  45.0718918  62.1274452  28.7141342
  46.5621796  61.8629341  28.7068462  32.9308624  45.9086800  82.0677567
  32.0154037  45.7186661  81.8626556  33.4281311  45.4514236  81.3896179
  30.3641129  63.8543625  20.7033253  30.5202389  64.1435394  21.6023426
  31.2393837  63.7339363  20.3350468  60.3698578  48.9498901  22.7981396
  59.6033287  48.3795204  22.7403240  60.6751862  48.8501053  23.6998329
  67.7540588  10.2235365  39.5781097  67.4674835  10.1462021  40.4881248
  67.1868362   9.6215067  39.0963936  75.6113205   1.8047651   2.1373129
  76.1958313   1.1521456   1.7517378  74.8905945   1.2933102   2.5050144
  60.0431252  13.3504314  18.0015774  60.7186165  13.5981140  17.3702335
  60.4369469  12.6394043  18.5071259  82.0387344  64.4796524  49.9235840
  82.7006989  65.1655579  49.8365860  81.4960251  64.5698166  49.1402817
  24.1833382  66.3788528  31.2943573  24.5954437  67.0437317  30.7426949
  23.5704327  66.8687897  31.8425751  21.6716118  61.2507744  48.5261345
  22.3712444  61.2895088  47.8740234  21.8613567  61.9736366  49.1242142
  55.2701530  54.9106407  32.6354790  56.2015076  54.9237480  32.4149284
  55.2315292  54.4729233  33.4858589   6.8647842  30.4700203   4.4774499
   6.8853822  29.5561428   4.7614102   5.9583774  30.7439690   4.6174879
  37.8861732  69.3872223  44.7846451  38.6040039  69.6647797  45.3537788
  37.1821938  70.0099030  44.9660454  28.3155937  62.0501213  75.9302139
  29.0452328  62.6585312  76.0472336  27.5982552  62.4370270  76.4321671
  78.5685654  51.7017212  46.4825668  79.0803833  51.4148712  47.2388649
  77.9972153  50.9596825  46.2846489  64.6968155  35.1330986  24.9961395
  64.5210876  34.8340378  24.1040001  65.5526428  34.7610970  25.2092400
  67.0029297  32.1193314  57.2094917  67.0193710  32.2611504  56.2630005
  66.3187408  32.7080841  57.5280495  52.7039032  46.0801201  81.2105942
  53.0318069  46.1113930  82.1093369  52.5480003  46.9960823  80.9805145
  20.8457298   9.2596636  71.3535461  21.3340931   9.5419483  72.1268845
  20.8895340   8.3037882  71.3783417  38.9766922  43.3627319  39.4336929
  39.4773369  43.7480927  40.1527824  39.4536285  42.5631676  39.2113113
  28.0997925   8.5231705  42.9046364  28.0614700   9.1467113  43.6298676
  27.4269848   8.8243456  42.2940178  22.4799480  64.3737106   3.2201955
  22.0646744  65.2229691   3.3703201  21.7973404  63.8424339   2.8102868
  58.6622276   2.4260802   4.1726713  59.3580208   2.2875919   4.8152633
  58.3082199   3.2896144   4.3853188  81.5226898  12.7848749  27.3509216
  81.0981445  13.5679359  27.7013569  80.8773422  12.4106102  26.7511845
  69.8819275  59.2824364  34.4322510  70.6193390  59.5070038  34.9997215
  70.2835464  58.8566895  33.6748352   0.8136280  13.2872963  75.3379745
   0.3373883  13.7351580  74.6388016   0.7983769  12.3642550  75.0850067
  83.3287430  49.4403610   9.6313381  83.3995819  48.7931595   8.9296637
  82.3932190  49.4759979   9.8307533  75.1784439   7.8224564  18.9991550
  74.8281174   8.4595613  19.6217289  76.1234283   7.8337145  19.1511421
  43.5151672  61.5443459  32.7587852  43.4576111  62.4802132  32.5662460
  44.3208351  61.4536057  33.2676010   3.5342298  30.9960461  13.5365067
   3.2181644  31.7901325  13.9675074   3.5328698  30.3324032  14.2262955
  39.4996185  25.9998417  15.5458698  38.7311783  26.3867035  15.1262617
  39.2616882  25.9380169  16.4709644  78.3352127  39.3927116   9.4009762
  78.5066452  39.6898575  10.2945900  79.1421585  38.9509888   9.1364956
  86.0713730  54.7375221  85.9568329  86.1771164  54.0987206  86.6618042
  86.0799561  55.5862312  86.3993835  41.3192596  40.3906784  83.9835052
  42.0304947  41.0289307  84.0383453  40.6291733  40.8422241  83.4975891
  72.1367416  21.9192963  64.5238113  72.6810760  21.8871441  63.7371101
  71.2884598  21.5766563  64.2422867   3.6600065  65.1286697  82.2759247
   2.8904181  65.1861267  82.8421936   4.2004852  65.8768158  82.5296860
  11.4816399  61.4237862  85.7102280  10.6173935  61.7792664  85.5029984
  12.0437250  61.7306747  84.9988098  41.2676811  48.3838730  77.8549042
  40.8523598  48.8946266  77.1600189  42.0165901  48.9142532  78.1270523
  10.9728746  49.0188751  88.6552429  11.1936188  48.2825317  88.0848923
  10.3417397  49.5319176  88.1505737  59.9219627  39.0026321  52.7145653
  59.6778145  39.0116959  53.6400604  60.7513771  38.5254402  52.6903191
  51.7857399  36.7811089  33.0895348  51.4310570  36.2577019  32.3708725
  51.9450836  37.6421013  32.7028389   6.2215223  34.5819855  59.5403862
   6.3447647  35.1796761  60.2778206   6.4088178  33.7152023  59.9007263
  28.9681053   2.5932348  64.6152802  28.0342484   2.6818793  64.8057785
  29.3816948   3.3005087  65.1101913  56.1708183  13.9940929  28.8772564
  55.8395996  14.6099358  29.5309105  55.5799408  13.2432194  28.9345474
  74.8588791   1.6520500  43.0359612  74.1509018   1.7480947  43.6729622
  75.4499893   2.3813028  43.2230759   8.1007195  41.7078590  31.8011436
   8.4579258  42.5669403  31.5761738   8.8701210  41.1701622  31.9885883
  66.2137604   1.6126386  54.6381226  65.8813782   1.5554150  55.5339317
  67.1635132   1.6765791  54.7386780  72.9798431  43.1039200  62.5490799
  72.3869781  42.6824951  61.9268723  72.9681854  44.0286865  62.3022995
  16.8861923  11.4485626  22.5330658  16.3173485  11.7864208  23.2248020
  17.0535545  10.5398769  22.7830887  32.4371452  23.9900570  12.4402447
  32.1961212  24.2898445  13.3167534  33.2550812  24.4481373  12.2469282
  35.3426094   7.1648688   1.6222506  35.9953079   7.2657619   0.9294061
  34.5684547   6.8240190   1.1742129  35.7632942  56.5385170  40.8545837
  36.1234360  56.4603691  39.9711685  35.1996918  57.3112373  40.8159790
  82.7918167  31.5534248  66.7829666  81.8679352  31.4961891  67.0266876
  82.8290939  31.1899414  65.8982544  29.6504154  16.4977932   8.6661005
  29.4894085  15.9693336   7.8844104  29.1058311  16.0961342   9.3431005
   1.5775832  64.0487137  58.3853302   1.1511075  63.9065247  59.2303925
   2.1228101  63.2722549  58.2585487  77.2569122  10.1189356  19.0011349
  77.6035309   9.2397375  18.8491611  77.9537201  10.7053423  18.7064877
  35.9826508  41.5451164   3.8867323  35.6990776  41.3364067   4.7768216
  35.3733368  42.2227974   3.5939498  37.9958878  56.4377365  32.7557869
  37.7921448  55.5045166  32.6939468  38.3412476  56.6652069  31.8925266
   8.4309978  71.6601028  23.8193970   9.3822060  71.5552826  23.8405724
   8.1058311  70.8273697  23.4772549  81.6395187  66.7401123  84.9787903
  81.1142426  66.4586868  84.2297134  81.5636292  66.0224991  85.6076736
  41.0683517  48.2548141  46.6318970  41.7062035  48.7201538  47.1730347
  41.2544708  47.3285141  46.7854004  53.0532379  41.6823235  73.2611923
  52.7134666  40.9483795  72.7492218  53.7334862  41.2953339  73.8123169
  67.2975082  70.3039474  37.1846161  66.5802383  70.3656464  37.8154449
  67.5692902  71.2105331  37.0415459  20.7690849  55.6872864  30.4693298
  21.5008640  55.2185364  30.8705807  20.1750584  55.8718033  31.1968727
  60.7427673  39.7715645  32.5262871  60.1638527  39.7122841  31.7663040
  61.6187248  39.8696480  32.1530457  74.9146881   6.5759797  43.3773727
  74.6804504   5.6574392  43.5102119  74.7040787   6.9996204  44.2094803
  81.5436935  12.0031147  42.0166969  81.7496643  12.9377127  42.0350456
  82.2551575  11.5913916  42.5071411  17.3763332  52.2640762  33.9159164
  17.9083061  52.3865700  34.7021942  16.5298557  52.6527290  34.1364937
  55.1612167  70.7708511  50.6814880  55.8022385  70.1907196  51.0923042
  54.3133507  70.4355545  50.9729156  54.9791031   7.2943516  44.2370529
  55.8234863   6.8657012  44.0973701  54.9103966   7.9268894  43.5219269
  75.1280975  10.6548023  75.9196091  75.4398651  10.5686502  76.8205032
  75.8302841  11.1218224  75.4667816  41.0189056  54.3600197  16.8224258
  40.3675117  54.2071075  16.1379280  40.8410110  55.2495384  17.1279354
  76.4582062   5.7034483  80.3631592  77.2229462   5.4224162  80.8655853
  75.7095947   5.3962488  80.8744736  71.5050049  19.4215698  75.4486008
  71.1765442  20.0303326  76.1102295  71.5847702  18.5866585  75.9098892
  -0.1338727   3.4196608   8.2322340  -0.2600382   4.3675761   8.1901493
   0.6034808   3.2499139   7.6459508   8.0541658  56.3330688  25.9844036
   7.6517534  56.6675262  26.7859249   8.8537121  55.8984451  26.2811508
  49.3616829   3.1527236  64.8148117  49.7189903   3.3100214  65.6887817
  48.4304848   2.9878561  64.9628754  36.4430542  67.3283920  87.9599152
  35.7938118  67.2605133  88.6599960  36.4540062  66.4595642  87.5583572
  86.8698196  21.1568470  57.4988899  86.0902100  21.1290455  56.9442101
  86.9162445  22.0637627  57.8015099   7.5222964   2.7796638  48.1021767
   6.9900994   2.0491431  48.4173546   7.6748967   2.5835080  47.1778030
   5.8590722  38.6539574   6.3345819   6.5678482  38.6518135   6.9779043
   5.5127974  39.5458832   6.3626890  29.7143764  52.6789551  78.8885880
  29.2806835  53.2012291  79.5634003  29.3304253  51.8066254  78.9772339
  32.5951805  50.8264732  74.9497147  33.1848297  51.5315056  75.2170639
  31.8032265  50.9668465  75.4686890  74.7135086  36.1175003  31.7690601
  74.8700256  35.7183685  30.9132404  75.1290894  35.5205917  32.3913307
  24.9760208  29.3869076  68.1853485  24.5330086  29.1514091  67.3701706
  25.8850937  29.5406990  67.9281158  19.6599045  43.0907211  76.1274567
  19.8614845  44.0195694  76.0141373  20.5144997  42.6596870  76.1377411
   9.9952173  37.7099800  51.7650871   9.8859406  37.1368370  51.0062714
  10.8629007  38.0973320  51.6496887  75.4626236  34.4505730  79.4340744
  75.8790665  34.5511894  80.2900391  76.1905060  34.3093185  78.8287125
   3.8349504  36.3428383  66.7551880   3.2071950  36.2805862  66.0352707
   3.7133853  35.5323563  67.2497253  27.3233185  51.0758591  42.6504784
  27.7675858  51.4717140  41.9007072  28.0303574  50.8428116  43.2521553
  45.9374657  63.7710533  25.9816551  45.3709755  63.3418427  25.3404846
  45.3735619  64.4193954  26.4034309  86.7933884   0.2912841  34.5367622
  86.3295212   1.0893743  34.2835503  86.2157440  -0.1297263  35.1734009
  17.5328865  27.0346203  85.7978363  17.5006123  26.6734657  86.6837082
  17.6313667  26.2697601  85.2308044  26.8558578  49.7860603  64.2594604
  25.9865017  49.4006195  64.3684845  26.6884174  50.6559563  63.8968620
  86.4531097  56.4991989  59.6633530  86.8328094  56.5982513  58.7902832
  85.5265961  56.7095451  59.5468674  58.7675858  11.1028957  20.8703690
  58.9251556  11.7508688  21.5570507  58.0996552  10.5233126  21.2366810
  44.1749687   5.4909024  44.7964821  43.8523788   6.1288176  44.1599045
  44.3924980   6.0124741  45.5690613  48.4712029  63.7666168  44.5135384
  48.5240135  62.8589325  44.2142906  48.0038795  63.7170868  45.3474350
  45.8298492  54.9312477  10.0179377  45.6593552  54.4285507   9.2214069
  45.7286491  55.8448410   9.7508478  83.0401154  44.9740143   5.4847078
  83.9841461  45.0108986   5.3308506  82.7832031  45.8865242   5.6171842
  13.7902212  29.4585648   9.0904083  13.1018791  29.1277332   8.5133753
  13.4911222  29.2361183   9.9720478  83.5615082   3.9066408  54.6081963
  84.2423477   4.4385767  55.0201797  83.1316986   3.4605815  55.3379440
  70.1839676   4.4459128  11.6220903  70.6639023   5.2695484  11.5354090
  69.6636124   4.5545487  12.4181223  68.0338974  43.2714615  79.8900986
  68.4291382  42.8898888  79.1062469  68.4353104  44.1373215  79.9634857
  18.0372410  68.7344437  86.7266769  17.0837040  68.7726440  86.6522598
  18.1989975  68.0643921  87.3908310  18.9569550  15.0268755   1.5935825
  19.6090965  14.3990345   1.2825227  19.4714394  15.7680855   1.9131838
  85.0082397  31.6241837  85.5074081  85.9653625  31.6226120  85.4950714
  84.7601013  30.9004917  84.9321365  14.4355955  52.7599792  82.2511826
  14.5160475  51.8155937  82.3849792  13.7760887  52.8490868  81.5631866
  81.6036453  21.0471115  50.3369217  81.6393738  20.2263565  50.8281631
  80.8191681  21.4877605  50.6634941  38.8991203  65.5328140  33.1981659
  38.2543678  66.1296921  32.8183403  38.8233185  64.7343674  32.6757088
  53.5202179  35.9204712  74.1515579  53.7163658  36.7902756  74.4996872
  54.2990723  35.4012146  74.3515320  52.0894432  67.8760452   5.3100986
  51.6757240  68.6893005   5.5993853  53.0158463  68.0983734   5.2174730
  86.5207596  58.3442307  11.0508003  86.2851562  57.8333206  10.2764015
  85.8055954  58.1879616  11.6675272  53.6120033   1.7896869  42.3765831
  53.0239029   1.0588043  42.1863785  53.1325340   2.5650842  42.0848656
  51.5029144  34.9182053   9.3219290  51.3791733  34.1370316   8.7827787
  50.6276016  35.1237030   9.6503067  52.1799469  48.0280380  20.6782150
  51.4259796  47.4967308  20.9341087  52.9379768  47.5351143  20.9922981
  56.2397194   5.7179079  33.3099823  57.0910912   5.6577916  33.7433167
  56.3471146   5.2182989  32.5006065  22.8068027  10.5337238  69.4797516
  22.1384315  10.1700459  70.0604858  22.3885822  11.2972279  69.0817795
  39.8509445  16.9679089   1.8394111  40.0434303  17.4436836   1.0314388
  39.8909988  16.0448685   1.5891685  60.2509384  22.0289841  36.0983658
  59.6028137  22.4559841  35.5381546  59.7559204  21.3586674  36.5693855
  74.3089600  56.0930977   3.7027495  73.9797668  55.6191368   4.4664416
  75.2551270  55.9493561   3.7211852  85.7779617  52.7570038   3.7092552
  86.5303497  53.3347054   3.5811365  85.0432968  53.3510399   3.8629136
  50.3366585   7.9041533  29.6451797  49.5150261   8.3589163  29.4598713
  50.7713051   8.4517279  30.2989979  25.7218857  58.8571472  39.9759407
  25.9627533  57.9546700  39.7667694  26.0739307  59.3732300  39.2507133
  14.0688267  42.2755890  23.6812229  13.3942595  42.4687576  24.3322811
  14.7257166  41.7698784  24.1597443  27.5694141   9.0419035  78.9773941
  28.1149769   8.5010042  79.5483780  28.1645718   9.3398495  78.2894592
   4.6494250  42.4074593   0.8417475   4.1102653  42.1622658   0.0898044
   5.5500784  42.3035622   0.5347281   4.0526438   6.8302102  17.6818542
   3.5009918   6.6501665  18.4431000   3.9260633   7.7632422  17.5096340
  59.9799767  12.0907745  58.4120255  60.1687164  11.4513073  59.0988197
  60.6802940  11.9677448  57.7712059  63.9465637  67.4425201  86.1506577
  64.0812225  66.5233154  86.3812256  64.5510101  67.9224854  86.7167969
  71.5277939   1.5192853  76.1732407  72.3117752   1.2899690  76.6722565
  70.8824463   0.8582889  76.4239349  40.9978523  70.9212418  41.7792664
  40.7758408  71.3130112  42.6239319  40.3581009  71.2885590  41.1693230
  20.4046555  70.2228088  87.5076752  21.2992611  70.2852402  87.1729889
  20.0633221  69.4125824  87.1291885  68.8468170  46.3338623  72.9866257
  67.9881897  45.9655800  72.7784119  69.1333847  46.7483635  72.1728134
  50.2314301  56.0967331  22.7599831  50.1243057  55.3543625  23.3546600
  50.7646523  55.7540436  22.0427170  31.9484138  54.4661827  79.8090134
  32.0343323  54.7539749  80.7178726  32.2588272  53.5607262  79.8141327
  42.0888748  61.9130096  76.0568848  42.5911255  62.3585434  76.7391434
  41.2482872  62.3706017  76.0408401  36.7863503  71.6046982  16.7824860
  37.4447746  71.5074463  16.0945530  35.9518814  71.6260757  16.3140488
  60.5643692  63.7869148  85.7406616  61.0603867  64.2649765  85.0760956
  61.2166901  63.5437889  86.3976288  48.5052414   9.0040464  39.6770325
  48.9562912   9.3459053  38.9050751  48.6796989   8.0630465  39.6592331
  41.6839027  69.3425751  38.7142944  41.2584953  68.7727432  38.0735512
  41.0087700  69.9763412  38.9567146   7.4921985  60.9855309   0.6020225
   6.8984165  60.7359123   1.3100798   7.3367205  60.3340569  -0.0818211
  22.5651226  64.4542084  23.2259941  23.1868401  63.9978752  22.6590195
  21.8969822  64.7892609  22.6280327  85.7938843  28.7959595   2.6358440
  84.9867630  28.2827759   2.6735396  86.1091690  28.8132095   3.5394661
   6.0769029  27.7402802   1.2823666   6.8450623  27.2081985   1.0748737
   5.4871621  27.1412296   1.7401613  29.5082664  62.3640099  28.2970257
  29.2678833  61.4707718  28.5431328  29.7247391  62.3060188  27.3664303
   3.9471681  45.6904602  73.4585876   3.3093646  46.1879730  72.9468079
   3.8381040  44.7863998  73.1636124  74.0351257  23.8992767  87.5320892
  74.3486481  24.3241386  86.7336960  73.1293564  23.6596985  87.3360596
  38.4990959   1.0308712  30.7566414  38.6995354   1.9530530  30.9167538
  38.6801491   0.9046248  29.8252373   7.1579876  31.2828426  74.9036255
   7.7415681  31.7669964  75.4878082   6.2988973  31.3402138  75.3218460
  54.7709312  52.6892014  80.9610214  53.9225883  52.8511314  81.3737259
  55.0215416  51.8162079  81.2631912  58.4134254  56.3248100  43.6709785
  57.5367355  56.1168213  43.3478889  58.5494041  57.2392540  43.4229126
  82.4141235  34.0651550  76.3877487  82.4990005  34.1920853  77.3326874
  82.9185104  34.7822151  76.0035019  84.3687515   8.7615805  52.0821419
  84.4374084   8.3497858  52.9435043  84.8471375   8.1741905  51.4970322
  73.5141144  43.9751320  47.7687378  74.1081238  43.3908653  47.2975540
  73.7681122  44.8536797  47.4861183   0.4030465   4.2676382  26.5167904
   1.2882819   4.5759115  26.3229923  -0.0600932   5.0469899  26.8239460
  58.8391762  52.4738884  35.9799957  57.8838463  52.4951630  36.0358963
  59.0868492  51.6611099  36.4207726  24.9752350  61.3340073  35.4081764
  24.2079639  61.7909927  35.0636597  25.0489826  60.5480385  34.8668327
  62.0565567  10.6466007  70.6207275  61.7196999   9.9308281  70.0818176
  61.3280449  10.8750772  71.1980515  44.2377472  60.3237495  11.9292078
  44.5771675  60.3017082  12.8239374  43.5150146  59.6961479  11.9316826
  68.8948441  47.5943642  27.9534798  69.3318176  48.1587105  28.5912857
  68.7399826  48.1616325  27.1981945  20.0578880   4.3102245  50.9707489
  20.4252300   4.8290462  50.2551270  20.4861927   3.4577394  50.8929253
  66.6599045  19.2015991  21.3566170  65.8435898  19.5880241  21.0395317
  67.3428955  19.7954769  21.0450745   1.9178829   9.7569370  51.3128967
   2.2005689   9.2078390  50.5815887   1.8810078   9.1600599  52.0602989
  52.3459816  45.0567551  74.4637299  52.6270790  44.5760193  73.6851959
  52.8917198  45.8431206  74.4696808  72.4140472   4.7841892  20.7349758
  73.1396332   5.0511699  21.2993164  72.7990341   4.1438241  20.1366882
  59.1181068  16.1576519  48.0201569  59.6752701  16.7063427  48.5721893
  59.5949631  16.0876465  47.1931496  84.4015045  18.5122223  84.8187256
  83.8876343  17.7549419  85.0992584  84.1910553  18.6139088  83.8905029
  52.2067909  68.5680161  88.3467789  52.0934258  68.1968689  87.4717789
  51.6793709  68.0067825  88.9151840  34.3739433  38.2436256  15.6195564
  34.7704353  39.0702515  15.8947210  35.0340500  37.8363762  15.0586319
   6.4421802  42.4340858  29.8263836   5.7351294  41.8547935  29.5422440
   6.7797909  42.0265541  30.6239853  31.5113564   4.7489309  71.3770294
  32.1683235   4.1594596  71.7473679  31.8853607   5.6232538  71.4861755
  11.8400145  67.5010986   2.2452381  11.4428301  67.1648026   3.0485957
  11.2922897  67.1511307   1.5425626   5.4307370  69.6045151  45.8400536
   5.4185891  70.5609207  45.8772926   6.3006821  69.3634644  46.1583595
  24.1848736  64.2322922   1.1544081  23.4015522  64.3905792   1.6812690
  24.0659695  64.7794800   0.3780848   5.3973794   0.9368826  64.1167374
   4.5832076   0.9242778  63.6135483   5.8120513   0.0963264  63.9224548
   8.7709007  12.4636717   6.5642581   9.3378515  13.0655775   6.0820665
   9.3581276  12.0198574   7.1761618  26.7354145  40.4095726  20.7976322
  26.9321117  39.4799881  20.6818008  25.8254623  40.4989510  20.5143833
  15.6719322  34.9546776  56.4056015  15.9729786  35.6821938  55.8612480
  16.2368183  34.9835930  57.1778069  45.3218079  52.2471581  44.8055725
  45.9977455  52.4768982  44.1679535  44.5387421  52.7050400  44.4999847
  53.3778419  43.2606201  56.5765991  54.0634537  43.8879814  56.8059082
  52.8474503  43.1848907  57.3698120  12.5513163  31.6096058  85.1751480
  13.1946812  32.1719818  84.7438202  11.9897985  31.2994328  84.4647141
   6.3737264   7.5770974  52.0603905   5.4535003   7.6171374  52.3208008
   6.4404140   8.1831312  51.3224831  10.0789824  14.8865757  67.6581268
  10.9608040  14.8532524  67.2873001   9.5325985  15.2212362  66.9469986
  58.4722290  48.4849739  58.0609360  58.5025444  49.1797905  57.4032555
  58.8495560  47.7227898  57.6217003  48.3265419  35.7759476  64.9796982
  47.4667282  36.1966057  64.9801178  48.2788200  35.1340981  64.2711868
  59.5088005   0.9283363  87.4925766  59.6428146   0.7794003  88.4285736
  58.5588188   0.8990416  87.3789902  59.2104225  12.6042604  23.5229588
  58.4887238  12.0078440  23.7221394  59.7571068  12.5894938  24.3085461
  35.6505890  63.6712646  38.4732018  35.0464058  63.0412369  38.0804405
  36.2025414  63.1451454  39.0517998  13.7015982   2.9996719  18.3318844
  13.9484634   3.6580923  17.6824436  13.8576202   3.4247823  19.1751919
  79.8391800  33.3625755   3.3092358  80.6305923  33.0140381   2.8988428
  79.8705521  34.3023643   3.1302276  84.6651230   1.4432137   6.4491549
  85.1105118   1.9434830   7.1329575  83.7355499   1.6265662   6.5852180
  46.3144531  65.0084991  51.8102989  46.7239532  65.5419464  52.4914551
  46.7098541  65.3164978  50.9948082  42.0297546  52.0617828   7.0503793
  42.6402435  52.7705841   7.2531872  41.9493446  51.5732002   7.8695583
  79.2231445  23.1888943  16.9316311  79.7652359  23.9583149  17.1058636
  79.4080734  22.5957451  17.6597843  20.4705696  63.6121788  62.0339050
  20.0814304  63.2724152  61.2280731  20.8724155  62.8477325  62.4466667
  75.2739563  41.9423141  55.9084091  75.4973297  42.2974930  56.7687492
  75.9340973  42.3079872  55.3195724  51.7129707  28.6687527  52.2504463
  52.0785980  28.8802032  53.1094208  52.4630241  28.7000446  51.6565819
  83.8329468  45.2891350  56.9379005  83.4721756  46.0119858  56.4245186
  83.2943878  45.2649269  57.7288513  16.9101467  11.1390743  57.5651741
  16.4409065  11.1793442  58.3984947  16.9986401  12.0532894  57.2957077
  44.0719147  27.5202942  62.1057777  43.2834435  26.9991570  61.9542503
  43.7864304  28.4263344  61.9882164  40.3507614  29.5472946   2.1919277
  40.3523941  29.8581772   1.2866200  39.4850044  29.1562576   2.3093262
  64.4403076  13.4022455  61.7789764  63.9692917  12.5843430  61.6195564
  64.1167450  13.7033939  62.6280022  23.8597088  16.1640530  33.6889648
  24.1758900  15.3201056  34.0114746  23.2170525  15.9379826  33.0165672
   3.3870232  15.3093882  38.2050247   3.8141608  14.4585495  38.3043137
   3.8690674  15.7383318  37.4980087  45.6521454  55.0451775  83.6973724
  45.5347862  55.9837685  83.8440094  45.3437042  54.9021454  82.8025894
  35.1172714   7.5894680  71.1410751  35.8398895   7.8703227  70.5796738
  35.4156036   6.7625222  71.5197449  80.4759750  36.0802956   1.2024999
  81.0098343  35.9305878   0.4222319  81.0962296  36.0320587   1.9299530
  32.9070396  52.9744759  85.5661621  33.8514824  52.8860512  85.4379349
  32.5204010  52.5404015  84.8056946  66.8057709  49.1303253  75.0988007
  67.0372543  48.2404747  75.3648911  66.0745163  49.3681946  75.6688156
  37.1348228  25.9260979   3.8941269  36.4460449  25.2923641   3.6936271
  37.4267349  25.6918659   4.7751231  63.0858002  69.4926605   9.0332222
  62.4725227  70.0531998   8.5579147  63.7689629  69.2893448   8.3943262
  63.6297684   4.3648739  35.4003181  63.4958344   5.2560649  35.0777168
  64.1132965   4.4765801  36.2188263  53.1524086  55.7227249  39.6518173
  52.7176323  55.0837402  40.2165337  54.0849686  55.5266953  39.7420158
  72.8246765  43.8180084  29.8638382  72.3190460  43.5026588  30.6129227
  72.2361374  44.4260941  29.4165192  56.2114525   6.6198721  27.9797859
  56.2958488   6.6998262  28.9298992  56.8316803   7.2593298  27.6295815
  18.6556244  23.6290703   7.4509540  18.2874737  24.0815773   8.2098570
  18.2020435  24.0124054   6.7002540  21.1763611  62.7172394   6.9719353
  21.6765594  62.0093727   6.5657840  21.8155518  63.4175911   7.1029921
  11.2402010   4.3212667  50.8642502  12.0547800   3.8260145  50.7781258
  11.5147142   5.1795616  51.1870575   0.3341453  17.3839092  73.5163727
   0.1622780  16.9937496  74.3733826   0.5343502  18.3004704  73.7062836
  21.6766281  23.0351372  62.1058578  21.7094288  22.3682442  62.7917213
  22.5738850  23.0838261  61.7760201  54.8237000  34.4185219  38.2864342
  54.2669296  33.6425705  38.3507843  54.2099800  35.1528664  38.2685928
   2.1060565   7.6021495  48.6016083   1.8109481   7.5773268  47.6913757
   3.0321324   7.3636923  48.5597382  41.2873650  46.8149414  63.6986847
  42.0402374  46.4559441  63.2290764  40.6829529  47.0885620  63.0087242
  36.0011826  70.9818268  21.9497490  35.7545738  70.1696777  21.5072136
  35.4924240  71.6604080  21.5059872  52.9555664  67.1193695  41.1869965
  52.2705421  66.7367706  40.6387329  52.9322319  66.6045074  41.9935989
  17.2221909  29.8495674  89.0693436  17.1005173  29.6308346  88.1454468
  17.1860886  30.8057175  89.0958710  47.3932953  47.1173096  36.3515778
  47.3980179  47.9692535  35.9152298  46.5233231  47.0550003  36.7459106
  68.2404709   1.7935255  20.1822681  69.0092850   2.3637347  20.1785107
  67.6131592   2.2410154  20.7501259  13.7564039  39.5358582  61.6429710
  13.2890520  39.1385460  60.9081535  13.1732626  40.2297630  61.9506607
  27.7308502  38.6843414   5.9840951  27.1926727  38.0029488   5.5812306
  28.4139595  38.8633194   5.3379049  23.7624149  62.3636780  46.5855408
  23.4536400  63.1480446  47.0390358  23.2971973  62.3718948  45.7490387
  19.2565994  53.7008896  44.7875938  19.9423618  53.3115807  44.2450066
  18.8593483  52.9575844  45.2413750   8.9269438  39.1076012  78.9522400
   8.0322685  38.8924751  79.2158890   8.8455210  39.9388008  78.4845810
  29.1736679  11.4581804  81.4777756  28.9495506  12.0017624  82.2331009
  28.9947300  12.0152740  80.7202377  59.5539436  53.7707558  25.2416553
  58.8665314  53.1048203  25.2566452  59.8742905  53.8046379  26.1430225
  36.7985268  37.5660210  70.6664200  37.6646500  37.7266998  71.0409088
  36.9259338  36.8208656  70.0792694  39.9801559   8.8261271  14.3882427
  39.3059235   8.1604939  14.2519503  40.8014565   8.3816643  14.1781273
  36.8274765  64.6748734  60.8312149  36.9684944  65.3985672  61.4416389
  36.0505714  64.9294052  60.3333588  34.9201622  63.9404488   0.1104272
  34.0646095  64.2601700   0.3968531  35.5077553  64.6860886   0.2328370
  24.1054649  13.7039547  69.6238403  24.4796543  14.0096626  70.4501343
  23.1782665  13.5658236  69.8173752  55.8435326  59.2142868  13.4275265
  55.4354210  59.1368408  14.2898941  56.3466721  60.0273247  13.4728041
  66.0320053   8.4165964  68.5855331  65.5980759   9.1815500  68.9634018
  65.9420471   8.5330734  67.6397171  15.2027092  34.7739449  88.0787354
  16.1585274  34.7592621  88.0294800  14.9435635  33.8580742  87.9774704
  50.9145012   5.0281053  86.6415253  50.9670830   5.4182477  85.7690277
  51.5493126   4.3119521  86.6223145  79.6834869   6.2343245  67.3816910
  80.1537781   5.5498786  66.9056702  79.4998779   6.9024310  66.7212753
  35.5018654  45.7548409  77.4621201  35.3062363  46.6862564  77.3600082
  34.8946686  45.3158607  76.8664322  70.4194489   2.5146890  36.1426392
  70.7616882   3.0344286  35.4153328  71.0465927   2.6536744  36.8522911
  55.2419167  37.3980370  56.8635216  54.4255981  36.9341125  57.0496063
  55.5722046  36.9899940  56.0631180  25.3775711  66.3201447  82.1054459
  25.8852997  65.5167770  82.2196350  26.0057468  67.0249481  82.2631836
  63.1052322  50.7989960  68.8921814  62.3681068  51.3248978  69.2025146
  62.7779465  50.3712654  68.1008759  19.7151165  49.6549950  62.9323158
  20.2107029  49.0085106  62.4296379  18.9841957  49.8928604  62.3618736
  60.6972313  36.1414948  80.9306793  61.5340385  35.6771202  80.9122467
  60.8307228  36.8507843  81.5594254  70.7918243   3.2923813  51.0541229
  71.0204315   4.2213969  51.0841484  70.0244827   3.2160981  51.6212196
  47.7698364  66.5518875  53.4477005  48.2912560  66.5632782  54.2503357
  48.3123779  67.0062637  52.8031654  24.9606495  21.6398411  74.1043091
  25.1398296  21.0339546  73.3852615  24.2924938  22.2314339  73.7581635
  28.1412754  42.3991203  85.1263046  27.7877693  42.9446945  85.8288803
  28.9760056  42.0791435  85.4684677  42.2994118  65.2643814  50.9107590
  42.7509956  66.0895538  50.7335625  42.8768654  64.5926437  50.5480576
   8.7173853  69.8228989  26.2885799   7.9594855  70.3465881  26.0286312
   8.6879826  69.0575714  25.7144375  85.8001175  33.1500053  52.7255363
  85.2188873  33.7646675  53.1734085  85.3089371  32.8772316  51.9505730
  49.9401588  43.7529793  83.2319107  49.2046165  43.2786484  82.8443298
  50.7115974  43.4063568  82.7836151  74.2418289  64.3306351  55.8208199
  74.4139175  64.7561798  54.9808655  74.9606171  64.6152649  56.3852348
  78.8653412   2.7441058  47.2244873  79.4302139   1.9777818  47.1249771
  78.0892029   2.5388610  46.7032204  38.0728683  55.7199783   5.9356451
  38.6178970  55.3168716   6.6114268  38.6421127  56.3713074   5.5258069
  67.7569962  37.0197792  42.8302383  67.4879456  37.7630386  42.2904129
  67.1687927  36.3103905  42.5713730  86.4567566  53.8838120  45.2793312
  85.9016037  53.1970711  45.6486816  86.1231918  54.0095215  44.3909836
  66.7063675   3.2428586  21.6148300  66.0576935   3.7646747  21.1424313
  66.2030029   2.7907279  22.2919083  77.4641876  50.8523712  67.6674805
  76.9804001  51.4227257  67.0700912  77.1489868  49.9714279  67.4654465
  60.4998932  45.4590416  36.5763397  59.6485252  45.1135292  36.8447227
  60.9156342  44.7347832  36.1085358  72.0571747  28.0456638  83.6495056
  71.6969070  28.6488075  84.2996292  71.7342224  28.3762054  82.8112411
  64.1992340  37.6092339  32.9962006  63.6236076  36.9261055  32.6523552
  63.7759933  37.8937416  33.8062363  43.3075714  48.2663307   7.1359787
  43.6974983  47.5254517   7.5999722  42.4347572  48.3560257   7.5185814
  40.7775726  47.2026978  52.1633987  40.8624153  47.7985649  52.9076958
  41.6650848  47.1301842  51.8122597  30.1354866   5.0772452  57.3146820
  30.9979324   5.0447550  56.9007225  29.5696602   4.5740252  56.7291565
  11.1246500  55.3671761  25.5168266  10.9640942  56.2498970  25.8503819
  12.0518799  55.2090645  25.6942463   3.9226167   7.6031489  25.6273289
   4.6716928   7.2155175  26.0799408   3.1586442   7.2556505  26.0875702
  69.5664062  37.4462166  77.0636902  68.6578903  37.5185585  76.7711258
  69.5103607  37.0085754  77.9131393  81.6791000  17.4319057  43.6762924
  82.5192566  17.6346092  43.2648582  81.7722931  17.7425747  44.5768661
  49.2766304  38.9957771  47.7360039  49.3264198  38.6664772  46.8386116
  48.8966370  39.8700600  47.6495743  76.1135330  11.1579704  61.5814171
  75.2417145  11.0530844  61.9624138  76.3070831  10.3069572  61.1882935
   8.9406128  35.7820587   3.4401822   8.0741262  36.1155014   3.6730978
   9.2629881  35.3717079   4.2426262  36.2942581  16.1757545  82.0477448
  36.2522583  16.0819931  82.9994202  36.6457176  15.3402767  81.7400436
  21.4870892  10.1521883  63.7454491  21.5723572  11.0741100  63.9883919
  21.6794987   9.6732826  64.5515823   6.4880409  14.0190258  12.6143017
   5.6060853  13.6933470  12.4345255   6.8721147  13.3622541  13.1951380
   4.1144242  62.8097534  65.7184448   3.4382350  62.4894562  66.3154449
   3.6774142  63.4878731  65.2032623  11.3819714  19.3619900  80.8619614
  11.4784546  19.2558002  79.9155731  12.0806904  19.9684410  81.1073990
  20.0076027   7.3020954  75.2156906  19.6221714   7.9954586  74.6800385
  19.3660564   6.5923057  75.1865463  81.3268967  20.7737007  22.7118778
  81.2874527  20.2008476  21.9460354  81.4174500  21.6543350  22.3478527
  56.7411766  46.2177010  49.7585258  56.2462311  45.4935036  49.3753853
  56.1372757  46.6150742  50.3859253  12.3184643  54.0395012  68.5108490
  13.1647644  54.0191879  68.0640869  12.5103130  53.7440376  69.4008636
  50.9201698  68.0890656  35.5667419  51.0162392  67.2854767  35.0556183
  51.4987526  67.9649734  36.3191261  22.6660118  10.3510151  73.1236343
  23.4988880  10.7800207  72.9274139  22.5696468  10.4374895  74.0720367
  63.0810661  28.0456715  58.3624649  62.9483986  27.9312534  59.3034973
  63.5918770  28.8518257  58.2888680  20.4910297  59.1073303  70.5261688
  21.3752232  59.3099480  70.2205887  20.3831768  58.1735992  70.3452225
  86.8188858  44.7091446  36.4469147  86.2130051  45.4406166  36.3282166
  86.4367218  44.1945305  37.1577988  66.6841202  16.9802036  70.5275421
  66.6091309  16.1906986  69.9915466  65.9292526  17.5126190  70.2766571
  79.1479111  28.9282398  14.2949362  78.3005219  28.9600010  14.7389517
  79.3643188  27.9965458  14.2582569  18.7238636  14.4637289  18.8297215
  18.2929993  15.0045061  19.4916496  18.0421486  14.2916775  18.1801872
  60.2255859  21.1798382  45.2431870  60.6337318  22.0335407  45.0988312
  60.0727463  20.8355637  44.3632164   6.5129814  54.2136993  66.3912582
   7.2281656  54.2561150  67.0260391   6.9278789  54.4040756  65.5499268
  68.6049805  37.7511215  30.1433220  67.8771057  37.9071007  30.7450714
  68.5799866  38.4935417  29.5396500  72.4458618  15.4733152   6.7318001
  72.7891159  14.8352413   7.3573146  72.9591293  16.2653217   6.8915348
  82.6706848   1.9639912  49.7697716  82.6886673   1.0309167  49.9825630
  83.2798386   2.0543189  49.0369682   7.2126064  42.8769684   5.9757977
   6.9757571  42.8746948   5.0483665   7.8479676  42.1663094   6.0624804
  24.6347294  31.1329975   2.1446466  25.1911774  31.6419811   1.5551252
  24.7130470  31.5757122   2.9896929  29.0506935  31.5490952   2.2960777
  28.9843445  30.5942955   2.2823749  28.2878838  31.8350010   2.7986810
  73.3388596  51.8613472   9.0002270  73.1816711  51.6348228   8.0835991
  72.6576843  51.3930740   9.4828796  69.9162292   2.8095989  79.1101608
  70.3048401   3.2484181  78.3534241  70.5305023   2.9761193  79.8251266
   1.2529613  32.7132187  11.9832659   0.7815577  31.9072075  11.7726603
   1.5711354  33.0322418  11.1387405  24.8125858  61.5582809  54.6393433
  24.5786152  62.4843254  54.7020416  25.6204948  61.5495872  54.1260796
   0.9874862  56.4435806  76.9599075   0.5722649  55.5814323  76.9827881
   1.0589784  56.6994743  77.8794937  83.0765305  17.8177948  23.4299145
  82.6379166  17.8303967  24.2806168  83.8713226  18.3344536  23.5625515
  71.3717422  70.4077835  43.7371712  70.8131790  71.0526962  43.3032150
  71.5618515  69.7602081  43.0583954  65.9199066  61.4648476  49.9777870
  65.6578293  62.3734665  50.1259956  65.3893738  61.1809349  49.2333641
  79.9661331  31.7228851  13.1048536  79.3319550  31.2080345  13.6038370
  80.8151779  31.3457699  13.3353682  10.4885979  10.8332300  58.6603355
  11.3188343  10.3579664  58.6929321   9.9754801  10.4687128  59.3814926
  70.4635162  41.0019951  17.9655991  71.0952301  41.3780594  17.3526134
  70.0734863  41.7592583  18.4022408  15.3944654  17.9063911  18.9389076
  14.6080484  17.7737484  19.4682331  15.0694036  17.9818840  18.0417633
  79.6033020   5.3077288  77.6690292  78.6941376   5.0159607  77.6017303
  80.1043396   4.6403766  77.2001648  17.3524151  42.4451981  77.5893021
  18.0414848  42.9274521  77.1323013  17.7396049  42.2175827  78.4345856
  26.7487679  33.3231773  72.6760635  26.2176704  33.2905922  71.8803864
  26.5015278  32.5360947  73.1614532  20.3176231  11.7696972  83.7635803
  20.0551701  12.6780062  83.9129944  19.6718540  11.4328737  83.1424789
  74.0938492  45.7790871  41.5405617  74.5383606  45.6996117  42.3845558
  74.3943100  46.6174202  41.1896248  60.4453888  13.7450924  87.0327911
  61.1418610  14.1339302  87.5619125  59.6549835  14.2188311  87.2917633
  75.3386536  54.0050621  67.6506729  74.7736511  53.2326889  67.6716232
  74.7705002  54.7249451  67.9248962  57.8868752  24.8712196  57.2706146
  57.8998985  25.8263283  57.2087097  58.5933990  24.6611309  57.8812866
  71.6535339  62.8079338  69.0096207  70.8535461  63.1443748  69.4134140
  72.1829529  62.5016518  69.7459259  50.3305359  67.8680954  40.1468391
  50.2540016  68.2355804  41.0273666  49.5690689  68.2093506  39.6778603
  86.0431519  27.9576740  60.7384834  86.8472672  27.7341404  61.2071724
  86.2473907  28.7784939  60.2904053  82.4631653  18.9267788  68.1441956
  83.0899734  19.2859936  68.7721329  83.0065079  18.5151825  67.4721832
  83.4324341  62.7693901  13.3520298  83.4210663  63.6990395  13.5797520
  82.5339432  62.5775909  13.0834169  58.2056007  58.8191910  56.0767212
  57.8930092  59.6782188  56.3606033  58.6676712  58.9915581  55.2563477
  41.8711929  12.5132189  82.1053162  41.2321053  12.6170378  82.8103104
  42.7085571  12.7493401  82.5044327  22.7362633  11.4049129  82.3235016
  22.3723984  11.1735210  81.4689331  21.9719543  11.6130142  82.8608627
  52.7367249  51.4582939  28.8275108  51.9881516  50.9375229  29.1184940
  52.6590233  52.2805557  29.3113251  41.4254990  20.6553020  88.5233994
  41.8220940  21.0348530  89.3075485  40.7003670  21.2436447  88.3130035
  70.4973831  14.0733681  23.9835358  70.8065720  14.4643126  23.1663494
  71.2787247  14.0192308  24.5338135  78.0929565  66.7941284  74.9297409
  77.1938858  66.6098785  75.2016983  78.6210403  66.6071548  75.7058868
  22.1421776   8.7719240  23.9250221  22.3745060   7.8571601  23.7654495
  22.2634964   9.2011003  23.0780754  77.3123322   0.1691855   9.2459984
  77.4844894  -0.6764283   8.8318357  77.1052856   0.7548404   8.5177317
  62.1288261  30.7803555  51.5048752  62.2228966  30.3287945  52.3436089
  61.2135048  30.6435432  51.2605362  51.9662437  67.5052261  50.0034027
  52.5160370  67.1466293  50.7000847  52.1275406  68.4482880  50.0324478
  45.0223083  36.0671501   1.1786237  44.6855888  36.6267967   0.4788749
  45.5584412  36.6509895   1.7152114  86.3594818  10.2648869  49.0406990
  86.7470551   9.8429852  48.2738762  86.9548035  10.0500050  49.7587891
  50.4360161  44.2359009  46.4048195  50.7916679  43.9162483  47.2340164
  50.0503540  43.4614830  45.9952126  39.8860283  42.4146996  82.5550308
  40.6010742  42.9114418  82.1573029  39.2648239  43.0816040  82.8475647
  13.0939798   2.1501627  83.3790970  13.5467052   1.4817450  82.8648148
  12.3616982   1.6855029  83.7841721  80.4910965  62.2383003  20.7005043
  81.1713028  61.8282051  21.2347069  80.7872925  63.1414871  20.5875473
  11.2167559  38.8561974  55.9579773  10.7310858  39.2209129  55.2181511
  10.6221533  38.9463806  56.7026558  52.4180489  12.2032585  15.3312416
  53.2451897  12.1369600  14.8540850  52.5962868  12.8284340  16.0338211
  81.5834198  53.4841385  85.3144302  81.9287567  52.8917274  85.9822769
  80.6334534  53.3812866  85.3711395  45.8647385  41.5796700  73.0220108
  45.5116997  42.4243698  73.3014374  45.8059464  41.5996628  72.0668259
  35.5110741  40.1767464  29.4409084  34.5637131  40.1923828  29.3049183
  35.7364464  39.2464981  29.4497776  19.0282402  35.9284554   7.5508041
  19.1109123  36.5128975   6.7972631  19.6096516  36.3053970   8.2111893
  26.3885784  40.5848885  15.9707775  26.9890079  40.6740303  15.2306633
  26.9514370  40.6359253  16.7433167  51.8721924   0.9611798  13.8836908
  51.8264961   0.6255359  12.9884329  50.9613762   0.9858705  14.1770086
  51.2526550  39.8424683  59.7556343  51.3276787  39.3894005  58.9157944
  50.4866676  40.4076424  59.6552963  33.6199684  53.9930496  38.1833191
  34.0237885  53.2607765  37.7175522  34.3524933  54.5661163  38.4096718
  84.3086014  70.9469910  71.6788788  84.0903244  71.8652191  71.5193634
  84.9821472  70.9754715  72.3584061   8.4223528  41.1301155  17.2611084
   7.8236179  41.8303452  17.0014458   7.8953700  40.3327484  17.2089005
  49.7033920  56.8867455  19.5052090  50.0443420  56.0387230  19.7895355
  50.2313614  57.5285835  19.9801006  78.7950974  31.4678230  58.5427284
  78.1534729  32.0921135  58.8815536  79.2331085  31.1273956  59.3227882
  34.2611465  41.8442993  87.4093933  34.1580391  42.4853287  88.1127319
  33.6309662  41.1550484  87.6192322  63.3193779  54.2926788  60.1267204
  63.5245972  55.2271652  60.0975418  63.7807961  53.9225159  59.3741875
  15.3078403  58.9597359  40.4487343  15.0325575  59.4844360  41.2004929
  16.1352100  59.3535080  40.1719017  43.5863495  54.3055153   7.0775218
  44.1969833  53.8242950   6.5191436  42.9124489  54.6237793   6.4768553
  15.9661608  12.8528547  78.9203262  15.0846090  13.0736332  79.2209167
  16.2797966  12.2061081  79.5524521  10.0705709  44.8262444   6.7602739
  10.9574966  44.6268044   6.4605761   9.5673990  44.9479866   5.9551473
  35.2812119   4.4528518  78.3263550  35.2405510   4.6549768  79.2610855
  34.5725937   3.8248317  78.1860657  48.2588043  65.7297516  32.1760101
  47.5730858  66.2470169  31.7535725  48.3302956  64.9415817  31.6375751
  16.4173908  71.2522964  68.3117676  16.4047699  70.9531479  67.4026031
  17.2689190  70.9694977  68.6451645  29.4319229  46.4562912  10.5854158
  29.7920837  45.7737122  10.0191984  29.2047539  47.1683502   9.9874220
  59.2153206  15.6836948  75.4763260  58.3166008  15.5677404  75.1679611
  59.1223564  15.9451094  76.3924332  77.5937653  64.7211609  31.6286945
  77.6930695  65.6320496  31.3518333  77.8329468  64.2086716  30.8564396
  73.6475830  40.9007759  67.0514984  74.3846893  40.4553146  67.4692001
  74.0402451  41.3825684  66.3235321  13.0568457  66.9022064  81.8267593
  12.6273985  66.0958633  82.1124573  12.5215330  67.2129211  81.0966034
  21.4964657  35.8450394  14.2629805  20.6461258  36.2843819  14.2745075
  21.9227085  36.1269646  15.0723419   1.3428265   3.4047534  12.3364372
   0.7318951   3.5563452  11.6153164   2.0027425   4.0913153  12.2396069
   7.7653298  63.6506462  13.3773241   7.2705512  63.9282303  14.1482801
   8.6293421  64.0463333  13.4919844   1.8700956  27.7271461  61.5386620
   2.7473040  27.7687607  61.1578636   1.9812638  28.0516891  62.4322739
  60.7989120   3.6714666  61.4292183  61.2930374   3.7041085  60.6100655
  61.1186333   2.8845782  61.8705978  81.9279327  58.9892044  58.9691925
  81.7879028  59.2710075  58.0651970  81.9266357  59.8011551  59.4761124
  48.1044083  66.4644852  82.8970184  48.1032410  65.6079712  83.3243561
  48.5676117  67.0367279  83.5087433  57.5895653  38.2219849  51.9243355
  57.7448502  38.5664177  51.0448532  58.4294586  38.3219566  52.3724594
   8.7449389  25.8453312  74.5479736   9.1726532  25.6056118  75.3700562
   9.4656467  25.9702301  73.9305496  85.2796173  31.4393749  43.4847870
  84.5012131  31.7753639  43.9291153  85.4046783  30.5635509  43.8501892
  59.9810486  15.6036367  72.8956528  59.7329330  15.4125299  73.8001709
  60.9329529  15.5039921  72.8822479  81.0847015  49.2635269   7.5319676
  80.1633224  49.0557938   7.3766127  81.0828552  49.7660942   8.3466177
   8.6012402   4.7580786  72.4884872   7.7357225   4.4109383  72.7043686
   8.9499340   4.1460533  71.8403625  20.9488773   3.8584692  27.1318054
  20.6312695   4.2885675  27.9257660  21.0223637   4.5646963  26.4898758
  84.6378632   9.1581831  26.9761467  84.1881866   9.7522821  27.5770359
  85.3926010   9.6580772  26.6651783  81.6777878  38.0904503  77.3412170
  82.2353058  38.8682327  77.3626556  82.1539612  37.4695663  76.7898560
   2.3561263  45.0491371  64.5913696   1.7694818  44.8829994  63.8534813
   3.2123988  44.7459030  64.2895737  84.2726746  15.8573008  14.7539043
  83.5086517  16.4322662  14.7101917  83.9822235  15.0415812  14.3458977
  78.1876678  35.2084389  73.3509064  77.3832245  35.0960960  72.8444672
  78.0231476  34.7394485  74.1689606  33.2302132   3.4371572  74.9951248
  33.3041000   3.3757758  74.0427628  32.3918343   3.0219810  75.1975708
  31.3851929  67.3556747  51.3808632  31.6605740  67.3758545  52.2973709
  30.6396122  67.9546661  51.3415527  29.5976830  30.5727367  78.0343781
  28.9217701  30.1443806  77.5091324  29.1163788  30.9947567  78.7460556
   7.8750267  42.2940140  51.5519829   8.1625767  42.3542290  52.4629822
   8.4592371  41.6456909  51.1587791  66.0922852  23.6158485  51.0546684
  65.9543991  24.4871502  51.4262199  65.4094543  23.5282669  50.3896103
  72.4512634  57.8152580  87.3771439  72.1711426  57.0735130  87.9134064
  73.3510284  57.6043053  87.1278458  76.4689865  43.5318794  71.5641556
  75.8177643  42.9317856  71.9275284  76.1264877  43.7627335  70.7006607
   4.8616381  46.8538628   1.9401867   5.5223970  46.8437347   2.6326654
   5.3640261  46.9502831   1.1311494  57.4020767  14.9132280  84.7577515
  57.9171410  14.9403639  85.5641022  57.4379539  13.9975119  84.4813309
   2.7754633  15.6596088  13.5839214   2.9365575  15.6088057  12.6417427
   1.8444917  15.8698978  13.6567345  83.1434021  15.1572609  68.9862213
  82.9372787  14.2716990  68.6870193  82.2988205  15.6074505  69.0018539
  61.1322098   1.6446942  17.2008991  61.6062279   2.3316979  16.7323208
  61.7175941   0.8878833  17.1727543   4.3784451   5.4119592  11.2220459
   3.9995465   6.2405543  10.9286222   5.3242540   5.5538454  11.1827211
  39.3198891  64.3594742   1.2427958  39.0975685  64.4834900   0.3200692
  39.5987320  63.4456558   1.3012484  25.8466377  69.4838181  56.5676117
  25.9330196  70.0475922  57.3363304  25.6669827  70.0874939  55.8468285
   6.3564315   6.0258584  66.0574112   5.7388086   6.3631501  66.7062683
   6.8938341   5.3989086  66.5415268  73.7314148  41.3196564  77.6548004
  74.4734421  41.9106750  77.7826080  74.0084152  40.4968262  78.0578537
  23.8856945   2.5787194  66.9493332  23.8432922   3.0741003  66.1313934
  24.2821598   3.1842065  67.5757828  29.0857143   4.0109534  70.1951141
  29.9346561   4.3656540  70.4591599  29.1368542   3.0802197  70.4127197
  83.6301193  63.2296448  -0.1354202  83.0478668  63.0735283   0.6081171
  83.3981094  64.1064682  -0.4413380  28.8068542  69.9768753  70.9124985
  28.2879581  70.6927948  71.2791519  28.5261250  69.2030182  71.4009399
  52.6346970  51.3271217  63.0480652  51.7718277  51.2755852  62.6369324
  52.5072479  50.9534035  63.9200287  68.4173203  12.6189547  31.9350929
  68.4646225  13.5702581  32.0300484  69.3238220  12.3241835  32.0222054
  86.1387405  46.3672333  27.0925140  86.8549957  45.9191017  27.5423908
  85.7807617  46.9652824  27.7485771  79.3332596  61.3417244  77.4165802
  80.0957947  61.8211708  77.0926895  78.7601776  61.2600136  76.6542587
  39.1723747  51.0356369  70.1022263  39.0886154  51.6748047  69.3946381
  38.2731781  50.7657661  70.2889023  59.0642281  17.3782082  84.6063385
  58.8609276  16.7159081  83.9458389  59.7638855  16.9875088  85.1298523
  63.0604668  61.7737427  22.3801937  62.4422684  61.1151390  22.0634861
  63.9110260  61.3353806  22.3554230  38.5914459  14.8937340  85.8395844
  38.5249901  15.7065382  86.3407516  37.9953117  14.2898407  86.2824936
   4.5989556  68.6285477   0.0482049   5.3012462  69.1328125   0.4589879
   3.7936318  69.0183182   0.3884480  82.7983398  17.7066383  31.3906307
  83.3212738  18.1627731  32.0499573  83.4316101  17.4430275  30.7230129
  23.4677124   4.9553366  52.3641052  22.7654934   4.6599679  52.9436569
  23.5868168   5.8793478  52.5837631  86.5199432  23.3775558  49.8763199
  86.2640457  24.2750435  49.6635666  85.6985855  22.9418659  50.1038857
  47.6388512  48.6440468  63.9938622  46.6967049  48.5464821  64.1319733
  47.7987289  49.5831032  64.0878830  51.2876854   3.2348311  48.0234413
  51.8074226   2.4315391  47.9946556  51.9350052   3.9365797  48.0924339
  43.9384689  27.3371639  39.8950844  43.2656593  26.7908821  39.4887199
  44.6630058  27.3297615  39.2696075  42.5535011  59.3768311  84.5977554
  42.8152199  60.2949791  84.5289383  42.7307701  59.0116272  83.7308960
  64.2254333  49.2951508  70.7695007  64.0373077  50.0734215  70.2449722
  64.9261017  49.5688782  71.3614273  65.1707535  64.3608780  21.7017174
  65.9087296  63.7733307  21.5392361  64.6903000  63.9490128  22.4198837
  72.1219559  18.5544243  68.6961517  71.9639206  19.3858299  68.2489166
  71.2495193  18.2413292  68.9350204  24.4453239  16.7823658   6.1928511
  24.7596645  16.0572128   5.6528740  24.5496216  17.5561047   5.6390615
   6.8533473  16.4342270  77.1399307   6.0776072  16.9638519  76.9556580
   7.3366084  16.4217396  76.3137741  65.0472641  15.5454674  83.4031448
  64.3803864  15.3422756  84.0590515  65.8780594  15.3596401  83.8407364
  48.5043526   1.0984148  28.1431141  48.0943336   0.2368600  28.2195263
  47.8330460   1.7107031  28.4442501  47.3491859   7.8016868  18.8086929
  47.3326454   8.5054932  19.4572411  46.5634613   7.2871804  18.9934959
  75.8084412   6.7379150  37.0876732  74.9158859   6.8017650  37.4275246
  76.3288040   6.4432549  37.8350868  57.4708176  24.5948219  40.9438438
  57.3296776  24.5383911  41.8888969  57.9348488  23.7874546  40.7223473
  12.4021349  15.2134914  74.0526276  12.5692720  15.4021749  73.1292114
  13.1803541  15.5354462  74.5075455  60.8511086  22.3386936  87.0708694
  60.3067665  21.7272892  87.5669632  60.6602859  22.1397800  86.1542130
  66.8726883  34.5376625  26.9908371  67.3889923  33.7322235  26.9603271
  66.3681183  34.4681625  27.8012772  52.8009987  14.9235582  16.7115746
  53.4379272  15.5615711  16.3898697  52.0093880  15.4365120  16.8742504
  84.5377808  52.5574684  20.2168903  84.4756927  51.7949562  19.6416111
  85.4680405  52.6186180  20.4339523  26.1361046  34.6164207  56.8818016
  26.5067158  35.2443085  57.5019875  26.1344471  35.0796432  56.0441513
  83.3222198  41.1998901  82.7815323  82.3929672  41.0949707  82.5772781
  83.5159836  40.4860649  83.3891068  54.3903618   1.7468358  12.3294153
  54.1242599   2.5299630  12.8112183  53.5672150   1.3476748  12.0477524
  45.8534927  12.2385845  76.1550903  45.7643127  13.1911192  76.1860352
  46.7854996  12.0802832  76.3052139  31.2197723  65.3492279  62.3735847
  30.6684875  66.0174026  62.7808533  31.9934750  65.8268356  62.0743980
  15.9502916  69.5206070  40.3379517  16.3596630  69.8930740  41.1189194
  16.6797371  69.1593704  39.8343124  31.3627758  36.1916542  74.3045273
  31.2248344  35.9326744  75.2156448  30.7840900  35.6180191  73.8022385
  52.6188774   1.9097203  76.1109314  52.7800331   2.6915758  76.6390991
  51.6698456   1.7895086  76.1443787  11.8778811  59.0753441  55.0885620
  11.7220888  58.2023010  54.7283478  12.3570318  59.5364952  54.4000969
  40.7979126  25.9053459   7.4521971  40.3989296  25.8581848   8.3210001
  41.5778694  25.3542061   7.5165815  85.5819702  47.5179100  15.9637928
  85.1693268  48.0022926  15.2487173  86.4503937  47.2922478  15.6304092
  61.9669685  57.5948753   7.3244019  62.1924858  58.1532173   8.0684633
  61.1836700  57.1232185   7.6076221  21.1559277  45.4901047  75.3294373
  22.1045132  45.4005890  75.4211044  20.9824409  46.4112854  75.5232468
  48.6745148  17.1289616  12.8976870  47.8878593  17.6572952  13.0328474
  48.4468155  16.5400410  12.1782713  39.1839485  50.7201347  67.1414948
  39.9232979  51.3089294  67.2928848  39.4484863  49.8943520  67.5468750
  41.8837090  63.8963280  17.6823654  42.2913475  63.1088409  18.0428181
  41.8707695  63.7479591  16.7368221   8.0035162  58.5321960  53.6661263
   7.8986325  58.1072807  52.8148422   8.0660582  57.8081779  54.2891197
  18.9281025  20.7662659  82.7878647  19.6389122  20.8024902  82.1478119
  18.3577728  21.4986057  82.5541229  80.0861511  10.7917471  26.2097683
  79.6275406  11.4419632  25.6776676  79.4826431  10.6011524  26.9278793
  73.5084915   7.1266632  15.7148190  73.9937820   7.9517026  15.7208023
  74.0433807   6.5303631  16.2387981  15.6466503  60.1237221   4.8219800
  15.9711399  59.3694611   5.3139448  15.1344452  60.6224709   5.4584746
  49.5779228  60.5337334  52.9267502  48.6305771  60.5580025  53.0615845
  49.9475861  60.6729584  53.7986450  38.2471962  10.4582157  74.0720825
  39.1368980  10.7386389  73.8575363  38.0821495   9.7177496  73.4883881
  12.4632368  63.2062950  26.6136112  13.1683369  62.6806374  26.9914360
  12.2332039  62.7515030  25.8033752  14.5686407   0.0004581  32.8247414
  14.9016972   0.5265377  32.0977325  15.3402014  -0.4511482  33.1667633
  53.9706879  36.6005516  83.3160095  53.6411171  35.9540329  82.6918106
  54.8534927  36.2986450  83.5298843  61.7046280  46.4751968  63.4495010
  61.5653381  46.5488777  64.3936386  62.5758209  46.8450050  63.3063469
  16.9935303  58.7943878  87.2220535  16.2241001  59.1593552  87.6591034
  17.0478058  59.2719231  86.3942642   6.8051653  29.2084522  73.2701111
   7.2026515  29.9253120  73.7644272   6.6611629  28.5204563  73.9198456
  83.8488693  71.2452545  56.1211662  82.8918076  71.2479019  56.1049385
  84.0731506  70.8292999  56.9535789  59.6860580  12.5275545   5.9232159
  59.5768890  11.7301197   6.4412999  60.4907532  12.3817225   5.4257951
  26.1594486   1.1196530  38.5899315  26.2729492   2.0627899  38.7075806
  26.1605186   0.9948279  37.6409035   8.7665882  48.4276237  53.2536736
   8.5516434  48.3462486  54.1828728   8.7811279  47.5264282  52.9313889
  61.2513542  37.0454941  40.0827560  61.3319359  36.8263474  41.0110397
  61.2892189  36.2012825  39.6331978  58.6025772  57.6652679  14.8727627
  57.6926384  57.9612999  14.8480577  58.7924004  57.3992233  13.9730854
   4.0375571  18.2496662   4.1258025   3.6099002  18.3123398   3.2717452
   4.8728642  17.8188858   3.9443591   7.5610123  60.7626610  55.4708176
   7.6006556  60.1485977  54.7376137   7.5357785  60.2055130  56.2487526
  23.5248604  25.5629845  54.9345703  24.3164902  26.1002903  54.9638481
  23.0936241  25.7259407  55.7734451  49.2541504  69.3808441  81.6913681
  49.0576134  68.8369522  80.9286270  48.6762581  70.1384888  81.6005936
  45.6610222  39.8864326   5.5617313  46.2478180  39.5856743   6.2555933
  44.9149284  40.2653160   6.0265174  73.3960037  50.0516548  79.3439255
  73.4489441  49.7760506  78.4287949  73.9061737  49.3972054  79.8210602
  13.8477850  43.6540070  54.5928421  14.2302246  43.0293427  53.9765892
  14.2949829  44.4793816  54.4057503  76.5677109   9.7594090  45.0265083
  76.3266449   9.4960947  45.9146461  75.8683014  10.3537226  44.7547379
  60.0633812  48.9216843  51.8846550  60.4617500  49.5157776  52.5207253
  59.9990425  49.4386749  51.0816498  27.1887894  55.1791687  14.8901253
  26.5209751  55.4219971  14.2488070  27.5681248  54.3703651  14.5463552
  58.1117706  62.5921783  43.4900284  57.4231911  62.0464897  43.1101456
  57.8369446  62.7278175  44.3968391  63.1354332  39.7675552  52.4232941
  63.7015915  39.8807335  53.1867638  62.6878929  38.9357224  52.5781937
  58.1452980  29.0130119  30.2373524  59.0938416  29.1192398  30.1651421
  57.7890015  29.8648891  29.9851780  15.0755243  52.3294487  76.9856186
  14.9571590  52.1999741  77.9266052  14.2867670  51.9569283  76.5915070
  24.6070919  52.5374641  21.4085979  24.6947422  51.8050232  20.7986164
  24.8535290  52.1722603  22.2583790  30.4396210  46.9142227  31.5108356
  29.8278942  47.6501808  31.4912090  31.0463104  47.0877953  30.7910881
  85.2892609   1.2970341  47.9616585  85.1628189   2.2025249  47.6782341
  85.5574341   1.3680456  48.8777771  82.8305817  19.4642334  64.3530045
  82.7136307  18.6167488  64.7823334  83.2944565  19.2594566  63.5411453
  49.2030563   0.9070192  14.6255341  48.8231697   1.7142266  14.9724264
  48.6358681   0.6716086  13.8912926  47.6543045  53.4140205   6.3175125
  47.3722801  53.0616417   5.4734015  48.6049309  53.3020515   6.3182454
  55.1034813   2.2525797  27.1486626  54.6190262   3.0198193  26.8439045
  55.8559990   2.6147277  27.6164188  70.9915924  24.7356358  44.4641991
  71.5299835  24.4508705  45.2026253  70.9684982  25.6896706  44.5384789
  38.6920166  31.8540497   9.9869595  39.3044891  31.5541725  10.6586618
  39.0082970  32.7247581   9.7459812  80.0157471   3.5707448  13.0125208
  79.7143784   3.2692158  12.1554976  80.0742035   2.7740028  13.5397940
  64.8489227  26.0153389  52.2339096  64.8493729  26.8309479  52.7349205
  64.8038406  26.2957783  51.3198242   2.6429648  41.3917198  53.6495743
   1.7270546  41.1316452  53.7480774   2.6029439  42.2924347  53.3281059
  55.5956573  35.9630432  11.5083551  56.4400139  36.3815804  11.6760454
  54.9975624  36.6904945  11.3370991  34.6777458  52.7941132  69.0753937
  34.3488464  53.4557991  68.4669266  35.5479431  52.5742760  68.7427444
  56.5037498  63.1354637  78.8913574  56.8528252  63.1023560  79.7820206
  56.7487411  64.0032578  78.5701981  35.0484123  27.2926579  64.7068176
  35.6730804  27.0485439  64.0238647  34.3690109  26.6199036  64.6615601
  55.7577248  10.8658972  28.7458172  55.0191498  10.2570543  28.7528343
  56.1649284  10.7583828  29.6053848  71.5409546  24.2489929  68.5404282
  71.8802719  23.9209309  67.7076797  72.3214645  24.4068146  69.0715942
  32.7344933  65.5868225  12.7698927  32.9620628  65.9871368  13.6090536
  32.9347649  64.6579742  12.8854818  77.8206787  28.6068096  44.0530510
  77.1994400  29.0631981  44.6205101  78.0498352  29.2502270  43.3824310
   3.6812716  54.0616684  57.8418312   3.6371667  54.8069077  57.2427444
   4.6155472  53.8655205  57.9117317  72.9399567  35.2064133  24.7464981
  72.0219040  35.4461365  24.6202049  73.2331848  34.9177055  23.8822651
  70.4059067  66.6022034  16.4526787  71.1436539  66.3571854  15.8941774
  69.7913818  67.0363312  15.8609657  66.3912277  44.2179375  12.9121122
  66.3395538  44.5975380  13.7893038  66.5598297  43.2878914  13.0631599
  38.7252884   8.2213249  41.8499260  38.2621613   9.0093412  42.1341438
  39.0371132   7.8209324  42.6615181  31.3252544  65.8123245  30.5449886
  30.5239391  65.3215942  30.3624897  31.1361294  66.2873993  31.3541660
  29.9149456  53.0620270  84.1034012  29.6894093  53.7158012  84.7651825
  29.2393131  52.3896561  84.1909561  49.9977913   2.7404771  11.6392469
  49.5737305   2.8573289  10.7890997  49.2925072   2.4591525  12.2220526
  15.8250017  53.6102753  37.2958908  16.5601082  52.9975929  37.2742691
  15.4376116  53.4890785  38.1627655  59.6085625  20.6628761   9.3994694
  59.9131775  20.6620178  10.3069057  58.9626465  21.3684177   9.3643169
   9.4866390  64.6009674  23.4657173  10.2672367  64.5391464  24.0162411
   9.5946655  63.9046211  22.8179035  42.3702087  42.5867538  74.0064621
  41.9023170  42.5312881  74.8396683  43.2724991  42.7916794  74.2516327
  19.3499870   7.2136827  48.5018501  19.4644661   7.9637589  49.0853844
  18.4529209   7.2965927  48.1783829  24.9406357  44.1981468  24.2772465
  25.3165550  43.4247284  23.8568420  23.9980488  44.0317459  24.2858658
  86.7535934  71.5803380  89.1134373  90.0000000  90.0000000  90.0000000
